/*--------------------------------*- C++ -*----------------------------------*\
| =========                 |                                                 |
| \\      /  F ield         | OpenFOAM: The Open Source CFD Toolbox           |
|  \\    /   O peration     | Version:  2306                                  |
|   \\  /    A nd           | Website:  www.openfoam.com                      |
|    \\/     M anipulation  |                                                 |
\*---------------------------------------------------------------------------*/
FoamFile
{
    version     2.0;
    format      ascii;
    arch        "LSB;label=32;scalar=64";
    class       volScalarField;
    location    "1600";
    object      cp;
}
// * * * * * * * * * * * * * * * * * * * * * * * * * * * * * * * * * * * * * //

dimensions      [0 0 0 0 0 0 0];

internalField   nonuniform List<scalar> 
20540
(
0.223206
0.0586694
0.223204
0.0540716
0.2232
0.0507109
0.223194
0.0488987
0.223186
0.0478009
0.223175
0.046981
0.22316
0.0463197
0.223141
0.045779
0.223116
0.0453315
0.223085
0.0449566
0.223046
0.044641
0.222999
0.044377
0.222941
0.0441602
0.22287
0.0439888
0.222786
0.0438626
0.222686
0.0437825
0.222569
0.0437499
0.222436
0.0437661
0.222287
0.0438316
0.222122
0.0439464
0.221944
0.0441091
0.221757
0.0443147
0.221568
0.0445554
0.221371
0.0448303
0.221133
0.0451765
0.220788
0.0456911
0.220299
0.0464401
0.219736
0.0473121
0.219213
0.0481525
0.218764
0.0488895
0.218456
0.0493736
0.218315
0.0495672
0.218332
0.0494801
0.218509
0.0491116
0.218847
0.0484586
0.219312
0.0475878
0.219846
0.0466407
0.220419
0.0456791
0.220921
0.0448496
0.221281
0.0442613
0.221539
0.0438513
0.221757
0.0435221
0.221967
0.0432341
0.222175
0.0429859
0.222374
0.0427841
0.222559
0.0426322
0.222729
0.0425308
0.222882
0.0424791
0.223015
0.0424757
0.223131
0.0425189
0.223228
0.0426068
0.22331
0.0427375
0.223379
0.0429103
0.223435
0.0431256
0.223482
0.0433855
0.223519
0.0436943
0.223549
0.0440597
0.223573
0.0444948
0.223592
0.0450198
0.223607
0.0456613
0.223618
0.0464565
0.223627
0.0475224
0.223632
0.0492858
0.223636
0.0525571
0.223639
0.0570301
-0.0087158
0.00358238
-0.00259898
-0.00963634
-0.0150231
-0.0202127
-0.0253997
-0.0303333
-0.0350396
-0.039557
-0.043889
-0.0480406
-0.0520224
-0.0558424
-0.0595091
-0.0630289
-0.0664093
-0.0696565
-0.0727767
-0.0757753
-0.0786581
-0.0814299
-0.0840956
-0.0866596
-0.0891262
-0.0914994
-0.093783
-0.0959808
-0.0980961
-0.100132
-0.102093
-0.10398
-0.105798
-0.107549
-0.109236
-0.110862
-0.112429
-0.113942
-0.115402
-0.116812
-0.118177
-0.119499
-0.120783
-0.122032
-0.12325
-0.124443
-0.125616
-0.126774
-0.127924
-0.129072
-0.130225
-0.131393
-0.132582
-0.133803
-0.135066
-0.13638
-0.137759
-0.139214
-0.140758
-0.142408
-0.144177
-0.146088
-0.148151
-0.150032
-0.151596
-0.153201
-0.15486
-0.156573
-0.15834
-0.160164
-0.162045
-0.163986
-0.165986
-0.168053
-0.170181
-0.172388
-0.174656
-0.177028
-0.179452
-0.182037
-0.184633
-0.187533
-0.190308
-0.193761
-0.196715
-0.201267
-0.204795
-0.212
-0.00871277
0.00358349
-0.00259854
-0.00963607
-0.0150229
-0.0202126
-0.0253996
-0.0303333
-0.0350395
-0.039557
-0.0438889
-0.0480406
-0.0520224
-0.0558424
-0.059509
-0.0630289
-0.0664092
-0.0696565
-0.0727766
-0.0757753
-0.0786581
-0.0814299
-0.0840956
-0.0866596
-0.0891262
-0.0914994
-0.093783
-0.0959808
-0.0980961
-0.100132
-0.102093
-0.10398
-0.105798
-0.107549
-0.109236
-0.110862
-0.112429
-0.113942
-0.115402
-0.116812
-0.118177
-0.119499
-0.120783
-0.122032
-0.12325
-0.124443
-0.125616
-0.126774
-0.127924
-0.129072
-0.130225
-0.131393
-0.132582
-0.133803
-0.135066
-0.136381
-0.137759
-0.139214
-0.140758
-0.142408
-0.144177
-0.146088
-0.148151
-0.150032
-0.151596
-0.153201
-0.15486
-0.156573
-0.158341
-0.160165
-0.162045
-0.163986
-0.165987
-0.168053
-0.170182
-0.172389
-0.174657
-0.177029
-0.179453
-0.182038
-0.184635
-0.187534
-0.19031
-0.193763
-0.196718
-0.201269
-0.204803
-0.211809
-0.00871454
0.00358542
-0.00259766
-0.00963548
-0.0150225
-0.0202122
-0.0253994
-0.0303331
-0.0350393
-0.0395568
-0.0438888
-0.0480405
-0.0520223
-0.0558423
-0.059509
-0.0630288
-0.0664092
-0.0696564
-0.0727766
-0.0757753
-0.0786581
-0.0814299
-0.0840956
-0.0866596
-0.0891262
-0.0914993
-0.093783
-0.0959808
-0.0980961
-0.100132
-0.102093
-0.10398
-0.105798
-0.107549
-0.109236
-0.110862
-0.112429
-0.113942
-0.115402
-0.116812
-0.118177
-0.119499
-0.120783
-0.122032
-0.12325
-0.124443
-0.125616
-0.126774
-0.127924
-0.129072
-0.130225
-0.131393
-0.132582
-0.133803
-0.135066
-0.136381
-0.137759
-0.139214
-0.140758
-0.142408
-0.144177
-0.146088
-0.148152
-0.150032
-0.151596
-0.153202
-0.154861
-0.156574
-0.158341
-0.160165
-0.162046
-0.163987
-0.165988
-0.168055
-0.170183
-0.17239
-0.174658
-0.177031
-0.179455
-0.18204
-0.184637
-0.187537
-0.190313
-0.193767
-0.196724
-0.201272
-0.204815
-0.211505
-0.00871963
0.00358776
-0.00259639
-0.00963458
-0.0150218
-0.0202117
-0.025399
-0.0303328
-0.0350391
-0.0395566
-0.0438886
-0.0480403
-0.0520222
-0.0558422
-0.0595088
-0.0630287
-0.0664091
-0.0696563
-0.0727765
-0.0757752
-0.078658
-0.0814298
-0.0840956
-0.0866595
-0.0891261
-0.0914993
-0.093783
-0.0959807
-0.098096
-0.100132
-0.102093
-0.10398
-0.105798
-0.107549
-0.109236
-0.110862
-0.112429
-0.113942
-0.115402
-0.116812
-0.118177
-0.119499
-0.120783
-0.122032
-0.12325
-0.124443
-0.125616
-0.126774
-0.127924
-0.129072
-0.130225
-0.131393
-0.132582
-0.133803
-0.135066
-0.136381
-0.137759
-0.139214
-0.140758
-0.142409
-0.144177
-0.146089
-0.148152
-0.150033
-0.151597
-0.153203
-0.154862
-0.156575
-0.158343
-0.160167
-0.162048
-0.163989
-0.16599
-0.168057
-0.170185
-0.172393
-0.174661
-0.177034
-0.179458
-0.182044
-0.184641
-0.187543
-0.190319
-0.193774
-0.196733
-0.201276
-0.204826
-0.211225
-0.00873071
0.00358979
-0.00259497
-0.00963345
-0.0150209
-0.020211
-0.0253984
-0.0303323
-0.0350387
-0.0395563
-0.0438884
-0.0480401
-0.052022
-0.055842
-0.0595087
-0.0630286
-0.066409
-0.0696562
-0.0727764
-0.0757751
-0.0786579
-0.0814297
-0.0840955
-0.0866595
-0.0891261
-0.0914992
-0.0937829
-0.0959807
-0.098096
-0.100132
-0.102093
-0.10398
-0.105798
-0.107549
-0.109236
-0.110862
-0.112429
-0.113942
-0.115402
-0.116812
-0.118177
-0.119499
-0.120783
-0.122032
-0.12325
-0.124443
-0.125616
-0.126774
-0.127924
-0.129072
-0.130226
-0.131393
-0.132582
-0.133804
-0.135066
-0.136381
-0.137759
-0.139215
-0.140759
-0.142409
-0.144178
-0.14609
-0.148153
-0.150034
-0.151598
-0.153204
-0.154863
-0.156576
-0.158344
-0.160169
-0.16205
-0.163991
-0.165992
-0.16806
-0.170188
-0.172396
-0.174665
-0.177038
-0.179463
-0.18205
-0.184647
-0.18755
-0.190326
-0.193782
-0.196745
-0.201278
-0.204826
-0.211027
-0.00875128
0.00359102
-0.00259365
-0.00963221
-0.0150199
-0.0202102
-0.0253977
-0.0303317
-0.0350382
-0.0395559
-0.043888
-0.0480398
-0.0520217
-0.0558418
-0.0595085
-0.0630284
-0.0664088
-0.0696561
-0.0727763
-0.075775
-0.0786578
-0.0814296
-0.0840954
-0.0866594
-0.089126
-0.0914992
-0.0937828
-0.0959806
-0.0980959
-0.100132
-0.102093
-0.10398
-0.105798
-0.107549
-0.109236
-0.110862
-0.112429
-0.113942
-0.115402
-0.116812
-0.118177
-0.119499
-0.120783
-0.122032
-0.12325
-0.124443
-0.125616
-0.126774
-0.127924
-0.129072
-0.130226
-0.131393
-0.132583
-0.133804
-0.135066
-0.136381
-0.13776
-0.139215
-0.140759
-0.14241
-0.144179
-0.146091
-0.148154
-0.150035
-0.1516
-0.153206
-0.154865
-0.156578
-0.158347
-0.160171
-0.162053
-0.163994
-0.165995
-0.168063
-0.170192
-0.172401
-0.17467
-0.177044
-0.179468
-0.182057
-0.184654
-0.187558
-0.190335
-0.193791
-0.196757
-0.201278
-0.204808
-0.210898
-0.00878471
0.00359101
-0.00259265
-0.00963096
-0.0150186
-0.0202092
-0.0253969
-0.030331
-0.0350376
-0.0395554
-0.0438876
-0.0480394
-0.0520214
-0.0558415
-0.0595082
-0.0630282
-0.0664086
-0.0696559
-0.0727761
-0.0757749
-0.0786577
-0.0814295
-0.0840953
-0.0866593
-0.0891259
-0.0914991
-0.0937827
-0.0959805
-0.0980958
-0.100132
-0.102093
-0.10398
-0.105798
-0.107549
-0.109236
-0.110862
-0.112429
-0.113942
-0.115401
-0.116812
-0.118177
-0.119499
-0.120783
-0.122032
-0.12325
-0.124443
-0.125616
-0.126774
-0.127924
-0.129072
-0.130226
-0.131393
-0.132583
-0.133804
-0.135067
-0.136382
-0.13776
-0.139216
-0.14076
-0.142411
-0.14418
-0.146092
-0.148156
-0.150037
-0.151601
-0.153208
-0.154867
-0.156581
-0.158349
-0.160174
-0.162056
-0.163998
-0.165999
-0.168068
-0.170197
-0.172406
-0.174675
-0.17705
-0.179475
-0.182064
-0.184661
-0.187567
-0.190344
-0.1938
-0.19677
-0.201274
-0.20477
-0.210779
-0.00883448
0.00358913
-0.00259227
-0.00962985
-0.0150173
-0.020208
-0.0253959
-0.0303302
-0.0350369
-0.0395548
-0.043887
-0.048039
-0.052021
-0.0558411
-0.0595079
-0.0630279
-0.0664083
-0.0696556
-0.0727759
-0.0757747
-0.0786575
-0.0814293
-0.0840951
-0.0866591
-0.0891258
-0.0914989
-0.0937826
-0.0959804
-0.0980957
-0.100132
-0.102092
-0.10398
-0.105798
-0.107549
-0.109236
-0.110862
-0.112429
-0.113942
-0.115401
-0.116812
-0.118177
-0.119499
-0.120783
-0.122032
-0.12325
-0.124443
-0.125616
-0.126774
-0.127924
-0.129072
-0.130226
-0.131393
-0.132583
-0.133804
-0.135067
-0.136382
-0.137761
-0.139216
-0.140761
-0.142412
-0.144181
-0.146093
-0.148158
-0.150039
-0.151604
-0.15321
-0.15487
-0.156584
-0.158353
-0.160178
-0.16206
-0.164002
-0.166004
-0.168073
-0.170203
-0.172412
-0.174682
-0.177057
-0.179483
-0.182073
-0.18467
-0.187577
-0.190354
-0.193808
-0.19678
-0.201261
-0.204712
-0.210619
-0.00890436
0.00358454
-0.00259291
-0.00962913
-0.015016
-0.0202068
-0.0253948
-0.0303292
-0.0350361
-0.039554
-0.0438864
-0.0480384
-0.0520204
-0.0558406
-0.0595075
-0.0630275
-0.066408
-0.0696553
-0.0727756
-0.0757744
-0.0786572
-0.0814291
-0.0840949
-0.0866589
-0.0891256
-0.0914988
-0.0937825
-0.0959803
-0.0980956
-0.100132
-0.102092
-0.10398
-0.105798
-0.107549
-0.109236
-0.110862
-0.112429
-0.113941
-0.115401
-0.116812
-0.118177
-0.119499
-0.120783
-0.122032
-0.12325
-0.124443
-0.125616
-0.126774
-0.127924
-0.129072
-0.130226
-0.131394
-0.132583
-0.133805
-0.135067
-0.136383
-0.137761
-0.139217
-0.140762
-0.142413
-0.144182
-0.146095
-0.14816
-0.150041
-0.151606
-0.153213
-0.154873
-0.156587
-0.158356
-0.160182
-0.162064
-0.164007
-0.16601
-0.168079
-0.170209
-0.172419
-0.174689
-0.177065
-0.179491
-0.182082
-0.184679
-0.187586
-0.190363
-0.193812
-0.196785
-0.201235
-0.204632
-0.210397
-0.00899848
0.0035762
-0.00259512
-0.00962915
-0.015015
-0.0202055
-0.0253936
-0.0303281
-0.0350351
-0.0395531
-0.0438856
-0.0480377
-0.0520198
-0.0558401
-0.059507
-0.0630271
-0.0664076
-0.069655
-0.0727753
-0.0757741
-0.0786569
-0.0814288
-0.0840946
-0.0866587
-0.0891254
-0.0914986
-0.0937823
-0.0959801
-0.0980954
-0.100132
-0.102092
-0.10398
-0.105798
-0.107549
-0.109236
-0.110861
-0.112429
-0.113941
-0.115401
-0.116812
-0.118177
-0.119499
-0.120783
-0.122032
-0.12325
-0.124443
-0.125616
-0.126774
-0.127924
-0.129072
-0.130226
-0.131394
-0.132584
-0.133805
-0.135068
-0.136383
-0.137762
-0.139218
-0.140763
-0.142414
-0.144184
-0.146097
-0.148162
-0.150044
-0.151609
-0.153216
-0.154877
-0.156591
-0.158361
-0.160187
-0.162069
-0.164013
-0.166015
-0.168085
-0.170216
-0.172426
-0.174697
-0.177073
-0.179499
-0.18209
-0.184686
-0.187593
-0.190369
-0.19381
-0.196781
-0.201186
-0.20452
-0.210108
-0.00912107
0.00356284
-0.00259952
-0.00963037
-0.0150144
-0.0202044
-0.0253924
-0.0303269
-0.0350339
-0.0395521
-0.0438847
-0.0480368
-0.0520191
-0.0558394
-0.0595063
-0.0630265
-0.0664071
-0.0696545
-0.0727748
-0.0757737
-0.0786566
-0.0814285
-0.0840943
-0.0866584
-0.0891251
-0.0914983
-0.093782
-0.0959799
-0.0980952
-0.100132
-0.102092
-0.10398
-0.105797
-0.107548
-0.109235
-0.110861
-0.112429
-0.113941
-0.115401
-0.116812
-0.118177
-0.119499
-0.120783
-0.122031
-0.12325
-0.124443
-0.125616
-0.126774
-0.127924
-0.129072
-0.130226
-0.131394
-0.132584
-0.133806
-0.135069
-0.136384
-0.137763
-0.139219
-0.140764
-0.142416
-0.144186
-0.146099
-0.148164
-0.150047
-0.151612
-0.15322
-0.15488
-0.156596
-0.158365
-0.160192
-0.162075
-0.164018
-0.166021
-0.168091
-0.170222
-0.172433
-0.174704
-0.177081
-0.179505
-0.182097
-0.184691
-0.187596
-0.190369
-0.193796
-0.196764
-0.201104
-0.204362
-0.20974
-0.00927622
0.003543
-0.00260688
-0.00963342
-0.0150147
-0.0202037
-0.0253913
-0.0303257
-0.0350328
-0.039551
-0.0438836
-0.0480359
-0.0520182
-0.0558386
-0.0595056
-0.0630258
-0.0664064
-0.0696539
-0.0727743
-0.0757732
-0.0786561
-0.0814281
-0.0840939
-0.086658
-0.0891247
-0.091498
-0.0937817
-0.0959796
-0.0980949
-0.100131
-0.102092
-0.103979
-0.105797
-0.107548
-0.109235
-0.110861
-0.112429
-0.113941
-0.115401
-0.116812
-0.118176
-0.119499
-0.120782
-0.122031
-0.12325
-0.124443
-0.125616
-0.126774
-0.127924
-0.129073
-0.130227
-0.131394
-0.132584
-0.133806
-0.135069
-0.136385
-0.137764
-0.13922
-0.140766
-0.142418
-0.144188
-0.146101
-0.148167
-0.15005
-0.151616
-0.153223
-0.154884
-0.1566
-0.15837
-0.160196
-0.16208
-0.164024
-0.166027
-0.168097
-0.170228
-0.172439
-0.174709
-0.177085
-0.179509
-0.182099
-0.184691
-0.18759
-0.190359
-0.193764
-0.196723
-0.200976
-0.204142
-0.209275
-0.0094674
0.00351497
-0.00261801
-0.00963902
-0.0150165
-0.0202038
-0.0253907
-0.0303247
-0.0350316
-0.0395498
-0.0438825
-0.0480348
-0.0520172
-0.0558377
-0.0595047
-0.063025
-0.0664057
-0.0696532
-0.0727737
-0.0757726
-0.0786556
-0.0814275
-0.0840935
-0.0866576
-0.0891243
-0.0914976
-0.0937813
-0.0959792
-0.0980946
-0.100131
-0.102091
-0.103979
-0.105797
-0.107548
-0.109235
-0.110861
-0.112429
-0.113941
-0.115401
-0.116812
-0.118176
-0.119499
-0.120782
-0.122031
-0.12325
-0.124443
-0.125616
-0.126774
-0.127924
-0.129073
-0.130227
-0.131395
-0.132585
-0.133806
-0.13507
-0.136386
-0.137765
-0.139221
-0.140767
-0.142419
-0.14419
-0.146103
-0.148169
-0.150052
-0.151618
-0.153226
-0.154888
-0.156603
-0.158373
-0.1602
-0.162084
-0.164028
-0.16603
-0.1681
-0.170231
-0.172441
-0.17471
-0.177085
-0.179507
-0.182093
-0.184681
-0.187569
-0.190333
-0.193703
-0.196648
-0.200783
-0.203841
-0.208693
-0.00969666
0.00347678
-0.00263378
-0.00964806
-0.0150204
-0.0202052
-0.0253908
-0.0303242
-0.0350307
-0.0395488
-0.0438814
-0.0480337
-0.0520161
-0.0558366
-0.0595038
-0.0630241
-0.0664048
-0.0696524
-0.0727729
-0.0757719
-0.0786549
-0.0814269
-0.0840929
-0.086657
-0.0891238
-0.0914971
-0.0937809
-0.0959788
-0.0980942
-0.100131
-0.102091
-0.103979
-0.105797
-0.107548
-0.109235
-0.110861
-0.112428
-0.113941
-0.115401
-0.116811
-0.118176
-0.119498
-0.120782
-0.122031
-0.12325
-0.124443
-0.125616
-0.126774
-0.127924
-0.129073
-0.130227
-0.131395
-0.132585
-0.133807
-0.13507
-0.136386
-0.137766
-0.139222
-0.140768
-0.14242
-0.144191
-0.146105
-0.148171
-0.150054
-0.15162
-0.153228
-0.15489
-0.156605
-0.158375
-0.160202
-0.162085
-0.164029
-0.166031
-0.1681
-0.170229
-0.172438
-0.174705
-0.177077
-0.179494
-0.182074
-0.184655
-0.187526
-0.190281
-0.193599
-0.196521
-0.200506
-0.203437
-0.207975
-0.0099635
0.0034261
-0.00265498
-0.00966145
-0.0150272
-0.0202084
-0.0253922
-0.0303244
-0.0350303
-0.0395481
-0.0438805
-0.0480327
-0.0520151
-0.0558356
-0.0595028
-0.0630231
-0.0664039
-0.0696515
-0.0727721
-0.0757711
-0.0786541
-0.0814262
-0.0840922
-0.0866564
-0.0891232
-0.0914965
-0.0937803
-0.0959782
-0.0980937
-0.10013
-0.102091
-0.103978
-0.105796
-0.107547
-0.109234
-0.11086
-0.112428
-0.11394
-0.1154
-0.116811
-0.118176
-0.119498
-0.120782
-0.122031
-0.12325
-0.124443
-0.125616
-0.126774
-0.127924
-0.129073
-0.130227
-0.131395
-0.132585
-0.133807
-0.13507
-0.136386
-0.137766
-0.139223
-0.140768
-0.142421
-0.144191
-0.146105
-0.148172
-0.150054
-0.15162
-0.153228
-0.154889
-0.156604
-0.158374
-0.1602
-0.162082
-0.164025
-0.166025
-0.168093
-0.17022
-0.172425
-0.174688
-0.177054
-0.179465
-0.182033
-0.184605
-0.187449
-0.190188
-0.193435
-0.196319
-0.200119
-0.202905
-0.207103
-0.0102631
0.00336019
-0.00268234
-0.00968012
-0.0150377
-0.0202143
-0.0253954
-0.030326
-0.0350309
-0.0395479
-0.04388
-0.048032
-0.0520142
-0.0558346
-0.0595018
-0.0630221
-0.0664029
-0.0696506
-0.0727711
-0.0757702
-0.0786533
-0.0814254
-0.0840914
-0.0866556
-0.0891225
-0.0914958
-0.0937797
-0.0959776
-0.0980931
-0.10013
-0.10209
-0.103978
-0.105796
-0.107547
-0.109234
-0.11086
-0.112427
-0.11394
-0.1154
-0.116811
-0.118175
-0.119498
-0.120781
-0.12203
-0.123249
-0.124442
-0.125615
-0.126774
-0.127924
-0.129072
-0.130226
-0.131394
-0.132585
-0.133806
-0.13507
-0.136386
-0.137765
-0.139222
-0.140768
-0.14242
-0.14419
-0.146104
-0.14817
-0.150052
-0.151617
-0.153225
-0.154885
-0.156599
-0.158367
-0.160191
-0.162072
-0.164012
-0.16601
-0.168074
-0.170196
-0.172396
-0.174653
-0.177009
-0.17941
-0.181959
-0.184516
-0.187319
-0.190033
-0.193185
-0.196012
-0.199592
-0.202217
-0.206055
-0.0105848
0.0032759
-0.00271653
-0.00970487
-0.0150529
-0.0202237
-0.0254013
-0.0303295
-0.0350329
-0.0395489
-0.0438803
-0.0480318
-0.0520137
-0.055834
-0.059501
-0.0630213
-0.066402
-0.0696497
-0.0727702
-0.0757693
-0.0786524
-0.0814245
-0.0840906
-0.0866548
-0.0891217
-0.0914951
-0.093779
-0.0959769
-0.0980924
-0.100129
-0.102089
-0.103977
-0.105795
-0.107546
-0.109233
-0.110859
-0.112427
-0.113939
-0.115399
-0.11681
-0.118175
-0.119497
-0.120781
-0.12203
-0.123249
-0.124442
-0.125615
-0.126773
-0.127923
-0.129072
-0.130226
-0.131394
-0.132584
-0.133805
-0.135069
-0.136384
-0.137764
-0.13922
-0.140765
-0.142417
-0.144187
-0.146099
-0.148164
-0.150045
-0.151609
-0.153215
-0.154873
-0.156585
-0.158351
-0.160173
-0.16205
-0.163986
-0.165979
-0.168037
-0.170152
-0.172342
-0.174589
-0.176929
-0.179315
-0.181836
-0.184369
-0.187115
-0.189789
-0.192818
-0.195562
-0.198891
-0.20134
-0.20481
-0.010911
0.00317011
-0.00275819
-0.0097363
-0.0150734
-0.0202372
-0.0254105
-0.0303357
-0.0350369
-0.0395515
-0.0438818
-0.0480326
-0.052014
-0.0558339
-0.0595007
-0.0630208
-0.0664014
-0.069649
-0.0727695
-0.0757685
-0.0786516
-0.0814237
-0.0840898
-0.086654
-0.0891209
-0.0914943
-0.0937782
-0.0959762
-0.0980917
-0.100128
-0.102089
-0.103977
-0.105794
-0.107546
-0.109233
-0.110859
-0.112426
-0.113939
-0.115399
-0.11681
-0.118174
-0.119497
-0.12078
-0.122029
-0.123248
-0.124441
-0.125614
-0.126772
-0.127922
-0.12907
-0.130224
-0.131392
-0.132582
-0.133803
-0.135066
-0.136381
-0.13776
-0.139215
-0.14076
-0.14241
-0.144178
-0.146089
-0.148152
-0.15003
-0.151592
-0.153196
-0.154851
-0.156559
-0.158321
-0.160138
-0.162009
-0.163938
-0.165923
-0.167971
-0.170076
-0.172251
-0.174481
-0.176798
-0.179159
-0.181639
-0.184135
-0.186804
-0.189416
-0.192295
-0.194923
-0.197977
-0.200236
-0.203345
-0.0112172
0.00304059
-0.00280774
-0.00977476
-0.0150997
-0.0202555
-0.0254237
-0.0303453
-0.0350437
-0.0395563
-0.0438852
-0.048035
-0.0520156
-0.0558349
-0.0595012
-0.063021
-0.0664013
-0.0696487
-0.0727691
-0.075768
-0.078651
-0.0814231
-0.0840891
-0.0866533
-0.0891202
-0.0914936
-0.0937775
-0.0959755
-0.098091
-0.100128
-0.102088
-0.103976
-0.105794
-0.107545
-0.109232
-0.110858
-0.112426
-0.113938
-0.115398
-0.116809
-0.118174
-0.119496
-0.12078
-0.122029
-0.123247
-0.12444
-0.125613
-0.126771
-0.127921
-0.129069
-0.130222
-0.131389
-0.132579
-0.133799
-0.135061
-0.136376
-0.137753
-0.139207
-0.14075
-0.142398
-0.144164
-0.146071
-0.14813
-0.150003
-0.151562
-0.153162
-0.154811
-0.156514
-0.158269
-0.160078
-0.16194
-0.163858
-0.165831
-0.167863
-0.16995
-0.172103
-0.174308
-0.17659
-0.178915
-0.181336
-0.183776
-0.186344
-0.188865
-0.191566
-0.194044
-0.196807
-0.198866
-0.20163
-0.0114733
0.00288676
-0.00286504
-0.00982026
-0.0151317
-0.0202786
-0.0254414
-0.0303587
-0.0350539
-0.039564
-0.0438911
-0.0480394
-0.0520189
-0.0558373
-0.059503
-0.0630222
-0.0664022
-0.0696492
-0.0727693
-0.0757681
-0.0786509
-0.0814229
-0.0840888
-0.086653
-0.0891198
-0.0914931
-0.093777
-0.0959749
-0.0980904
-0.100127
-0.102088
-0.103975
-0.105793
-0.107544
-0.109231
-0.110857
-0.112425
-0.113937
-0.115397
-0.116808
-0.118173
-0.119495
-0.120779
-0.122027
-0.123246
-0.124439
-0.125611
-0.126769
-0.127918
-0.129066
-0.130219
-0.131385
-0.132573
-0.133793
-0.135053
-0.136366
-0.137741
-0.139193
-0.140733
-0.142377
-0.144139
-0.146041
-0.148093
-0.14996
-0.151512
-0.153105
-0.154746
-0.156439
-0.158184
-0.15998
-0.161828
-0.16373
-0.165683
-0.167692
-0.169752
-0.171872
-0.174039
-0.176271
-0.178541
-0.180884
-0.183242
-0.185683
-0.188078
-0.190574
-0.192867
-0.195334
-0.197184
-0.199626
-0.0116437
0.00270993
-0.00292891
-0.00987246
-0.0151692
-0.0203063
-0.0254633
-0.0303762
-0.0350677
-0.0395751
-0.0438999
-0.0480464
-0.0520245
-0.0558418
-0.0595065
-0.063025
-0.0664044
-0.0696509
-0.0727706
-0.0757691
-0.0786517
-0.0814234
-0.0840891
-0.0866531
-0.0891198
-0.0914931
-0.0937769
-0.0959747
-0.0980902
-0.100127
-0.102087
-0.103975
-0.105793
-0.107544
-0.109231
-0.110857
-0.112425
-0.113937
-0.115397
-0.116807
-0.118172
-0.119494
-0.120778
-0.122026
-0.123244
-0.124437
-0.125609
-0.126766
-0.127914
-0.129061
-0.130213
-0.131378
-0.132565
-0.133783
-0.135041
-0.136351
-0.137723
-0.139171
-0.140705
-0.142344
-0.144099
-0.145993
-0.148034
-0.149889
-0.151432
-0.153014
-0.154643
-0.156321
-0.158049
-0.159827
-0.161653
-0.163529
-0.165454
-0.167428
-0.169449
-0.17152
-0.173632
-0.175793
-0.177985
-0.180224
-0.182468
-0.184752
-0.186985
-0.189252
-0.191332
-0.193503
-0.195139
-0.197281
-0.0116889
0.00251327
-0.00299656
-0.00993072
-0.0152112
-0.0203377
-0.025489
-0.0303974
-0.0350851
-0.0395895
-0.0439119
-0.0480564
-0.0520329
-0.0558488
-0.0595124
-0.0630299
-0.0664085
-0.0696543
-0.0727735
-0.0757714
-0.0786536
-0.081425
-0.0840905
-0.0866542
-0.0891207
-0.0914938
-0.0937774
-0.0959752
-0.0980906
-0.100127
-0.102087
-0.103975
-0.105793
-0.107544
-0.109231
-0.110857
-0.112424
-0.113937
-0.115396
-0.116807
-0.118171
-0.119493
-0.120776
-0.122025
-0.123242
-0.124434
-0.125605
-0.126762
-0.127909
-0.129054
-0.130205
-0.131368
-0.132552
-0.133767
-0.135021
-0.136327
-0.137694
-0.139135
-0.140663
-0.142293
-0.144037
-0.145917
-0.147942
-0.149781
-0.151308
-0.152874
-0.154483
-0.15614
-0.157843
-0.159592
-0.161385
-0.163224
-0.165105
-0.16703
-0.168993
-0.170995
-0.173028
-0.175094
-0.177178
-0.179282
-0.181376
-0.183473
-0.185507
-0.187527
-0.189371
-0.191251
-0.192674
-0.194531
-0.0115682
0.00230221
-0.00306327
-0.00999407
-0.0152567
-0.0203714
-0.0255172
-0.0304214
-0.0351054
-0.0396068
-0.0439268
-0.0480693
-0.0520439
-0.0558583
-0.0595206
-0.0630371
-0.0664147
-0.0696598
-0.0727782
-0.0757755
-0.0786572
-0.0814282
-0.0840932
-0.0866567
-0.0891228
-0.0914957
-0.0937791
-0.0959767
-0.0980918
-0.100128
-0.102088
-0.103976
-0.105794
-0.107544
-0.109231
-0.110857
-0.112425
-0.113937
-0.115396
-0.116807
-0.118171
-0.119492
-0.120775
-0.122023
-0.12324
-0.124431
-0.125601
-0.126755
-0.127901
-0.129044
-0.130192
-0.131352
-0.132532
-0.133742
-0.134991
-0.13629
-0.137649
-0.139081
-0.140597
-0.142213
-0.143941
-0.145801
-0.147802
-0.149615
-0.151119
-0.15266
-0.154241
-0.155864
-0.157531
-0.159238
-0.160984
-0.162768
-0.164588
-0.16644
-0.168322
-0.170229
-0.172154
-0.174093
-0.176033
-0.177968
-0.179876
-0.181755
-0.18356
-0.185318
-0.186913
-0.188508
-0.18972
-0.191303
-0.0112443
0.00208727
-0.00312285
-0.0100613
-0.0153044
-0.0204056
-0.0255463
-0.0304467
-0.0351271
-0.0396258
-0.0439436
-0.0480842
-0.0520572
-0.0558701
-0.0595312
-0.0630465
-0.0664231
-0.0696673
-0.0727849
-0.0757816
-0.0786627
-0.0814331
-0.0840977
-0.0866607
-0.0891265
-0.091499
-0.0937821
-0.0959794
-0.0980943
-0.10013
-0.10209
-0.103978
-0.105795
-0.107546
-0.109233
-0.110858
-0.112425
-0.113937
-0.115397
-0.116807
-0.11817
-0.119491
-0.120773
-0.12202
-0.123236
-0.124426
-0.125594
-0.126747
-0.12789
-0.129029
-0.130173
-0.131328
-0.132503
-0.133706
-0.134947
-0.136235
-0.137582
-0.139
-0.140499
-0.142094
-0.143797
-0.145626
-0.147591
-0.149366
-0.150837
-0.152341
-0.153879
-0.155455
-0.157068
-0.158714
-0.160392
-0.162099
-0.163831
-0.165585
-0.167354
-0.169133
-0.170915
-0.17269
-0.174448
-0.17618
-0.177866
-0.179502
-0.181054
-0.182539
-0.183879
-0.185196
-0.186196
-0.187511
-0.0106901
0.00188689
-0.00316714
-0.010131
-0.0153531
-0.0204385
-0.0255743
-0.0304714
-0.0351486
-0.039645
-0.0439609
-0.0480999
-0.0520714
-0.0558831
-0.059543
-0.0630573
-0.0664331
-0.0696764
-0.0727933
-0.0757893
-0.0786698
-0.0814397
-0.0841037
-0.0866663
-0.0891317
-0.0915038
-0.0937866
-0.0959836
-0.0980983
-0.100134
-0.102094
-0.103981
-0.105798
-0.107549
-0.109235
-0.11086
-0.112427
-0.113939
-0.115398
-0.116807
-0.11817
-0.119491
-0.120771
-0.122017
-0.123231
-0.124419
-0.125584
-0.126734
-0.127873
-0.129008
-0.130146
-0.131293
-0.132459
-0.133652
-0.13488
-0.136154
-0.137483
-0.138879
-0.140352
-0.141916
-0.143582
-0.145367
-0.147278
-0.148998
-0.15042
-0.15187
-0.153347
-0.154855
-0.156391
-0.157952
-0.159535
-0.161135
-0.162747
-0.164367
-0.165987
-0.167601
-0.169199
-0.170773
-0.172312
-0.173806
-0.175241
-0.176611
-0.177895
-0.179104
-0.180184
-0.181229
-0.182018
-0.183068
-0.00990398
0.00171878
-0.00317919
-0.0102001
-0.0154017
-0.0204683
-0.0255994
-0.0304936
-0.0351678
-0.0396622
-0.0439768
-0.0481145
-0.052085
-0.0558957
-0.0595548
-0.0630684
-0.0664434
-0.0696861
-0.0728024
-0.0757978
-0.0786778
-0.0814472
-0.0841108
-0.086673
-0.089138
-0.0915098
-0.0937923
-0.095989
-0.0981033
-0.100139
-0.102098
-0.103985
-0.105802
-0.107552
-0.109239
-0.110864
-0.11243
-0.113941
-0.1154
-0.116808
-0.11817
-0.119489
-0.120769
-0.122012
-0.123224
-0.124409
-0.125571
-0.126715
-0.127849
-0.128976
-0.130105
-0.131242
-0.132395
-0.133572
-0.134782
-0.136033
-0.137336
-0.1387
-0.140135
-0.141654
-0.143267
-0.144986
-0.14682
-0.148462
-0.149813
-0.151186
-0.152577
-0.153989
-0.155419
-0.156863
-0.158315
-0.159771
-0.161225
-0.162671
-0.164102
-0.165509
-0.166884
-0.16822
-0.169506
-0.170735
-0.171897
-0.172987
-0.173993
-0.174923
-0.175744
-0.176523
-0.1771
-0.177887
-0.00894295
0.00159177
-0.00312985
-0.0102605
-0.0154476
-0.0204926
-0.0256198
-0.0305117
-0.035183
-0.0396757
-0.0439892
-0.048126
-0.0520958
-0.055906
-0.0595646
-0.0630777
-0.0664523
-0.0696946
-0.0728106
-0.0758057
-0.0786854
-0.0814545
-0.0841178
-0.0866797
-0.0891445
-0.091516
-0.0937983
-0.0959947
-0.0981089
-0.100144
-0.102103
-0.10399
-0.105807
-0.107557
-0.109243
-0.110867
-0.112433
-0.113944
-0.115401
-0.116809
-0.11817
-0.119487
-0.120764
-0.122005
-0.123214
-0.124394
-0.12555
-0.126688
-0.127812
-0.128929
-0.130045
-0.131167
-0.132301
-0.133455
-0.134638
-0.135857
-0.13712
-0.138439
-0.13982
-0.141274
-0.142809
-0.144436
-0.146159
-0.147691
-0.148944
-0.150208
-0.151481
-0.152763
-0.154049
-0.155336
-0.156618
-0.157888
-0.159141
-0.160371
-0.16157
-0.162731
-0.163848
-0.164913
-0.165921
-0.166864
-0.167739
-0.168543
-0.169268
-0.169923
-0.170487
-0.171009
-0.171375
-0.171902
-0.00794207
0.00149536
-0.00299669
-0.0102948
-0.0154832
-0.0205068
-0.0256322
-0.0305234
-0.0351922
-0.0396835
-0.0439964
-0.0481327
-0.0521021
-0.055912
-0.0595704
-0.0630834
-0.066458
-0.0697002
-0.0728161
-0.0758111
-0.0786907
-0.0814598
-0.084123
-0.0866849
-0.0891496
-0.091521
-0.0938032
-0.0959996
-0.0981136
-0.100149
-0.102108
-0.103994
-0.105811
-0.107561
-0.109246
-0.11087
-0.112436
-0.113946
-0.115402
-0.116808
-0.118168
-0.119483
-0.120757
-0.121994
-0.123197
-0.12437
-0.125519
-0.126647
-0.127759
-0.128861
-0.129958
-0.131057
-0.132164
-0.133285
-0.134429
-0.135601
-0.136809
-0.138062
-0.139365
-0.140727
-0.142153
-0.143651
-0.145222
-0.146602
-0.147721
-0.148839
-0.149953
-0.151063
-0.152163
-0.153249
-0.154315
-0.155356
-0.156366
-0.157338
-0.158269
-0.159151
-0.159981
-0.160754
-0.161466
-0.162114
-0.162697
-0.163214
-0.163663
-0.16405
-0.164364
-0.16464
-0.164799
-0.165076
-0.00701013
0.00137125
-0.00281507
-0.0102944
-0.015499
-0.020503
-0.0256307
-0.030525
-0.0351928
-0.0396834
-0.0439963
-0.0481327
-0.052102
-0.0559121
-0.0595707
-0.0630839
-0.0664587
-0.0697011
-0.0728172
-0.0758124
-0.0786922
-0.0814614
-0.0841249
-0.0866868
-0.0891517
-0.0915232
-0.0938055
-0.0960019
-0.098116
-0.100151
-0.10211
-0.103997
-0.105813
-0.107563
-0.109248
-0.110872
-0.112436
-0.113945
-0.1154
-0.116805
-0.118162
-0.119473
-0.120743
-0.121974
-0.123171
-0.124335
-0.125472
-0.126586
-0.12768
-0.12876
-0.129831
-0.130898
-0.131966
-0.133041
-0.134129
-0.135236
-0.136366
-0.137527
-0.138722
-0.139956
-0.141233
-0.142554
-0.143919
-0.145099
-0.146041
-0.14697
-0.147881
-0.148773
-0.149643
-0.150484
-0.151293
-0.152064
-0.152794
-0.153478
-0.154113
-0.154695
-0.155223
-0.155694
-0.156108
-0.156463
-0.156761
-0.157002
-0.157187
-0.157322
-0.157402
-0.157449
-0.157415
-0.157459
-0.00616145
0.00124793
-0.00265942
-0.0103006
-0.0155132
-0.0204907
-0.0256184
-0.0305164
-0.0351842
-0.0396743
-0.0439879
-0.048125
-0.0520948
-0.0559054
-0.0595646
-0.0630783
-0.0664536
-0.0696965
-0.072813
-0.0758086
-0.0786888
-0.0814584
-0.0841222
-0.0866845
-0.0891496
-0.0915215
-0.0938039
-0.0960006
-0.0981149
-0.10015
-0.102109
-0.103996
-0.105812
-0.107562
-0.109246
-0.110869
-0.112433
-0.113941
-0.115394
-0.116796
-0.118149
-0.119457
-0.120721
-0.121944
-0.12313
-0.124282
-0.125404
-0.126497
-0.127567
-0.128617
-0.129651
-0.130673
-0.131687
-0.132697
-0.133709
-0.134724
-0.135748
-0.136783
-0.137831
-0.138893
-0.13997
-0.14106
-0.142158
-0.14308
-0.1438
-0.144493
-0.145156
-0.145787
-0.146384
-0.146942
-0.147458
-0.14793
-0.148355
-0.148732
-0.149058
-0.149333
-0.149558
-0.149731
-0.149855
-0.149929
-0.149958
-0.149941
-0.149883
-0.149786
-0.149651
-0.14949
-0.14928
-0.149108
-0.00557849
0.00120296
-0.00254314
-0.0103047
-0.0155264
-0.0204877
-0.0256159
-0.030515
-0.0351812
-0.0396697
-0.0439828
-0.0481191
-0.0520892
-0.0559002
-0.0595591
-0.0630726
-0.066448
-0.0696911
-0.0728079
-0.0758038
-0.0786842
-0.0814541
-0.0841181
-0.0866806
-0.0891459
-0.0915179
-0.0938006
-0.0959974
-0.0981118
-0.100147
-0.102106
-0.103993
-0.105809
-0.107558
-0.109242
-0.110865
-0.112428
-0.113933
-0.115385
-0.116784
-0.118133
-0.119435
-0.120692
-0.121906
-0.12308
-0.124217
-0.125319
-0.126388
-0.127428
-0.128442
-0.129431
-0.1304
-0.131349
-0.132283
-0.133204
-0.134112
-0.135011
-0.135899
-0.136778
-0.137645
-0.138498
-0.139332
-0.14014
-0.140788
-0.141275
-0.141725
-0.142138
-0.142511
-0.142842
-0.14313
-0.143374
-0.143572
-0.143723
-0.143829
-0.143889
-0.143905
-0.143876
-0.143806
-0.143697