/*--------------------------------*- C++ -*----------------------------------*\
| =========                 |                                                 |
| \\      /  F ield         | OpenFOAM: The Open Source CFD Toolbox           |
|  \\    /   O peration     | Version:  2306                                  |
|   \\  /    A nd           | Website:  www.openfoam.com                      |
|    \\/     M anipulation  |                                                 |
\*---------------------------------------------------------------------------*/
FoamFile
{
    version     2.0;
    format      ascii;
    arch        "LSB;label=32;scalar=64";
    class       volScalarField;
    location    "1600";
    object      epsilon;
}
// * * * * * * * * * * * * * * * * * * * * * * * * * * * * * * * * * * * * * //

dimensions      [0 2 -3 0 0 0 0];

internalField   nonuniform List<scalar> 
20540
(
24195.7
51299.4
24186.5
51290.7
24146.6
51256.1
24073.8
51193.6
23962.2
51097.9
23804.1
50962.8
23591
50780.4
23312.3
50542
22956
50236.7
22507.7
49852.1
21951
49373.7
21267.3
48784.7
20435.6
48065.9
19433.6
47195.8
18238.6
46142.3
16830.4
44863.6
15195.4
43304.3
13335.6
41392.8
11283.1
39042.7
9123.72
36137.1
6957.77
32587.5
4913.95
28345.4
3149.54
23432.3
1819.68
17989.4
996.697
12317.5
588.558
6939.12
414.15
2829.52
338.959
937.771
296.097
398.604
270.463
275.705
265.045
240.065
264.849
230.57
264.95
230.805
265.521
241.073
271.898
278.457
298.101
404.448
341.641
947.551
420.422
2829.66
604.188
6919.24
1033.94
12320
1899.61
18053
3300.79
23585.6
5171.78
28606.4
7361.47
32958.3
9710.95
36607
12084.7
39593.5
14348.6
42028.5
16412.1
44025.8
18240
45669.1
19827.9
47022.6
21187.5
48143
22338.4
49073.5
23303.3
49847.5
24105.1
50489.2
24765.6
51017.2
25304.8
51447.7
25740.4
51795.3
26087.7
52072.3
26360.2
52289.6
26569.4
52456.4
26724.9
52580.6
26835.3
52668.7
26907.3
52726.5
26947.1
52758.8
26959.3
52769.2
6.45136e+06
3.44227e+06
2.93333e+06
2.67306e+06
2.50798e+06
2.3975e+06
2.31917e+06
2.26039e+06
2.21494e+06
2.17898e+06
2.14996e+06
2.12614e+06
2.10637e+06
2.08976e+06
2.0757e+06
2.06369e+06
2.05338e+06
2.04445e+06
2.03671e+06
2.02994e+06
2.02401e+06
2.01878e+06
2.01416e+06
2.01005e+06
2.00639e+06
2.00312e+06
2.00019e+06
1.99755e+06
1.99517e+06
1.99302e+06
1.99107e+06
1.98929e+06
1.98768e+06
1.98621e+06
1.98488e+06
1.98365e+06
1.98255e+06
1.98154e+06
1.98065e+06
1.97983e+06
1.97914e+06
1.97853e+06
1.97805e+06
1.97767e+06
1.97743e+06
1.97732e+06
1.97739e+06
1.97763e+06
1.97809e+06
1.97878e+06
1.97975e+06
1.98101e+06
1.98265e+06
1.98466e+06
1.98716e+06
1.99014e+06
1.99372e+06
1.99793e+06
2.00289e+06
2.00863e+06
2.01535e+06
2.02303e+06
2.03197e+06
2.04051e+06
2.04791e+06
2.05574e+06
2.0641e+06
2.07296e+06
2.08236e+06
2.0923e+06
2.1028e+06
2.11392e+06
2.12563e+06
2.13801e+06
2.15114e+06
2.1649e+06
2.17976e+06
2.19502e+06
2.21231e+06
2.22899e+06
2.25035e+06
2.26758e+06
2.29764e+06
2.31271e+06
2.3587e+06
2.38004e+06
2.43939e+06
2.49974e+06
2.02743e+06
1.08879e+06
922478
837998
784446
748565
723143
704089
689362
677718
668325
660620
654226
648857
644314
640433
637105
634219
631721
629536
627621
625935
624442
623116
621937
620881
619935
619083
618316
617621
616994
616420
615901
615425
614995
614599
614244
613917
613628
613364
613139
612938
612780
612651
612569
612525
612536
612599
612732
612934
613222
613601
614093
614699
615453
616354
617440
618713
620218
621954
623990
626314
629021
631598
633835
636201
638720
641386
644210
647194
650339
653664
657156
660840
664730
668804
673173
677655
682685
687539
693655
698594
707026
711273
723603
729054
743495
772457
1.02699e+06
591650
507118
463026
434383
414925
401043
390592
382487
376066
370877
366617
363078
360103
357586
355433
353587
351986
350599
349385
348322
347385
346555
345818
345163
344576
344050
343576
343150
342763
342414
342095
341806
341541
341302
341082
340884
340702
340541
340393
340267
340155
340066
339993
339945
339919
339922
339953
340023
340130
340284
340486
340750
341076
341481
341966
342550
343235
344045
344979
346073
347322
348775
350154
351352
352619
353964
355385
356888
358473
360141
361899
363742
365678
367720
369843
372121
374430
377030
379488
382606
385049
389222
391322
397039
399307
406174
411786
627899
376170
326557
300297
282752
270612
261863
255234
250070
245963
242638
239902
237626
235712
234090
232702
231510
230476
229580
228796
228109
227502
226966
226489
226065
225685
225344
225038
224761
224511
224285
224078
223891
223719
223564
223421
223293
223174
223070
222974
222891
222818
222759
222710
222678
222658
222658
222674
222715
222779
222872
222995
223157
223357
223606
223904
224264
224685
225183
225758
226431
227197
228089
228933
229665
230440
231260
232124
233037
233996
235004
236062
237169
238326
239544
240800
242146
243495
245011
246422
248208
249576
251888
253039
256101
256841
261637
253229
427142
258748
226640
209933
198484
190388
184478
179963
176422
173595
171297
169403
167823
166493
165364
164397
163566
162844
162219
161671
161190
160766
160390
160056
159759
159493
159255
159040
158846
158670
158512
158367
158235
158115
158006
157906
157815
157732
157658
157590
157532
157479
157437
157401
157377
157361
157358
157366
157390
157429
157488
157567
157671
157799
157961
158154
158387
158661
158985
159357
159794
160290
160868
161412
161884
162384
162910
163464
164047
164658
165298
165968
166666
167392
168152
168933
169762
170590
171507
172359
173412
174217
175538
176176
177923
177925
181358
171316
310813
187057
164345
153267
145563
139987
135854
132663
130140
128113
126459
125090
123945
122979
122158
121454
120848
120321
119863
119463
119111
118800
118525
118280
118062
117867
117691
117534
117391
117262
117145
117039
116942
116854
116773
116699
116633
116571
116516
116466
116423
116383
116351
116324
116304
116290
116285
116288
116301
116325
116363
116413
116481
116565
116672
116800
116954
117135
117350
117597
117886
118214
118596
118955
119265
119593
119938
120300
120680
121076
121490
121921
122367
122831
123311
123805
124318
124836
125389
125916
126529
127012
127762
128104
129090
128825
131013
123800
236677
140198
122644
115006
109740
105848
102914
100619
98786.9
97303
96085.1
95072.6
94223.2
93503.8
92890.8
92364
91910
91514.7
91171.1
90869.5
90604.6
90370.5
90163
89978.2
89813.5
89665.9
89533.4
89414
89306.2
89208.5
89120.1
89039.3
88966
88898.8
88837.8
88781.6
88730.9
88684
88642.2
88603.6
88570.1
88539.5
88514.1
88492.2
88475.7
88463.4
88457.2
88457
88463.4
88477.2
88500.3
88532.4
88576.2
88631.1
88701
88785.1
88887.5
89007.4
89149.9
89313.4
89505.2
89722.2
89974.3
90210.7
90414.1
90630
90855.9
91091.6
91338.2
91595.2
91860.9
92138.1
92421
92716.2
93015.2
93326.3
93638.2
93961.5
94284.8
94610.2
94952.2
95240
95647.3
95818.1
96332.1
96052
97143.5
93582.2
186145
108159
93446.4
87904.5
84257
81532.5
79444.4
77788.8
76450.1
75355.4
74450.2
73693.2
73055
72512.4
72048.5
71648.8
71303.4
71002.1
70739.9
70509.2
70306.4
70126.9
69967.6
69825.7
69699
69585.5
69483.4
69391.4
69308.3
69232.9
69164.6
69102.2
69045.5
68993.5
68946.3
68902.7
68863.4
68826.9
68794.3
68764.1
68737.7
68713.4
68693
68675.1
68661
68649.9
68643.1
68640.5
68642.6
68649.5
68662.8
68682.1
68709.6
68744.2
68789.2
68843.4
68909.9
68987.8
69080.7
69187.1
69312.2
69453.2
69617
69770.4
69901.4
70040.7
70185.9
70336.7
70493.5
70656.6
70823.3
70997.7
71172
71355.7
71535.4
71727.2
71907.3
72105.1
72281.3
72478
72651.9
72817.3
73015.3
73089.5
73309.5
73109.5
73419.1
72935.9
149967
85530.9
72402
68091.2
65507.5
63599.1
62121
60933.4
59959.8
59154.3
58482
57915.5
57435
57024.2
56671.6
56366.7
56102.4
55871.2
55669.5
55491.7
55335.1
55196.2
55072.9
54962.8
54864.4
54776.1
54696.7
54625
54560.2
54501.4
54448.1
54399.3
54355
54314.2
54277.2
54243
54212.1
54183.4
54157.6
54133.7
54112.6
54093.1
54076.5
54061.5
54049.5
54039.5
54032.4
54028.2
54027.5
54029.8
54036.3
54047
54063
54083.7
54111.2
54144.6
54186.1
54234.8
54293.2
54359.9
54438.7
54526.9
54629.6
54725.6
54807
54893.5
54983.2
55076.1
55171.6
55270.9
55370.5
55475.6
55577.1
55686.2
55786.9
55899.5
55994.4
56109.2
56193.9
56304.6
56377.8
56464.4
56535.8
56557.2
56604.3
56494.9
56356.2
57222.8
123093
69139
56940.4
53304.4
51391
50043.9
49005.5
48164.2
47465.3
46879.4
46385
45964.5
45605
45295.7
45028.7
44796.7
44594.8
44417.5
44262.5
44125.3
44004.3
43896.7
43801
43715.3
43638.8
43569.9
43507.8
43451.8
43401.1
43354.9
43313.1
43274.8
43239.9
43207.8
43178.7
43151.7
43127.3
43104.5
43084
43064.8
43047.9
43032.1
43018.4
43006
42995.6
42986.6
42979.7
42974.5
42971.9
42971.3
42973.3
42977.9
42986
42997
43012.5
43031.4
43055.5
43083.8
43118.2
43157.3
43203.8
43255.5
43315.8
43372.2
43419.4
43469.6
43521.3
43574.6
43628.4
43684.6
43738.9
43797.3
43850.4
43909.7
43959.1
44018.7
44060.4
44119.2
44150
44201.2
44218.4
44251.6
44251.9
44244.8
44209.3
44128.1
43839.5
44927.9
102558
57010.9
45430.5
42125
40601.1
39622.6
38893.4
38306
37813.9
37396.2
37039.4
36732.6
36467.9
36238.2
36038.5
35863.9
35711.2
35576.5
35458.3
35353.3
35260.4
35177.5
35103.6
35037.3
34977.9
34924.4
34876
34832.3
34792.7
34756.6
34723.8
34693.7
34666.4
34641.1
34618.2
34596.8
34577.5
34559.4
34543.2
34527.8
34514.2
34501.4
34490.2
34479.8
34470.9
34462.9
34456.3
34450.8
34447.1
34444.5
34443.7
34444.4
34447
34451.5
34458.6
34467.6
34479.8
34494.1
34511.9
34532
34556.3
34583
34614.3
34643.6
34667.7
34693.3
34719.2
34745.8
34771.6
34799
34823.5
34851
34872.8
34899
34916.4
34940.3
34951
34971.7
34973.3
34982.7
34973.3
34969
34940.2
34913.3
34835.8
34765.6
34473.4
35377.8
86513.4
47867.9
36780.3
33607.9
32278.7
31521.6
30998.4
30591
30251.7
29961.6
29711.2
29493.4
29303.4
29136.9
28990.9
28862.3
28749.1
28648.6
28560
28480.9
28410.6
28347.7
28291.4
28240.7
28195.2
28154.1
28116.8
28083.1
28052.5
28024.5
27999
27975.6
27954.3
27934.6
27916.6
27899.9
27884.7
27870.5
27857.6
27845.4
27834.6
27824.2
27815.1
27806.4
27798.9
27791.9
27785.9
27780.4
27776.2
27772.5
27769.9
27768
27767.4
27767.6
27769.1
27771.5
27775.7
27780.6
27787.3
27794.7
27804.1
27814.2
27826.1
27837.3
27846.2
27855.5
27864.5
27873.6
27881.3
27890
27895.4
27903
27905.4
27910.1
27908.7
27909.3
27903.5
27899.5
27885.1
27874.2
27846.3
27826.4
27777.9
27743
27653
27584.9
27334.6
28005.5
73748.8
40854.1
30229.7
27091.8
25830.6
25185.4
24785.6
24497.4
24265.9
24069.9
23900.1
23751.2
23619.9
23503.6
23400.6
23309
23227.8
23155
23090.6
23032.7
22981
22934.4
22892.5
22854.7
22820.6
22789.7
22761.6
22736.1
22712.9
22691.6
22672.2
22654.3
22637.9
22622.8
22609
22596.1
22584.4
22573.3
22563.3
22553.7
22545.2
22536.9
22529.6
22522.5
22516.3
22510.3
22505
22499.9
22495.5
22491.4
22487.9
22484.5
22481.9
22479.4
22477.5
22475.8
22474.8
22473.7
22473.3
22472.6
22472.4
22471.9
22471.4
22471
22470.4
22469.5
22467.9
22466.1
22462.6
22459.7
22453.7
22449.3
22440.1
22433.3
22419.7
22409.9
22390.8
22377.4
22350.5
22332
22293.6
22267.7
22212
22173.8
22086.8
22020.2
21816.5
22298.7
63435.3
35380.4
25235.9
22095.9
20828.7
20218.5
19878
19658.7
19496.9
19366
19254.7
19157.4
19071.2
18994.1
18925.3
18863.3
18807.9
18757.8
18713.1
18672.5
18636.1
18603.1
18573.2
18546.1
18521.5
18499.2
18478.7
18460.1
18443.1
18427.4
18413.1
18399.8
18387.7
18376.4
18366.1
18356.4
18347.6
18339.2
18331.6
18324.3
18317.8
18311.3
18305.7
18300
18295
18290
18285.4
18280.9
18276.8
18272.6
18268.8
18264.8
18261.2
18257.2
18253.4
18249.3
18245.3
18240.7
18236.1
18230.6
18224.7
18217.9
18210.1
18203.1
18196.5
18190
18182
18174.2
18164.1
18155.1
18142.3
18131.9
18115.7
18103.5
18083.1
18068.8
18042.9
18025.9
17993.2
17972
17930.2
17902.7
17847.5
17809.3
17731.2
17668.5
17506.1
17850.7
55021.2
31030
21405.1
18261.2
16952.4
16328.4
16000.1
15809.7
15685.3
15594.3
15521.9
15460.8
15407.5
15360
15317.4
15278.7
15243.8
15211.8
15183.1
15156.7
15132.9
15111.1
15091.2
15073
15056.4
15041.2
15027.3
15014.4
15002.7
14991.8
14981.8
14972.4
14963.9
14955.9
14948.6
14941.6
14935.4
14929.3
14923.8
14918.4
14913.7
14908.9
14904.6
14900.3
14896.4
14892.4
14888.7
14884.8
14881.2
14877.3
14873.7
14869.6
14865.6
14861
14856.4
14851.2
14845.7
14839.4
14832.5
14824.6
14815.8
14805.8
14794.2
14783.8
14774.2
14764.8
14753.6
14743
14729.6
14717.9
14701.9
14688.9
14669.7
14655.3
14632.3
14616.4
14588.6
14570.7
14537
14515.7
14474.9
14448.4
14397.3
14361.5
14293.9
14236.9
14109.9
14356.1
48112.2
27498.1
18447.9
15315.9
13955.1
13291.1
12943.9
12752.5
12639.4
12566.6
12515.6
12476.8
12445.3
12418.2
12394.6
12373.1
12353.9
12336
12319.9
12304.9
12291.3
12278.6
12266.9
12256.1
12246.1
12236.9
12228.4
12220.4
12213.1
12206.3
12200
12194
12188.6
12183.4
12178.7
12174.1
12170
12165.9
12162.3
12158.6
12155.4
12152
12149
12145.9
12143.1
12140
12137.2
12134.1
12131.1
12127.8
12124.5
12120.7
12116.9
12112.4
12107.7
12102.2
12096.3
12089.4
12081.8
12073.1
12063.2
12052.1
12039
12027.5
12016.8
12006.5
11994.2
11982.7
11968.4
11955.9
11939.2
11925.6
11906.1
11891.4
11868.6
11852.7
11825.9
11808.5
11776.8
11757
11719.3
11695.2
11649.7
11618.1
11560.4
11510.7
11412.5
11587.6
42419
24550
16150.1
13052.3
11643.8
10929.9
10546.7
10334.3
10212.8
10140.7
10096.1
10067.1
10047
10032.1
10020.4
10010.6
10002.3
9994.58
9987.84
9981.45
9975.64
9970.09
9964.94
9960.04
9955.49
9951.18
9947.11
9943.27
9939.68
9936.22
9933.04
9929.94
9927.1
9924.31
9921.8
9919.27
9917.03
9914.7
9912.67
9910.5
9908.61
9906.55
9904.71
9902.7
9900.86
9898.78
9896.79
9894.49
9892.23
9889.55
9886.85
9883.6
9880.23
9876.17
9871.81
9866.65
9860.97
9854.35
9846.93
9838.43
9828.65
9817.8
9804.88
9793.49
9782.98
9772.84
9760.81
9749.69
9735.87
9723.8
9707.95
9694.93
9676.75
9662.77
9641.86
9626.84
9602.67
9586.4
9558.27
9540.23
9507.07
9486.04
9446.33
9419.51
9370.79
9329.9
9253.81
9378.05
37703
22023
14351.9
11311.7
9866.23
9103.46
8677.63
8433.22
8290.52
8206.13
8155.99
8126.07
8108.32
8097.73
8091.58
8087.87
8085.93
8084.53
8083.86
8083.34
8083.04
8082.67
8082.34
8081.9
8081.47
8080.98
8080.43
8079.82
8079.23
8078.52
8077.89
8077.14
8076.47
8075.68
8075.03
8074.22
8073.56
8072.73
8072.06
8071.18
8070.47
8069.53
8068.7
8067.7
8066.74
8065.56
8064.35
8062.84
8061.3
8059.34
8057.3
8054.72
8051.96
8048.57
8044.82
8040.32
8035.28
8029.38
8022.65
8014.98
8006.03
7996.17
7984.34
7973.91
7964.27
7955.01
7944.04
7933.88
7921.4
7910.37
7896.23
7884.32
7868.3
7855.51
7837.32
7823.58
7802.81
7787.97
7764.03
7747.77
7719.75
7701.35
7667.86
7645.57
7604.95
7572.77
7513.71
7601.8
33700.9
19867.4
12932.9
9971.82
8502.69
7697.54
7229.87
6949.75
6779.13
6674.32
6610.07
6571.1
6548.1
6535.09
6528.52
6525.8
6525.82
6526.92
6529.07
6531.67
6534.45
6537.23
6539.93
6542.43
6544.79
6546.95
6548.91
6550.66
6552.27
6553.64
6554.94
6556.01
6557.03
6557.83
6558.64
6559.22
6559.84
6560.22
6560.66
6560.86
6561.13
6561.12
6561.15
6561.03
6560.83
6560.46
6559.92
6559.15
6558.29
6557.04
6555.65
6553.79
6551.7
6549.05
6546.03
6542.35
6538.12
6533.16
6527.39
6520.83
6513.07
6504.54
6494.26
6485.15
6476.76
6468.65
6459.13
6450.19
6439.44
6429.7
6417.62
6407.06
6393.49
6382.1
6366.84
6354.55
6337.28
6323.99
6304.24
6289.75
6266.75
6250.63
6223.24
6204.62
6171.64
6146.82
6101.37
6163.59
30179.9
18035.6
11800.2
8937.35
7458.36
6619.91
6115.36
5800.87
5600.7
5471.78
5388.56
5335.1
5301.37
5280.65
5268.76
5262.57
5260.43
5260.69
5262.42
5265.4
5268.86
5272.69
5276.56
5280.38
5284.12
5287.69
5291.06
5294.2
5297.17
5299.86
5302.41
5304.69
5306.86
5308.77
5310.61
5312.19
5313.74
5315.02
5316.29
5317.31
5318.32
5319.08
5319.81
5320.33
5320.78
5321.02
5321.02
5320.91
5320.64
5320.02
5319.22
5318.02
5316.58
5314.64
5312.35
5309.5
5306.13
5302.14
5297.4
5292.02
5285.56
5278.45
5269.84
5262.14
5255.1
5248.19
5240.22
5232.57
5223.6
5215.21
5205.19
5196.03
5184.85
5174.91
5162.42
5151.64
5137.6
5125.91
5109.93
5097.21
5078.71
5064.74
5042.86
5027.29
5001.15
4982.3
4947.63
4991.32
26923.3
16474.1
10877.1
8131.62
6657.34
5795.82
5261.51
4917.04
4689.26
4536.14
4432.37
4361.85
4314.2
4282.33
4261.58
4248.5
4240.98
4237.19
4236.06
4236.73
4238.55
4241.44
4244.62
4248.14
4251.78
4255.46
4259.06
4262.55
4265.93
4269.11
4272.17
4274.98
4277.69
4280.15
4282.53
4284.66
4286.73
4288.54
4290.31
4291.84
4293.32
4294.57
4295.76
4296.73
4297.62
4298.3
4298.81
4299.14
4299.21
4299.08
4298.8
4298.13
4297.24
4295.94
4294.3
4292.19
4289.6
4286.51
4282.75
4278.44
4273.23
4267.43
4260.42
4254.05
4248.3
4242.53
4236.02
4229.59
4222.28
4215.17
4207.02
4199.22
4190.16
4181.65
4171.56
4162.3
4151.01
4140.94
4128.17
4117.23
4102.54
4090.67
4073.46
4060.66
4040.29
4026.14
3999.97
4030.41
23733.2
15099.3
10093.7
7488.84
6036.56
5163.64
4608.01
4239.73
3988.55
3813.7
3690.41
3602.74
3540.25
3495.7
3464.21
3442.12
3427.05
3417.01
3410.74
3407.2
3405.53
3405.61
3406.4
3408.1
3410.25
3412.76
3415.42
3418.2
3421.03
3423.82
3426.56
3429.18
3431.76
3434.16
3436.53
3438.7
3440.83
3442.75
3444.62
3446.29
3447.92
3449.34
3450.71
3451.87
3452.97
3453.86
3454.64
3455.19
3455.65
3455.72
3455.7
3455.38
3454.95
3454.12
3452.99
3451.47
3449.53
3447.17
3444.24
3440.85
3436.72
3432.05
3426.44
3421.23
3416.61
3411.86
3406.61
3401.28
3395.38
3389.47
3382.89
3376.37
3369.07
3361.92
3353.82
3346.02
3336.99
3328.51
3318.36
3309.17
3297.63
3287.78
3274.44
3264.13
3248.52
3238.02
3218.46
3239.45
20420.6
13809.6
9376.72
6946.54
5539.64
4670.11
4103.42
3718.95
3450.1
3257.74
3117.86
3014.88
2938.52
2881.55
2839.05
2807.28
2783.72
2766.28
2753.59
2744.49
2738.09
2733.91
2731.21
2729.82
2729.23
2729.46
2730.14
2731.27
2732.63
2734.2
2735.82
2737.51
2739.29
2741.03
2742.81
2744.48
2746.17
2747.74
2749.3
2750.72
2752.12
2753.38
2754.59
2755.66
2756.67
2757.52
2758.29
2758.86
2759.38
2759.59
2759.64
2759.45
2759.24
2758.73
2757.92
2756.8
2755.32
2753.5
2751.21
2748.52
2745.24
2741.48
2736.99
2732.77
2729.06
2725.18
2720.97
2716.6
2711.85
2706.99
2701.7
2696.32
2690.46
2684.55
2678.07
2671.62
2664.43
2657.43
2649.43
2641.89
2632.92
2624.95
2614.76
2606.64
2594.89
2587.19
2572.72
2586.99
16853.1
12440.7
8637.58
6437.35
5110.16
4264.97
3700.98
3310.15
3031.02
2826.83
2674.75
2559.81
2472.05
2404.41
2352.05
2311.26
2279.49
2254.63
2235.25
2220.14
2208.4
2199.36
2192.41
2187.17
2183.22
2180.37
2178.35
2177.02
2176.19
2175.86
2175.65
2175.82
2176.23
2176.76
2177.42
2178.12
2178.9
2179.67
2180.5
2181.28
2182.09
2182.83
2183.57
2184.22
2184.85
2185.38
2185.85
2186.23
2186.52
2186.69
2186.56
2186.49
2186.22
2185.79
2185.09
2184.15
2182.93
2181.43
2179.55
2177.35
2174.68
2171.6
2167.96
2164.51
2161.52
2158.36
2154.96
2151.39
2147.57
2143.59
2139.34
2134.95
2130.25
2125.44
2120.27
2115.03
2109.35
2103.69
2097.45
2091.42
2084.54
2078.25
2070.61
2064.36
2055.68
2050.09
2039.52
2049.03
13056.5
10721
7762.9
5880.77
4684.6
3894.84
3353.61
2970.21
2690.85
2482.48
2324.19
2202.04
2106.66
2031.38
1971.53
1923.56
1884.97
1853.72
1828.37
1807.72
1790.87
1777.1
1765.83
1756.62
1749.05
1742.87
1737.82
1733.7
1730.34
1727.64
1725.42
1723.64
1722.24
1721.13
1720.29
1719.62
1719.14
1718.78
1718.54
1718.37
1718.3
1718.15
1718.16
1718.14
1718.05
1718.09
1717.91
1717.84
1717.8
1717.78
1717.53
1717.17
1716.68
1716.07
1715.29
1714.34
1713.18
1711.79
1710.13
1708.2
1705.92
1703.3
1700.25
1697.39
1694.94
1692.34
1689.56
1686.65
1683.55
1680.31
1676.89
1673.34
1669.58
1665.71
1661.62
1657.43
1652.99
1648.52
1643.73
1639.01
1633.84
1629
1623.4
1618.66
1612.42
1608.33
1600.79
1606.97
9189.47
8399.89
6628.97
5178.01
4185.9
3497.24
3008.5
2652.81
2387.71
2185.98
2029.81
1907.06
1809.4
1730.81
1667.04
1614.84
1571.86
1536.22
1506.54
1481.69
1460.8
1443.18
1428.26
1415.59
1404.79
1395.57
1387.67
1380.89
1375.05
1370.02
1365.67
1361.89
1358.62
1355.77
1353.3
1351.13
1349.24
1347.57
1346.12
1344.82
1343.69
1342.65
1341.73
1340.89
1340.11
1339.39
1338.68
1338.01
1337.35
1336.7
1336
1335.25
1334.43
1333.53
1332.53
1331.42
1330.15
1328.73
1327.12
1325.3
1323.22
1320.89
1318.23
1315.8
1313.73
1311.56
1309.27
1306.86
1304.34
1301.7
1298.95
1296.09
1293.1
1290.03
1286.82
1283.54
1280.12
1276.66
1273.04
1269.46
1265.65
1262.02
1257.99
1254.48
1250.11
1247.13
1241.86
1245.74
5293.68
5623.12
5100.52
4218.62
3524.3
2998.29
2603.78
2304.75
2074.74
1895.12
1752.93
1638.89
1546.4
1470.6
1407.95
1355.73
1311.92
1274.9
1243.46
1216.61
1193.57
1173.7
1156.52
1141.58
1128.56
1117.16
1107.16
1098.35
1090.57
1083.67
1077.56
1072.1
1067.23
1062.87
1058.96
1055.44
1052.27
1049.4
1046.81
1044.44
1042.29
1040.32
1038.51
1036.83
1035.28
1033.83
1032.46
1031.16
1029.91
1028.7
1027.5
1026.31
1025.1
1023.87
1022.58
1021.24
1019.8
1018.26
1016.6
1014.8
1012.81
1010.65
1008.25
1006.13
1004.36
1002.51
1000.6
998.603
996.534
994.395
992.18
989.9
987.548
985.139
982.66
980.14
977.552
974.946
972.268
969.615
966.861
964.222
961.384
958.873
955.848
953.755
950.103
952.461
2005.54
2970.76
3092.53
2943.98
2627.66
2327.53
2076.17
1869.53
1701.37
1564.31
1451.98
1359.19
1281.97
1217.22
1162.54
1116.05
1076.29
1042.07
1012.47
986.745
964.279
944.575
927.226
911.89
898.289
886.18
875.374
865.693
857.005
849.177
842.114
835.718
829.92
824.645
819.842
815.453
811.441
807.76
804.38
801.267
798.394
795.735
793.269
790.973
788.829
786.82
784.925
783.133
781.423
779.786
778.2
776.656
775.132
773.623
772.102
770.564
768.983
767.354
765.647
763.859
761.955
759.934
757.754
755.895
754.375
752.815
751.214
749.574
747.894
746.177
744.422
742.637
740.818
738.975
737.104
735.22
733.312
731.407
729.479
727.58
725.643
723.79
721.836
720.104
718.054
716.655
714.143
715.523
603.572
1053.32
1371.27
1530.94
1525.77
1486.65
1406.24
1316.71
1233.67
1159.01
1092.98
1035.1
984.52
940.36
901.765
867.932
838.186
811.941
788.709
768.072
749.683
733.245
718.507
705.252
693.302
682.495
672.702
663.802
655.7
648.304
641.542
635.345
629.657
624.425
619.606
615.158
611.048
607.242
603.713
600.436
597.386
594.542
591.886
589.4
587.066
584.871
582.797
580.833
578.963
577.177
575.458
573.799
572.18
570.596
569.027
567.468
565.899
564.314
562.692
561.03
559.301
557.506
555.614
554.055
552.802
551.536
550.256
548.963
547.658
546.341
545.014
543.68
542.34
540.999
539.655
538.317
536.981
535.66
534.341
533.053
531.758
530.525
529.245
528.114
526.787
525.911
524.231
524.996
296.291
364.499
477.859
588.961
661.575
706.119
727.437
726.547
721.143
707.969
691.078
672.704
654.117
636.157
619.091
603.011
588.006
574.063
561.146
549.212
538.203
528.047
518.68
510.033
502.048
494.666
487.839
481.517
475.66
470.226
465.182
460.492
456.13
452.068
448.282
444.749
441.451
438.367
435.482
432.778
430.242
427.861
425.621
423.511
421.52
419.638
417.853
416.158
414.541
412.996
411.509
410.077
408.684
407.329
405.996
404.682
403.372
402.064
400.741
399.405
398.033
396.633
395.178
394.021
393.105
392.192
391.281
390.372
389.467
388.565
387.668
386.778
385.895
385.022
384.158
383.308
382.469
381.648
380.84
380.055
379.278
378.54
377.791
377.12
376.366
375.826
374.835
375.234
231.896
235.955
250.384
279.518
310.544
337.861
361.175
377.746
389.829
397.45
402.368
403.46
402.915
401.832
399.3
396.057
392.338
388.22
383.954
379.671
375.416
371.221
367.124
363.151
359.317
355.634
352.109
348.742
345.535
342.483
339.583
336.829
334.219
331.744
329.402
327.184
325.086
323.099
321.219
319.438
317.752
316.152
314.636
313.195
311.827
310.524
309.284
308.099
306.965
305.878
304.831
303.821
302.842
301.889
300.957
300.041
299.135
298.238
297.338
296.442
295.532
294.619
293.684
292.981
292.437
291.905
291.383
290.872
290.372
289.883
289.407
288.942
288.491
288.053
287.628
287.217
286.819
286.434
286.062
285.705
285.36
285.032
284.71
284.414
284.109
283.84
283.379
283.545
216.692
206.776
204.427
207.087
214.002
225.16
237.697
249.689
260.738
270.115
278.084
284.41
289.08
292.745
295.046
296.745
297.465
296.996
296.785
296.155
295.164
293.921
292.499
290.95
289.311
287.617
285.896
284.167
282.447
280.747
279.077
277.445
275.859
274.322
272.841
271.414
270.044
268.728
267.469
266.261
265.107
264.002
262.948
261.94
260.979
260.061
259.188
258.352
257.559
256.8
256.081
255.39
254.737
254.109
253.514
252.943
252.399
251.88
251.38
250.909
250.451
250.021
249.602
249.354
249.179
249.02
248.872
248.737
248.612
248.502
248.404
248.323
248.255
248.2
248.155
248.118
248.086
248.061
248.038
248.021
248.008
247.995
247.984
247.969
247.951
247.926
247.904
247.803
217.104
207.206
205.336
208.354
216.01
228.004
241.314
253.969
265.588
275.383
283.692
290.224
295.014
298.799
301.034
302.853
303.156
302.905
302.618
301.869
300.757
299.399
297.859
296.192
294.442
292.642
290.817
288.988
287.172
285.378
283.62
281.902
280.235
278.621
277.066
275.568
274.131
272.752
271.432
270.168
268.962
267.809
266.71
265.662
264.667
263.719
262.825
261.972
261.173
260.412
259.705
259.031
258.413
257.826
257.292
256.793
256.338
255.933
255.552
255.245
254.942
254.712
254.498
254.45
254.407
254.354
254.277
254.183
254.004
254.005
253.91
253.982
254.112
254.263
254.441
254.644
254.861
255.086
255.312
255.536
255.757
255.973
256.191
256.397
256.622
256.803
257.072
257.138
233.659
238.404
254.693
287.233
321.684
352.088
377.822
396.155
409.401
417.653
422.909
423.854
423.267
421.885
418.872
415.196
410.939
406.337
401.59
396.838
392.118
387.476
382.947
378.56
374.332
370.274
366.394
362.691
359.166
355.813
352.629
349.606
346.741
344.026
341.458
339.026
336.727
334.551
332.496
330.552
328.716
326.982
325.346
323.802
322.348
320.977
319.692
318.481
317.355
316.296
315.324
314.41
313.588
312.816
312.145
311.513
310.991
310.516
310.11
309.874
309.48
309.214
308.898
308.874
308.874
308.95
309.153
309.395
309.633
309.885
310.157
310.453
310.772
311.111
311.463
311.825
312.193
312.563
312.935
313.303
313.672
314.033
314.402
314.747
315.128
315.424
315.89
315.961
301.094
374.587
498.799
619.847
699.004
747.237
769.541
768.502
761.648
747.299
728.447
708.237
687.884
668.349
649.758
632.295
615.993
600.862
586.849
573.913
561.976
550.967
540.806
531.425
522.755
514.739
507.319
500.447
494.074
488.159
482.664
477.552
472.794
468.36
464.226
460.366
456.763
453.394
450.244
447.296
444.538
441.955
439.538
437.276
435.16
433.183
431.339
429.62
428.027
426.547
425.188
423.937
422.803
421.778
420.859
420.066
419.358
418.798
418.312
417.975
417.727
417.612
417.57
417.467
417.572
417.772
418.029
418.335
418.685
419.071
419.488
419.931
420.397
420.882
421.384
421.898
422.422
422.951
423.484
424.013
424.543
425.058
425.582
426.068
426.601
427.012
427.646
427.762
615.816
1083.18
1422.42
1590.5
1585.7
1544.94
1460.78
1366.88
1279.95
1201.75
1132.51
1071.76
1018.61
972.174
931.526
895.854
864.438
836.683
812.068
790.174
770.626
753.126
737.402
723.241
710.444
698.855
688.328
678.749
670.008
662.019
654.698
647.979
641.8
636.107
630.857
626.005
621.517
617.358
613.504
609.925
606.602
603.513
600.643
597.975
595.497
593.197
591.066
589.098
587.281
585.618
584.095
582.721
581.479
580.39
579.422
578.622
577.925
577.414
577.013
576.734
576.725
576.473
576.617
576.9
577.253
577.67
578.143
578.663
579.22
579.807
580.419
581.054
581.708
582.379
583.065
583.76
584.463
585.167
585.873
586.569
587.267
587.94
588.631
589.259
589.969
590.48
591.354
591.41
2026.4
3026.96
3167.32
3017.7
2696.79
2390.29
2132.59
1919.96
1746.51
1604.84
1488.44
1392.1
1311.72
1244.17
1186.98
1138.24
1096.42
1060.35
1029.05
1001.77
977.87
956.849
938.271
921.804
907.142
894.054
882.326
871.793
862.299
853.725
845.956
838.904
832.486
826.632
821.286
816.389
811.902
807.779
803.99
800.5
797.287
794.324
791.593
789.075
786.757
784.625
782.669
780.885
779.255
777.794
776.472
775.314
774.301
773.44
772.73
772.189
771.719
771.629
771.193
771.193
771.441
771.907
772.51
773.233
773.881
774.587
775.345
776.147
776.984
777.851
778.74
779.648
780.571
781.504
782.445
783.387
784.329
785.265
786.195
787.111
788.021
788.903
789.79
790.622
791.5
792.239
793.188
793.184
5318.04
5696.98
5185.17
4300.51
3597.35
3061.74
2658.5
2351.79
2115.09
1929.72
1782.5
1664.07
1567.68
1488.44
1422.68
1367.67
1321.3
1281.97
1248.4
1219.61
1194.76
1173.25
1154.52
1138.16
1123.81
1111.18
1100.03
1090.15
1081.36
1073.54
1066.54
1060.27
1054.64
1049.57
1044.99
1040.85
1037.1
1033.69
1030.6
1027.79
1025.23
1022.9
1020.77
1018.85
1017.1
1015.52
1014.09
1012.83
1011.7
1010.75
1009.89
1009.21
1008.68
1008.26
1008.04
1007.76
1007.8
1008.03
1008.51
1009.14
1009.93
1010.91
1012.05
1013.25
1014.29
1015.38
1016.51
1017.68
1018.89
1020.12
1021.36
1022.62
1023.89
1025.16
1026.43
1027.69
1028.94
1030.17
1031.39
1032.58
1033.77
1034.91
1036.06
1037.12
1038.27
1039.16
1040.47
1040.43
9238.27
8478.33
6728.25
5264.21
4258.18
3556.52
3056.49
2691.16
2417.81
2209
2046.66
1918.54
1816.08
1733.26
1665.64
1610.01
1563.87
1525.37
1493.06
1465.81
1442.71
1423.06
1406.25
1391.84
1379.43
1368.72
1359.44
1351.38
1344.35
1338.22
1332.84
1328.12
1323.97
1320.3
1317.06
1314.19
1311.64
1309.38
1307.37
1305.59
1304
1302.6
1301.36
1300.28
1299.33
1298.48
1297.78
1297.22
1296.74
1296.52
1296.04
1296
1296.06
1296.28
1296.7
1297.24
1297.94
1298.81
1299.85
1301.08
1302.5
1304.15
1305.99
1307.77
1309.27
1310.81
1312.39
1314.01
1315.66
1317.32
1318.99
1320.66
1322.34
1324.01
1325.67
1327.3
1328.93
1330.51
1332.09
1333.61
1335.14
1336.58
1338.07
1339.37
1340.89
1341.94
1343.69
1343.61
13120.3
10808.1
7858.66
5961.41
4747.57
3941.73
3386.74
2991.72
2702.44
2485.58
2319.85
2191.22
2090.04
2009.64
1945.11
1892.99
1850.58
1815.9
1787.4
1763.9
1744.43
1728.28
1714.82
1703.6
1694.21
1686.34
1679.75
1674.21
1669.55
1665.63
1662.33
1659.55
1657.23
1655.26
1653.63
1652.23
1651.07
1650.12
1649.34
1648.71
1648.21
1647.83
1647.53
1647.36
1647.27
1647.07
1647.15
1647.34
1647.63
1648.05
1648.5
1649.1
1649.8
1650.62
1651.6
1652.73
1654.05
1655.54
1657.24
1659.18
1661.32
1663.69
1666.28
1668.71
1670.72
1672.77
1674.86
1676.98
1679.12
1681.27
1683.43
1685.58
1687.73
1689.85
1691.96
1694.04
1696.1
1698.1
1700.09
1702
1703.93
1705.71
1707.6
1709.19
1711.14
1712.37
1714.66
1714.49
16919.4
12513.9
8716.83
6499.97
5152.23
4288.24
3708.19
3303.75
3012.97
2798.74
2637.84
2515.2
2420.53
2346.82
2288.93
2243.28
2207.05
2178.25
2155.29
2136.96
2122.33
2110.67
2101.35
2093.98
2088.14
2083.54
2079.98
2077.2
2075.09
2073.52
2072.4
2071.63
2071.16
2070.87
2070.84
2070.8
2070.98
2071.3
2071.69
2072.13
2072.62
2073.17
2073.73
2074.37
2075.02
2075.7
2076.43
2077.25
2078.12
2079.11
2080.14
2081.31
2082.58
2083.96
2085.51