/*--------------------------------*- C++ -*----------------------------------*\
| =========                 |                                                 |
| \\      /  F ield         | OpenFOAM: The Open Source CFD Toolbox           |
|  \\    /   O peration     | Version:  2306                                  |
|   \\  /    A nd           | Website:  www.openfoam.com                      |
|    \\/     M anipulation  |                                                 |
\*---------------------------------------------------------------------------*/
FoamFile
{
    version     2.0;
    format      ascii;
    arch        "LSB;label=32;scalar=64";
    class       volScalarField;
    location    "1600";
    object      k;
}
// * * * * * * * * * * * * * * * * * * * * * * * * * * * * * * * * * * * * * //

dimensions      [0 2 -2 0 0 0 0];

internalField   nonuniform List<scalar> 
20540
(
63.4923
151.64
63.4776
151.627
63.4025
151.565
63.2674
151.454
63.0607
151.284
62.768
151.041
62.3721
150.711
61.8527
150.275
61.1853
149.711
60.341
148.989
59.2856
148.077
57.9789
146.93
56.3746
145.495
54.4202
143.704
52.0585
141.471
49.2311
138.684
45.8863
135.197
41.9955
130.816
37.5868
125.275
32.7207
118.285
27.5211
109.536
22.2156
98.7247
17.1726
85.6314
12.91
70.2617
9.93591
53.0244
8.32947
34.9793
7.6224
19.1669
7.25377
10.4731
6.92722
7.48454
6.6913
6.5983
6.60433
6.29857
6.57992
6.1988
6.57981
6.20165
6.60499
6.30893
6.6946
6.62012
6.93014
7.49996
7.25385
10.4589
7.63153
19.0125
8.37065
34.5927
10.0444
52.5655
13.1295
69.8513
17.5505
85.314
22.8065
98.5292
28.383
109.466
33.9042
118.322
39.1278
125.392
43.9098
130.985
48.1415
135.431
51.797
138.988
54.9057
141.848
57.5201
144.153
59.7
146.014
61.5044
147.517
62.9879
148.729
64.1989
149.704
65.1798
150.483
65.967
151.103
66.5912
151.59
67.0787
151.968
67.4514
152.255
67.7279
152.468
67.9237
152.617
68.0519
152.715
68.1235
152.77
68.1475
152.788
35.7064
23.4887
21.112
19.844
19.0184
18.4557
18.0515
17.7452
17.5065
17.3165
17.1624
17.0354
16.9296
16.8405
16.7649
16.7001
16.6445
16.5962
16.5543
16.5176
16.4854
16.457
16.4318
16.4095
16.3896
16.3718
16.3558
16.3414
16.3284
16.3166
16.306
16.2963
16.2875
16.2795
16.2722
16.2655
16.2595
16.2539
16.2491
16.2446
16.2408
16.2375
16.2348
16.2327
16.2315
16.2309
16.2312
16.2325
16.2351
16.2388
16.2441
16.2511
16.26
16.271
16.2846
16.3009
16.3205
16.3434
16.3705
16.4017
16.4383
16.48
16.5286
16.5748
16.6149
16.6572
16.7023
16.7501
16.8007
16.8541
16.9105
16.9701
17.0327
17.0987
17.1686
17.2418
17.3206
17.4013
17.4926
17.5804
17.6926
17.7827
17.9396
18.0179
18.256
18.3659
18.67
18.9766
32.3436
18.8618
16.561
15.3932
14.6554
14.1565
13.8006
13.5325
13.3243
13.159
13.0251
12.915
12.8234
12.7463
12.681
12.625
12.577
12.5354
12.4993
12.4676
12.4399
12.4155
12.3938
12.3746
12.3575
12.3422
12.3284
12.316
12.3049
12.2948
12.2857
12.2773
12.2698
12.2628
12.2566
12.2508
12.2456
12.2408
12.2366
12.2326
12.2293
12.2263
12.2239
12.2218
12.2205
12.2196
12.2194
12.22
12.2214
12.2238
12.2273
12.2319
12.2381
12.2457
12.2552
12.2666
12.2803
12.2965
12.3156
12.3376
12.3634
12.3927
12.4269
12.4593
12.4874
12.5171
12.5486
12.5818
12.6168
12.6538
12.6924
12.7333
12.7757
12.8206
12.8672
12.9164
12.9678
13.0215
13.0791
13.1371
13.2044
13.2635
13.3536
13.4009
13.5354
13.5752
13.7713
13.8313
37.138
21.4477
18.8481
17.5583
16.7527
16.2084
15.8201
15.5278
15.3007
15.1203
14.9742
14.8539
14.7539
14.6697
14.5983
14.5372
14.4847
14.4391
14.3996
14.3651
14.3347
14.308
14.2843
14.2633
14.2446
14.2278
14.2128
14.1992
14.187
14.176
14.166
14.1568
14.1486
14.141
14.1341
14.1278
14.1221
14.1168
14.1122
14.1078
14.1041
14.1008
14.098
14.0957
14.0941
14.0929
14.0925
14.0929
14.0941
14.0963
14.0996
14.1041
14.1101
14.1175
14.1269
14.1382
14.1518
14.1678
14.1867
14.2085
14.234
14.2631
14.2969
14.3289
14.3566
14.3859
14.4168
14.4494
14.4836
14.5197
14.5572
14.5969
14.6378
14.6812
14.7257
14.7729
14.8212
14.8724
14.9252
14.9805
15.04
15.0963
15.1738
15.2162
15.3336
15.347
15.5683
15.2789
40.9802
23.0701
20.1952
18.8233
17.9841
17.4206
17.0197
16.7186
16.485
16.2994
16.1492
16.0256
15.9227
15.8362
15.7628
15.7
15.6461
15.5993
15.5587
15.5232
15.4921
15.4646
15.4403
15.4187
15.3994
15.3822
15.3667
15.3528
15.3403
15.3289
15.3187
15.3093
15.3008
15.293
15.2859
15.2794
15.2736
15.2681
15.2633
15.2588
15.255
15.2515
15.2486
15.2461
15.2442
15.2429
15.2423
15.2423
15.2433
15.2451
15.248
15.252
15.2574
15.2641
15.2727
15.283
15.2956
15.3103
15.3278
15.3478
15.3714
15.3982
15.4293
15.4587
15.4841
15.511
15.5393
15.569
15.6002
15.633
15.667
15.7029
15.7395
15.7786
15.818
15.8603
15.9023
15.9482
15.9928
16.0423
16.0906
16.1411
16.2028
16.2376
16.3353
16.3203
16.5735
15.9813
44.378
24.2382
21.0248
19.56
18.6897
18.1117
17.7028
17.3971
17.1602
16.9724
16.8204
16.6955
16.5917
16.5042
16.4302
16.3668
16.3124
16.2651
16.2242
16.1884
16.157
16.1293
16.1047
16.0829
16.0636
16.0462
16.0306
16.0166
16.004
15.9925
15.9821
15.9727
15.9641
15.9562
15.9491
15.9425
15.9366
15.9311
15.9262
15.9217
15.9177
15.9141
15.9111
15.9085
15.9065
15.9049
15.9041
15.9038
15.9044
15.9058
15.9081
15.9115
15.9161
15.922
15.9295
15.9385
15.9496
15.9626
15.9781
15.9958
16.0167
16.0403
16.0678
16.0937
16.1161
16.1398
16.1647
16.1907
16.2179
16.2465
16.2759
16.3071
16.3385
16.3722
16.4055
16.4419
16.4766
16.516
16.5515
16.5943
16.6307
16.6744
16.72
16.7466
16.8244
16.7871
17.0457
16.3306
47.5579
25.2592
21.6247
20.0397
19.1307
18.5369
18.1206
17.8112
17.5725
17.3836
17.231
17.1057
17.0016
16.9141
16.8399
16.7765
16.7221
16.6749
16.634
16.5982
16.5668
16.5391
16.5146
16.4928
16.4735
16.4561
16.4406
16.4266
16.414
16.4025
16.3922
16.3828
16.3742
16.3663
16.3592
16.3526
16.3467
16.3412
16.3363
16.3317
16.3277
16.324
16.321
16.3182
16.316
16.3143
16.3132
16.3126
16.3128
16.3137
16.3155
16.3181
16.3219
16.3267
16.3331
16.3407
16.3501
16.3611
16.3743
16.3894
16.4073
16.4274
16.4509
16.473
16.492
16.5121
16.5332
16.5552
16.5781
16.6021
16.6267
16.6528
16.6786
16.7067
16.7336
16.7638
16.7909
16.8238
16.8502
16.886
16.9111
16.9477
16.9787
16.9975
17.056
17.0085
17.2281
16.5858
50.6072
26.2714
22.1312
20.3887
19.4267
18.8119
18.3864
18.0731
17.8328
17.6432
17.4906
17.3654
17.2616
17.1744
17.1006
17.0375
16.9834
16.9365
16.8959
16.8603
16.8292
16.8017
16.7775
16.7559
16.7367
16.7195
16.7041
16.6902
16.6777
16.6664
16.6561
16.6468
16.6383
16.6305
16.6234
16.6169
16.611
16.6055
16.6006
16.596
16.5921
16.5883
16.5852
16.5823
16.58
16.5781
16.5767
16.5758
16.5757
16.576
16.5772
16.5791
16.582
16.5858
16.5908
16.597
16.6047
16.6136
16.6245
16.6368
16.6515
16.6679
16.6872
16.7053
16.7209
16.7374
16.7545
16.7724
16.7909
16.8103
16.8298
16.8508
16.871
16.8936
16.9141
16.9383
16.9581
16.9844
17.0025
17.0312
17.0467
17.0755
17.0938
17.1063
17.1454
17.1006
17.2492
16.7768
53.5652
27.3425
22.6194
20.6754
19.6398
18.9954
18.5569
18.238
17.9955
17.8052
17.6526
17.5279
17.4247
17.3381
17.265
17.2025
17.1491
17.1026
17.0626
17.0275
16.9968
16.9697
16.9458
16.9245
16.9056
16.8887
16.8735
16.8599
16.8476
16.8364
16.8264
16.8171
16.8088
16.8011
16.7942
16.7877
16.7819
16.7765
16.7717
16.7671
16.7632
16.7594
16.7562
16.7533
16.7509
16.7487
16.7472
16.7459
16.7454
16.7453
16.7459
16.747
16.7491
16.7517
16.7555
16.7601
16.7661
16.773
16.7814
16.791
16.8024
16.8152
16.8303
16.8445
16.8565
16.8694
16.8826
16.8964
16.9106
16.9254
16.9402
16.9562
16.971
16.9881
17.0027
17.021
17.0342
17.054
17.065
17.0862
17.0946
17.1149
17.123
17.1307
17.1511
17.1173
17.1876
16.8784
56.4507
28.507
23.1363
20.9435
19.8085
19.1218
18.6639
18.3364
18.0902
17.8986
17.7459
17.6216
17.5191
17.4334
17.3611
17.2995
17.2469
17.2012
17.1619
17.1275
17.0974
17.0709
17.0474
17.0266
17.0081
16.9916
16.9768
16.9635
16.9515
16.9406
16.9307
16.9217
16.9136
16.9061
16.8993
16.893
16.8874
16.882
16.8773
16.8728
16.8689
16.8651
16.862
16.8589
16.8565
16.8542
16.8524
16.8509
16.85
16.8494
16.8495
16.8499
16.851
16.8526
16.8552
16.8583
16.8625
16.8674
16.8735
16.8804
16.8887
16.8979
16.9089
16.9192
16.9279
16.9372
16.9468
16.9566
16.9666
16.9772
16.9874
16.9987
17.0085
17.0206
17.0298
17.0424
17.05
17.0635
17.069
17.0824
17.0854
17.0976
17.0978
17.1017
17.1052
17.0843
17.0938
16.8996
59.2706
29.7824
23.7133
21.2252
19.9603
19.2144
18.7282
18.3872
18.1346
17.9403
17.7868
17.6627
17.5608
17.476
17.4047
17.3442
17.2925
17.2478
17.2094
17.1758
17.1465
17.1207
17.0979
17.0777
17.0598
17.0438
17.0294
17.0165
17.0049
16.9943
16.9848
16.9761
16.9683
16.961
16.9545
16.9483
16.9429
16.9377
16.9331
16.9287
16.9249
16.9212
16.918
16.915
16.9125
16.9101
16.9081
16.9064
16.9052
16.9041
16.9037
16.9034
16.9038
16.9043
16.9058
16.9075
16.91
16.913
16.9168
16.9211
16.9265
16.9323
16.9394
16.9461
16.9517
16.9577
16.9637
16.9699
16.9762
16.9827
16.9888
16.9958
17.0012
17.0085
17.0131
17.0204
17.0235
17.0307
17.0319
17.0382
17.0369
17.0418
17.0364
17.037
17.0286
17.0166
16.9934
16.8653
62.0232
31.1763
24.3718
21.5456
20.1178
19.2921
18.7654
18.4037
18.1407
17.9413
17.7855
17.6608
17.5592
17.4751
17.4048
17.3454
17.2949
17.2513
17.2139
17.1813
17.153
17.128
17.1061
17.0866
17.0694
17.054
17.0402
17.0278
17.0167
17.0066
16.9975
16.9891
16.9816
16.9747
16.9684
16.9626
16.9574
16.9524
16.948
16.9437
16.9401
16.9364
16.9334
16.9304
16.9279
16.9254
16.9233
16.9213
16.9198
16.9184
16.9175
16.9166
16.9163
16.9159
16.9163
16.9167
16.9178
16.919
16.9207
16.9226
16.9253
16.928
16.9315
16.9349
16.9377
16.9407
16.9435
16.9464
16.9493
16.9523
16.9547
16.9578
16.9594
16.9625
16.9632
16.9656
16.9651
16.9667
16.9643
16.9652
16.96
16.9597
16.9496
16.9468
16.9287
16.9195
16.8874
16.7896
64.6989
32.6906
25.1255
21.925
20.3009
19.3717
18.7891
18.397
18.1175
17.9093
17.749
17.6222
17.5201
17.4362
17.3667
17.3082
17.2588
17.2164
17.1802
17.1487
17.1215
17.0975
17.0765
17.0579
17.0415
17.0269
17.0138
17.0021
16.9916
16.982
16.9734
16.9656
16.9585
16.9519
16.946
16.9405
16.9356
16.9309
16.9268
16.9227
16.9192
16.9158
16.9128
16.9099
16.9074
16.9049
16.9028
16.9006
16.899
16.8972
16.8959
16.8945
16.8935
16.8924
16.8918
16.8911
16.8908
16.8904
16.8903
16.8901
16.8904
16.8904
16.8907
16.8912
16.8915
16.8919
16.892
16.8919
16.8919
16.8917
16.8912
16.8908
16.8893
16.8887
16.8862
16.8849
16.881
16.8789
16.8727
16.87
16.8606
16.8569
16.8424
16.8368
16.8127
16.8019
16.7683
16.6876
67.2793
34.323
25.982
22.3791
20.5276
19.4693
18.8126
18.3777
18.0736
17.8511
17.6827
17.5516
17.4473
17.3627
17.2934
17.2355
17.187
17.1456
17.1107
17.0803
17.0542
17.0314
17.0115
16.9939
16.9784
16.9647
16.9524
16.9415
16.9316
16.9227
16.9148
16.9075
16.9009
16.8948
16.8894
16.8842
16.8797
16.8753
16.8715
16.8677
16.8645
16.8612
16.8585
16.8557
16.8533
16.8508
16.8487
16.8465
16.8447
16.8427
16.8411
16.8393
16.8378
16.836
16.8347
16.833
16.8316
16.8298
16.8283
16.8262
16.8245
16.8221
16.8198
16.8178
16.816
16.8141
16.8119
16.8097
16.807
16.8046
16.801
16.7984
16.7937
16.7907
16.7849
16.7813
16.7739
16.7696
16.7599
16.7548
16.7419
16.7357
16.7178
16.7095
16.6823
16.6682
16.6341
16.5661
69.7364
36.0667
26.9445
22.9185
20.813
19.6006
18.8497
18.3571
18.0177
17.7735
17.592
17.453
17.3442
17.2572
17.1868
17.1287
17.0807
17.04
17.0061
16.9768
16.9518
16.9301
16.9113
16.8948
16.8803
16.8676
16.8562
16.8461
16.8371
16.829
16.8217
16.815
16.8091
16.8035
16.7987
16.794
16.79
16.786
16.7826
16.7791
16.7762
16.7732
16.7707
16.768
16.7658
16.7634
16.7614
16.7592
16.7574
16.7552
16.7535
16.7513
16.7495
16.7472
16.7452
16.7427
16.7405
16.7376
16.7349
16.7314
16.728
16.7237
16.7192
16.7152
16.7117
16.7081
16.7041
16.7001
16.6952
16.691
16.6851
16.6807
16.6735
16.6688
16.6603
16.6551
16.6449
16.6389
16.6266
16.6197
16.6042
16.596
16.5758
16.5651
16.5362
16.519
16.4808
16.4279
72.0293
37.9094
28.012
23.5494
21.1693
19.7798
18.9141
18.3473
17.9597
17.6846
17.4829
17.331
17.214
17.122
17.0486
16.989
16.9404
16.8998
16.8663
16.8377
16.8137
16.793
16.7752
16.7597
16.7463
16.7346
16.7242
16.715
16.7069
16.6995
16.6931
16.6871
16.6818
16.6769
16.6727
16.6685
16.665
16.6615
16.6585
16.6555
16.653
16.6502
16.6481
16.6457
16.6437
16.6415
16.6396
16.6375
16.6357
16.6335
16.6317
16.6293
16.6273
16.6247
16.6223
16.6193
16.6163
16.6127
16.609
16.6044
16.5998
16.5941
16.588
16.5824
16.5776
16.5727
16.5673
16.5619
16.5555
16.5499
16.5424
16.5365
16.5276
16.5215
16.5111
16.5046
16.4924
16.4852
16.4709
16.4626
16.4454
16.4356
16.4138
16.4011
16.3711
16.3517
16.3081
16.27
74.1026
39.8305
29.1793
24.2734
21.6041
20.0186
19.0191
18.3607
17.9109
17.5933
17.3628
17.1913
17.0611
16.9602
16.881
16.8177
16.7669
16.725
16.6911
16.6625
16.6389
16.6188
16.6018
16.5871
16.5746
16.5638
16.5543
16.546
16.5387
16.5322
16.5266
16.5214
16.5168
16.5126
16.509
16.5055
16.5025
16.4995
16.4971
16.4944
16.4924
16.49
16.4883
16.4862
16.4845
16.4825
16.4809
16.4789
16.4772
16.4751
16.4733
16.4709
16.4688
16.466
16.4634
16.46
16.4567
16.4524
16.4482
16.4429
16.4374
16.4307
16.4234
16.4168
16.4111
16.4053
16.3989
16.3926
16.3851
16.3785
16.3698
16.3629
16.3529
16.3457
16.334
16.3265
16.313
16.3049
16.2892
16.2799
16.2614
16.2504
16.2274
16.2132
16.1825
16.1617
16.114
16.0883
75.8808
41.797
30.4364
25.0875
22.1204
20.3251
19.1756
18.4096
17.8828
17.5104
17.2408
17.0413
16.8913
16.7763
16.6872
16.617
16.5614
16.5163
16.4804
16.4506
16.4264
16.4061
16.3893
16.375
16.363
16.3528
16.344
16.3365
16.33
16.3242
16.3193
16.3148
16.311
16.3074
16.3044
16.3015
16.2991
16.2967
16.2947
16.2926
16.291
16.2891
16.2877
16.286
16.2846
16.2829
16.2816
16.2798
16.2784
16.2764
16.2747
16.2724
16.2703
16.2675
16.2648
16.2612
16.2577
16.2532
16.2486
16.2428
16.2368
16.2295
16.2216
16.2143
16.2081
16.2017
16.1946
16.1877
16.1796
16.1722
16.163
16.1552
16.1446
16.1365
16.1243
16.1158
16.1016
16.0927
16.0761
16.0661
16.0466
16.0346
16.0108
15.9955
15.9643
15.9428
15.893
15.8772
77.2601
43.7577
31.7658
25.9834
22.7159
20.7024
19.3908
18.5036
17.8864
17.4465
17.1266
16.8898
16.712
16.5764
16.472
16.3905
16.3266
16.2754
16.2351
16.2022
16.1759
16.1541
16.1364
16.1216
16.1095
16.0993
16.0908
16.0835
16.0775
16.0722
16.0678
16.0638
16.0606
16.0575
16.0551
16.0527
16.0509
16.0489
16.0475
16.0458
16.0446
16.0431
16.0421
16.0407
16.0398
16.0384
16.0374
16.0359
16.0346
16.0329
16.0314
16.0292
16.0273
16.0245
16.0219
16.0183
16.0148
16.0102
16.0054
15.9995
15.9932
15.9856
15.9774
15.9697
15.9632
15.9564
15.9491
15.9417
15.9334
15.9255
15.916
15.9076
15.8968
15.8879
15.8755
15.8662
15.8518
15.8419
15.8251
15.8142
15.7941
15.7814
15.7569
15.7408
15.7095
15.6878
15.6376
15.6298
78.0945
45.6405
33.1393
26.9458
23.382
21.1474
19.6668
18.6487
17.9299
17.4112
17.0303
16.7463
16.532
16.3682
16.242
16.1437
16.0668
16.0057
15.9577
15.9189
15.8881
15.8629
15.8427
15.826
15.8125
15.8014
15.7923
15.7846
15.7784
15.773
15.7687
15.7649
15.7619
15.7591
15.757
15.7549
15.7534
15.7518
15.7507
15.7493
15.7485
15.7473
15.7467
15.7456
15.7449
15.7438
15.7431
15.7418
15.7409
15.7393
15.738
15.736
15.7342
15.7316
15.7291
15.7256
15.7222
15.7176
15.7129
15.7069
15.7006
15.6929
15.6845
15.6767
15.6701
15.6632
15.6557
15.6481
15.6397
15.6315
15.6219
15.613
15.6022
15.5927
15.5804
15.5702
15.5559
15.5449
15.5282
15.5161
15.4961
15.4824
15.4577
15.4412
15.4101
15.3884
15.3395
15.3379
78.1843
47.3502
34.5117
27.9489
24.1021
21.6498
19.9985
18.8445
18.0167
17.4105
16.9595
16.6192
16.3599
16.1599
16.005
15.8834
15.7881
15.7121
15.6523
15.6039
15.5656
15.5342
15.5091
15.4886
15.472
15.4584
15.4473
15.4381
15.4307
15.4243
15.4193
15.415
15.4116
15.4085
15.4062
15.404
15.4025
15.4009
15.3998
15.3986
15.3978
15.3968
15.3963
15.3953
15.3948
15.3939
15.3933
15.3922
15.3914
15.39
15.3888
15.387
15.3853
15.3828
15.3804
15.3771
15.3736
15.3692
15.3645
15.3586
15.3522
15.3446
15.3362
15.3283
15.3217
15.3147
15.3072
15.2995
15.291
15.2825
15.273
15.2637
15.253
15.2429
15.2306
15.2196
15.2056
15.1935
15.1772
15.1637
15.1442
15.1291
15.105
15.0875
15.0579
15.0354
14.9913
14.9923
77.2524
48.7586
35.8127
28.9501
24.8469
22.1889
20.3716
19.0822
18.1429
17.4444
16.917
16.5135
16.2019
15.9587
15.768
15.617
15.4973
15.4011
15.3245
15.2623
15.2124
15.1715
15.1384
15.1113
15.0891
15.0709
15.056
15.0435
15.0334
15.0248
15.0179
15.0119
15.0072
15.003
14.9997
14.9968
14.9946
14.9924
14.9909
14.9892
14.9882
14.9869
14.9861
14.985
14.9843
14.9833
14.9826
14.9815
14.9806
14.9792
14.978
14.9762
14.9744
14.972
14.9695
14.9662
14.9628
14.9583
14.9536
14.9477
14.9413
14.9337
14.9251
14.9172
14.9106
14.9036
14.896
14.8882
14.8797
14.8709
14.8614
14.8517
14.8409
14.8303
14.8181
14.8064
14.7925
14.7794
14.7633
14.7487
14.7297
14.7134
14.6903
14.6721
14.644
14.6226
14.5825
14.5854
74.9319
49.6873
36.9319
29.8794
25.5682
22.7289
20.7592
19.3417
18.294
17.5034
16.8976
16.4273
16.0588
15.7672
15.5353
15.3492
15.1997
15.0781
14.9799
14.8992
14.8336
14.7792
14.7347
14.6976
14.667
14.6415
14.6202
14.6023
14.5875
14.5747
14.5642
14.5552
14.5477
14.5412
14.5358
14.531
14.5271
14.5235
14.5207
14.518
14.5159
14.5138
14.5122
14.5104
14.5091
14.5075
14.5063
14.5047
14.5034
14.5017
14.5001
14.4981
14.496
14.4934
14.4906
14.4872
14.4834
14.4789
14.4738
14.4679
14.4612
14.4534
14.4446
14.4365
14.4298
14.4226
14.4149
14.4068
14.3982
14.3892
14.3795
14.3694
14.3585
14.3474
14.3351
14.3227
14.3088
14.2949
14.279
14.2635
14.2449
14.2279
14.2058
14.1874
14.161
14.1414
14.1048
14.1092
70.7578
49.895
37.6968
30.6233
26.1863
23.2101
21.1146
19.5859
18.4406
17.5645
16.8837
16.3477
15.9216
15.5797
15.3038
15.0792
14.896
14.7451
14.6211
14.518
14.4327
14.3611
14.3014
14.2511
14.2088
14.173
14.1427
14.1167
14.0948
14.0757
14.0596
14.0455
14.0336
14.023
14.0141
14.006
13.9993
13.9931
13.9879
13.983
13.979
13.9751
13.9718
13.9687
13.9659
13.9632
13.9608
13.9583
13.9559
13.9534
13.951
13.9482
13.9455
13.9422
13.9388
13.9348
13.9304
13.9254
13.9198
13.9134
13.9061
13.8979
13.8885
13.8801
13.8731
13.8656
13.8577
13.8492
13.8403
13.8309
13.8209
13.8104
13.7993
13.7876
13.7751
13.7622
13.7481
13.7337
13.7178
13.7019
13.6838
13.6665
13.6456
13.6275
13.603
13.5852
13.552
13.5573
64.1796
49.0668
37.8461
31.0003
26.5708
23.534
21.3605
19.7523
18.5313
17.5849
16.8399
16.2455
15.7666
15.3771
15.0583
14.7952
14.5774
14.3956
14.2437
14.1157
14.008
13.9164
13.8388
13.7724
13.7156
13.6667
13.6247
13.5882
13.5567
13.529
13.5051
13.484
13.4656
13.4492
13.4349
13.4221
13.4108
13.4006
13.3917
13.3834
13.3762
13.3695
13.3636
13.358
13.353
13.3482
13.3438
13.3395
13.3355
13.3314
13.3275
13.3234
13.3193
13.3149
13.3103
13.3053
13.2999
13.2939
13.2873
13.28
13.2719
13.2628
13.2525
13.2435
13.2359
13.2279
13.2195
13.2106
13.2013
13.1914
13.181
13.17
13.1585
13.1464
13.1335
13.1202
13.106
13.0913
13.0755
13.0596
13.042
13.025
13.0054
12.9881
12.9657
12.9498
12.9199
12.9254
54.9504
46.4747
36.9723
30.731
26.5178
23.5441
21.3721
19.7388
18.4807
17.4924
16.7043
16.0676
15.5481
15.12
14.7651
14.4683
14.2192
14.0085
13.8299
13.6773
13.547
13.4347
13.338
13.2541
13.1812
13.1177
13.0622
13.0133
12.9704
12.9323
12.8987
12.8688
12.8422
12.8183
12.7971
12.7778
12.7606
12.745
12.7309
12.718
12.7064
12.6957
12.686
12.6769
12.6686
12.6608
12.6536
12.6466
12.64
12.6336
12.6274
12.6213
12.6152
12.609
12.6026
12.596
12.589
12.5815
12.5735
12.5648
12.5553
12.5449
12.5333
12.5233
12.5151
12.5064
12.4974
12.4879
12.4779
12.4675
12.4566
12.4451
12.4332
12.4207
12.4076
12.394
12.3798
12.3651
12.3497
12.334
12.3174
12.301
12.2829
12.2667
12.2465
12.2329
12.2054
12.211
43.7045
40.7309
34.4994
29.3977
25.7137
22.9958
20.9534
19.3839
18.1529
17.1706
16.3762
15.7259
15.1883
14.7398
14.3631
14.0442
13.773
13.5407
13.3411
13.1685
13.0189
12.8884
12.7744
12.6743
12.5862
12.5083
12.4392
12.3777
12.323
12.2739
12.23
12.1904
12.1547
12.1224
12.0932
12.0666
12.0425
12.0204
12.0003
11.9817
11.9648
11.9491
11.9346
11.9212
11.9087
11.897
11.8861
11.8758
11.8659
11.8565
11.8474
11.8386
11.8299
11.8212
11.8125
11.8037
11.7946
11.7851
11.7752
11.7647
11.7534
11.7412
11.728
11.7169
11.7078
11.6984
11.6886
11.6784
11.6678
11.6568
11.6454
11.6336
11.6213
11.6086
11.5954
11.5819
11.5679
11.5535
11.5387
11.5238
11.5082
11.4929
11.4766
11.4617
11.4439
11.4317
11.408
11.4129
30.2443
31.7945
29.774
26.4518
23.7233
21.5379
19.8171
18.4473
17.3428
16.4423
15.7006
15.0833
14.5653
14.127
13.7537
13.4335
13.1575
12.9181
12.7097
12.5272
12.3669
12.2254
12.1002
11.9889
11.8897
11.8009
11.7213
11.6495
11.5849
11.5264
11.4733
11.425
11.3811
11.3409
11.3042
11.2705
11.2395
11.211
11.1848
11.1605
11.1381
11.1172
11.0979
11.0798
11.0629
11.0471
11.0322
11.0181
11.0047
10.9919
10.9797
10.9678
10.9562
10.9448
10.9335
10.9221
10.9107
10.899
10.8868
10.8743
10.861
10.8471
10.8321
10.8198
10.8099
10.7996
10.7891
10.7783
10.7673
10.7558
10.7441
10.7321
10.7198
10.7071
10.6942
10.6811
10.6676
10.654
10.6402
10.6263
10.6122
10.5983
10.5839
10.5706
10.5553
10.5445
10.5243
10.5285
16.3224
21.1865
21.9758
21.3824
20.0739
18.7519
17.6049
16.6174
15.7778
15.0671
14.4639
13.9486
13.5066
13.1251
12.7941
12.5054
12.2525
12.0298
11.833
11.6583
11.5027
11.3636
11.2387
11.1264
11.025
10.9331
10.8498
10.7739
10.7047
10.6415
10.5835
10.5302
10.4813
10.4361
10.3945
10.356
10.3204
10.2873
10.2566
10.2281
10.2015
10.1766
10.1534
10.1317
10.1112
10.092
10.0738
10.0566
10.0402
10.0246
10.0096
9.99506
9.98099
9.96721
9.95363
9.94014
9.92662
9.91297
9.89904
9.88475
9.86992
9.85447
9.83817
9.82501
9.81456
9.8039
9.79306
9.78204
9.77084
9.75945
9.74789
9.73615
9.72426
9.71222
9.70007
9.68782
9.67549
9.66314
9.65076
9.63845
9.62611
9.61406
9.60176
9.59038
9.57762
9.56854
9.5517
9.5551
8.78628
11.5834
13.5298
14.5338
14.6013
14.4442
14.0896
13.6474
13.2149
12.816
12.4518
12.1222
11.8267
11.5617
11.324
11.1106
10.9189
10.7461
10.59
10.4487
10.3204
10.2037
10.0972
9.99974
9.91047
9.82846
9.75304
9.6835
9.61934
9.55996
9.50496
9.4539
9.40648
9.36235
9.32129
9.283
9.24731
9.21394
9.18277
9.15355
9.12618
9.10045
9.07628
9.05349
9.03199
9.01165
8.99239
8.97406
8.9566
8.93988
8.92383
8.90831
8.89327
8.87855
8.86412
8.8498
8.83555
8.82122
8.80673
8.79196
8.77679
8.76113
8.74481
8.73189
8.72177
8.71154
8.70124
8.69089
8.68047
8.67
8.65949
8.64894
8.63838
8.62782
8.61728
8.60678
8.59634
8.586
8.57576
8.56568
8.5557
8.54601
8.53629
8.52726
8.51737
8.51029
8.49698
8.49957
6.69909
7.1415
7.95805
8.7438
9.2817
9.61477
9.80924
9.86222
9.84682
9.80354
9.72193
9.62504
9.52349
9.41905
9.31599
9.2164
9.12122
9.03051
8.94453
8.86329
8.78667
8.71444
8.6465
8.58263
8.5226
8.46615
8.41314
8.36332
8.31651
8.27243
8.23093
8.19182
8.155
8.12031
8.08768
8.05694
8.02801
8.00073
7.97503
7.95074
7.92782
7.90613
7.8856
7.86612
7.84765
7.83006
7.81334
7.79734
7.78206
7.76736
7.75323
7.73952
7.72624
7.71321
7.70045
7.68778
7.67523
7.66261
7.64993
7.63705
7.6239
7.61041
7.59647
7.58578
7.57754
7.56929
7.56106
7.55288
7.54474
7.53665
7.52861
7.52063
7.51274
7.50494
7.49726
7.48969
7.48226
7.47498
7.46786
7.46092
7.45413
7.44756
7.44106
7.435
7.42855
7.42369
7.41456
7.41635
6.11884
6.12037
6.20024
6.39092
6.63076
6.84648
7.03417
7.18609
7.2959
7.37961
7.43741
7.47349
7.49601
7.49585
7.49379
7.4841
7.47094
7.45178
7.42965
7.40457
7.3779
7.35032
7.32258
7.29498
7.26755
7.2405
7.21404
7.18822
7.16312
7.13869
7.11501
7.09207
7.06999
7.04878
7.02851
7.00912
6.99066
6.97302
6.95623
6.94017
6.92487
6.91022
6.89625
6.88286
6.87008
6.85781
6.84608
6.83478
6.82396
6.81348
6.80341
6.79357
6.78409
6.77469
6.76561
6.75645
6.74756
6.73846
6.72957
6.72039
6.71126
6.70189
6.69236
6.68557
6.68055
6.67558
6.67069
6.66587
6.6611
6.65637
6.65172
6.64717
6.64271
6.6384
6.63421
6.63019
6.62629
6.62258
6.61901
6.6156
6.6124
6.60941
6.60664
6.60403
6.6017
6.59906
6.59493
6.59634
5.97177
5.8404
5.75218
5.75965
5.79877
5.88126
5.98395
6.09161
6.19278
6.28269
6.36299
6.42839
6.48479
6.52835
6.56022
6.58643
6.60305
6.61704
6.62397
6.62042
6.61889
6.61455
6.6091
6.60222
6.59336
6.58325
6.57229
6.56066
6.54851
6.5359
6.52303
6.51
6.49705
6.48425
6.47178
6.45962
6.44787
6.43647
6.42549
6.41483
6.40459
6.39466
6.38515
6.37593
6.36713
6.35861
6.35052
6.34268
6.33527
6.32809
6.32134
6.31477
6.30866
6.30261
6.2971
6.29149
6.28657
6.28131
6.27699
6.27207
6.26817
6.26369
6.25986
6.2578
6.25674
6.25563
6.25448
6.25331
6.25212
6.25072
6.24935
6.24799
6.24667
6.24548
6.24436
6.2432
6.242
6.24025
6.23908
6.2368
6.23687
6.23727
6.23823
6.23959
6.24129
6.24304
6.24522
6.24626
5.97576
5.84424
5.75989
5.77073
5.81593
5.90806
6.018
6.13278
6.24018
6.33494
6.41976
6.48788
6.54737
6.59246
6.6256
6.65241
6.6695
6.68363
6.69039
6.68627
6.68503
6.68003
6.67446
6.66617
6.65652
6.64578
6.63419
6.62189
6.60904
6.59573
6.58216
6.56843
6.5548
6.54133
6.52821
6.51541
6.50305
6.49104
6.4795
6.46831
6.45758
6.44719
6.43727
6.42767
6.41859
6.40981
6.40156
6.39363
6.38622
6.37915
6.37262
6.3664
6.36078
6.35541
6.35069
6.34623
6.34239
6.33881
6.33621
6.33324
6.3315
6.32905
6.32733
6.32631
6.32477
6.32371
6.3215
6.32265
6.32434
6.32563
6.32743
6.33009
6.33326
6.33664
6.34006
6.34344
6.34676
6.35004
6.35332
6.35659
6.35993
6.36332
6.36679
6.37026
6.37383
6.37719
6.38108
6.38315
6.13328
6.13909
6.23434
6.45242
6.72211
6.96631
7.17693
7.34863
7.47208
7.56531
7.63076
7.66965
7.69708
7.69669
7.69254
7.68493
7.66876
7.64793
7.62378
7.59635
7.56731
7.53731
7.50696
7.47656
7.44645
7.41686
7.38792
7.35969
7.3322
7.30546
7.27953
7.25442
7.23026
7.20701
7.1848
7.16353
7.14328
7.12392
7.10554
7.08796
7.0713
7.05538
7.04035
7.026
7.01247
6.99962
6.98755
6.97617
6.96552
6.9556
6.94639
6.9379
6.9302
6.9231
6.91699
6.91129
6.90683
6.90267
6.89975
6.89748
6.89575
6.89359
6.89236
6.88945
6.88899
6.89059
6.89363
6.89743
6.90167
6.90612
6.91066
6.91525
6.91987
6.92451
6.92919
6.93391
6.93868
6.9435
6.94837
6.95327
6.95819
6.9631
6.96802
6.97284
6.97772
6.98219
6.9875
6.98983
6.73026
7.20112
8.10173
8.951
9.54475
9.91028
10.1222
10.1853
10.1703
10.1258
10.0406
9.93796
9.83095
9.7203
9.61077
9.50497
9.40347
9.30672
9.21495
9.12819
9.04619
8.96887
8.89595
8.82729
8.76264
8.70184
8.64465
8.59086
8.54022
8.4925
8.44753
8.40508
8.3651
8.32736
8.29185
8.25832
8.2268
8.19701
8.169
8.14252
8.11764
8.0941
8.072
8.05113
8.03154
8.01312
7.99583
7.97973
7.96462
7.95072
7.93772
7.92596
7.91507
7.90539
7.8967
7.88897
7.88277
7.87676
7.873
7.87011
7.86642
7.86413
7.86171
7.85927
7.86031
7.86343
7.86759
7.87219
7.87705
7.88212
7.88734
7.89267
7.89805
7.90344
7.90883
7.91421
7.9196
7.92499
7.93039
7.93581
7.94123
7.94663
7.95202
7.9573
7.96266
7.96753
7.97335
7.97594
8.83109
11.7143
13.804
14.8555
14.9668
14.8123
14.4585
14.0103
13.5693
13.1609
12.7869
12.4473
12.142
11.8675
11.6206
11.3986
11.1984
11.0176
10.854
10.7055
10.5703
10.4471
10.3343
10.231
10.136
10.0486
9.96804
9.89364
9.82478
9.76096
9.70171
9.64659
9.59533
9.5475
9.50298
9.46133
9.42252
9.38614
9.35221
9.32034
9.29062
9.26267
9.23659
9.21209
9.18923
9.16783
9.14784
9.12929
9.11196
9.09607
9.08127
9.06791
9.05558
9.04468
9.03482
9.0263
9.01905
9.01282
9.00825
9.00443
9.00265
8.99992
8.99969
8.99722
8.99825
9.00082
9.00427
9.00834
9.01291
9.01786
9.0231
9.02853
9.03407
9.03967
9.04531
9.05095
9.05661
9.06226
9.06791
9.07353
9.07913
9.08466
9.09015
9.09548
9.1009
9.10572
9.11171
9.11388
16.3304
21.3809
22.3271
21.7576
20.4801
19.157
18.0012
17.0008
16.1464
15.4207
14.8028
14.2735
13.8179
13.4237
13.0805
12.7803
12.5165
12.2836
12.077
11.8932
11.7289
11.5816
11.4489
11.3292
11.2206
11.1221
11.0324
10.9506
10.8756
10.8069
10.7438
10.6856
10.632
10.5824
10.5366
10.494
10.4547
10.418
10.3841
10.3524
10.323
10.2954
10.2699
10.2461
10.2239
10.2033
10.1841
10.1664
10.1499
10.1349
10.121
10.1085
10.0971
10.0871
10.0781
10.0705
10.064
10.0589
10.0548
10.0523
10.0512
10.0488
10.0485
10.0475
10.0487
10.0518
10.0559
10.0605
10.0655
10.0707
10.0762
10.0817
10.0873
10.0929
10.0986
10.1043
10.11
10.1157
10.1214
10.127
10.1326
10.1381
10.1436
10.1489
10.1543
10.159
10.1652
10.1669
30.2013
32.0663
30.1891
26.9167
24.1947
21.9938
20.2513
18.8581
17.7303
16.8075
16.0448
15.408
14.8716
14.4164
14.0271
13.6921
13.4021
13.1498
12.929
12.7351
12.564
12.4124
12.2776
12.1573
12.0495
11.9527
11.8654
11.7866
11.7151
11.6502
11.591
11.5371
11.4877
11.4424
11.4009
11.3626
11.3274
11.2948
11.2649
11.2371
11.2115
11.1876
11.1656
11.1451
11.1263
11.1088
11.0927
11.0778
11.0642
11.0518
11.0405
11.0305
11.0213
11.0136
11.0066
11.0011
10.9966
10.9931
10.991
10.9891
10.9885
10.9867
10.9881
10.9907
10.9942
10.9982
11.0026
11.0075
11.0126
11.0179
11.0234
11.029
11.0347
11.0404
11.0462
11.052
11.0579
11.0636
11.0694
11.0751
11.0807
11.0862
11.0917
11.0969
11.1023
11.1069
11.1131
11.1149
43.7831
41.0818
35.0888
29.9746
26.2623
23.5069
21.4261
19.8206
18.556
17.5432
16.7207
16.045
15.4839
15.0141
14.6173
14.2803
13.9919
13.744
13.5295
13.3434
13.1809
13.0387
12.9135
12.8031
12.7051
12.6181
12.5405
12.4711
12.4087
12.3527
12.302
12.2563
12.2147
12.177
12.1426
12.1111
12.0825
12.0561
12.0321
12.0099
11.9896
11.9709
11.9537
11.9378
11.9233
11.9099
11.8977
11.8866
11.8765
11.8674
11.8592
11.8521
11.8458
11.8407
11.8362
11.8329
11.8305
11.8287
11.8283
11.8263
11.8276
11.8303
11.8338
11.8384
11.8426
11.8471
11.852
11.8572
11.8626
11.8682
11.8739
11.8797
11.8856
11.8915
11.8974
11.9034
11.9093
11.9151
11.9209
11.9266
11.9323
11.9378
11.9433
11.9485
11.954
11.9585
11.9647
11.9665
55.1537
47.0518
37.6899
31.4072
27.1334
24.0992
21.8723
20.1902
18.8887
17.8619
17.039
16.3714
15.8234
15.37
14.9914
14.6735
14.4045
14.176
13.9806
13.8129
13.6682
13.543
13.434
13.3391
13.2557
13.1826
13.1179
13.0608
13.01
12.9649
12.9245
12.8884
12.8559
12.8266
12.8002
12.7763
12.7547
12.735
12.7172
12.7008
12.686
12.6724
12.6601
12.6488
12.6386
12.6293
12.6209
12.6134
12.6066
12.6007
12.5955
12.5911
12.5874
12.5846
12.5823
12.581
12.5801
12.5788
12.5802
12.5825
12.5856
12.5897
12.5946
12.6002
12.605
12.6102
12.6156
12.6212
12.6269
12.6328
12.6387
12.6448
12.6508
12.6569
12.663
12.669
12.675
12.6809
12.6868
12.6925
12.6982
12.7037
12.7093
12.7144
12.72
12.7244
12.7307
12.7326
64.5045
49.9083
38.6862
31.7539
27.2333
24.1152
21.8719
20.2038
18.9306
17.9387
17.1531
16.523
16.0117
15.5934
15.2482
14.9618
14.7222
14.5212
14.3512
14.2073
14.0847
13.9797
13.8896
13.812
13.7447
13.6864
13.6355
13.5911
13.552
13.5177
13.4873
13.4605
13.4365
13.4153
13.3963
13.3792
13.364
13.3502
13.3379
13.3267
13.3167
13.3076
13.2995