/*--------------------------------*- C++ -*----------------------------------*\
| =========                 |                                                 |
| \\      /  F ield         | OpenFOAM: The Open Source CFD Toolbox           |
|  \\    /   O peration     | Version:  2306                                  |
|   \\  /    A nd           | Website:  www.openfoam.com                      |
|    \\/     M anipulation  |                                                 |
\*---------------------------------------------------------------------------*/
FoamFile
{
    version     2.0;
    format      ascii;
    arch        "LSB;label=32;scalar=64";
    class       volScalarField;
    location    "1600";
    object      nut;
}
// * * * * * * * * * * * * * * * * * * * * * * * * * * * * * * * * * * * * * //

dimensions      [0 2 -1 0 0 0 0];

internalField   nonuniform List<scalar> 
20540
(
0.014995
0.0403419
0.0149938
0.0403421
0.014983
0.0403365
0.0149643
0.0403265
0.014936
0.040311
0.0148959
0.0402884
0.0148415
0.0402566
0.0147698
0.0402129
0.0146771
0.0401539
0.0145592
0.0400746
0.0144107
0.0399687
0.0142256
0.0398271
0.0139966
0.039637
0.0137155
0.0393803
0.0133732
0.0390372
0.0129607
0.0385835
0.0124708
0.037988
0.0119025
0.0372081
0.0112689
0.0361768
0.0105612
0.0348459
0.00979723
0.0331367
0.00903915
0.0309465
0.00842692
0.028164
0.00824325
0.0246981
0.00891446
0.0205434
0.0106093
0.0158694
0.0126261
0.0116852
0.0139709
0.0105268
0.0145857
0.0126483
0.014899
0.0142122
0.0148109
0.014873
0.0147125
0.0149987
0.0147064
0.0149972
0.0147873
0.0148595
0.0148349
0.014165
0.0144998
0.0125169
0.0138615
0.01039
0.0124675
0.0114971
0.0104373
0.0155651
0.00878207
0.0201852
0.00816728
0.0243244
0.00839852
0.0277739
0.00905144
0.0305429
0.00984904
0.0327215
0.0106534
0.0344198
0.0114019
0.0357402
0.0120936
0.0367404
0.0127092
0.0374949
0.0132382
0.0380696
0.0136836
0.0385108
0.0140541
0.038847
0.0143595
0.0391009
0.0146096
0.0392902
0.0148132
0.0394309
0.0149778
0.0395359
0.01511
0.0396144
0.0152153
0.0396732
0.0152982
0.0397171
0.0153625
0.0397495
0.0154115
0.0397731
0.0154476
0.0397899
0.0154732
0.0398013
0.01549
0.0398086
0.0154998
0.0398127
0.0155036
0.0398144
1.77862e-05
1.44249e-05
1.36754e-05
1.32584e-05
1.29797e-05
1.27863e-05
1.26455e-05
1.25378e-05
1.24532e-05
1.23854e-05
1.23302e-05
1.22845e-05
1.22463e-05
1.2214e-05
1.21865e-05
1.2163e-05
1.21427e-05
1.2125e-05
1.21097e-05
1.20963e-05
1.20845e-05
1.20741e-05
1.20648e-05
1.20566e-05
1.20493e-05
1.20428e-05
1.20369e-05
1.20316e-05
1.20268e-05
1.20225e-05
1.20185e-05
1.2015e-05
1.20117e-05
1.20087e-05
1.20061e-05
1.20036e-05
1.20014e-05
1.19993e-05
1.19975e-05
1.19959e-05
1.19945e-05
1.19932e-05
1.19923e-05
1.19915e-05
1.1991e-05
1.19908e-05
1.19909e-05
1.19914e-05
1.19924e-05
1.19937e-05
1.19957e-05
1.19983e-05
1.20016e-05
1.20056e-05
1.20107e-05
1.20167e-05
1.20239e-05
1.20323e-05
1.20423e-05
1.20538e-05
1.20672e-05
1.20825e-05
1.21003e-05
1.21172e-05
1.21319e-05
1.21473e-05
1.21637e-05
1.21811e-05
1.21995e-05
1.22189e-05
1.22393e-05
1.22608e-05
1.22834e-05
1.23072e-05
1.23324e-05
1.23586e-05
1.23868e-05
1.24157e-05
1.24482e-05
1.24794e-05
1.25191e-05
1.2551e-05
1.26062e-05
1.26337e-05
1.27169e-05
1.27551e-05
1.28603e-05
1.29654e-05
4.64381e-05
2.9408e-05
2.67584e-05
2.54481e-05
2.46418e-05
2.4095e-05
2.37036e-05
2.34085e-05
2.31785e-05
2.29952e-05
2.28464e-05
2.27237e-05
2.26214e-05
2.25352e-05
2.2462e-05
2.23993e-05
2.23454e-05
2.22986e-05
2.2258e-05
2.22224e-05
2.21911e-05
2.21636e-05
2.21392e-05
2.21175e-05
2.20982e-05
2.20809e-05
2.20653e-05
2.20514e-05
2.20388e-05
2.20273e-05
2.2017e-05
2.20076e-05
2.1999e-05
2.19911e-05
2.1984e-05
2.19775e-05
2.19715e-05
2.1966e-05
2.19612e-05
2.19566e-05
2.19527e-05
2.1949e-05
2.1946e-05
2.19433e-05
2.19413e-05
2.19397e-05
2.19388e-05
2.19385e-05
2.19389e-05
2.19402e-05
2.19424e-05
2.19455e-05
2.195e-05
2.19555e-05
2.19627e-05
2.19714e-05
2.1982e-05
2.19945e-05
2.20093e-05
2.20264e-05
2.20464e-05
2.20691e-05
2.20955e-05
2.21203e-05
2.21417e-05
2.21645e-05
2.21883e-05
2.22131e-05
2.2239e-05
2.22662e-05
2.22942e-05
2.23237e-05
2.23534e-05
2.23852e-05
2.24165e-05
2.24506e-05
2.24828e-05
2.25195e-05
2.25516e-05
2.25915e-05
2.26222e-05
2.26638e-05
2.2699e-05
2.27233e-05
2.27867e-05
2.27496e-05
2.2957e-05
2.2289e-05
0.000120869
6.99744e-05
6.30476e-05
5.99242e-05
5.81484e-05
5.6984e-05
5.61655e-05
5.55572e-05
5.50869e-05
5.47139e-05
5.44124e-05
5.41644e-05
5.3958e-05
5.37843e-05
5.36371e-05
5.3511e-05
5.34028e-05
5.33088e-05
5.32274e-05
5.3156e-05
5.30935e-05
5.30384e-05
5.29896e-05
5.29461e-05
5.29075e-05
5.28729e-05
5.28419e-05
5.2814e-05
5.27888e-05
5.2766e-05
5.27453e-05
5.27264e-05
5.27094e-05
5.26936e-05
5.26794e-05
5.26662e-05
5.26543e-05
5.26431e-05
5.26332e-05
5.26239e-05
5.26157e-05
5.2608e-05
5.26015e-05
5.25954e-05
5.25904e-05
5.2586e-05
5.25826e-05
5.25802e-05
5.25789e-05
5.25785e-05
5.25795e-05
5.25816e-05
5.25855e-05
5.25907e-05
5.25981e-05
5.26072e-05
5.26188e-05
5.26324e-05
5.26489e-05
5.26678e-05
5.26903e-05
5.27155e-05
5.27451e-05
5.27725e-05
5.27961e-05
5.28215e-05
5.28473e-05
5.28738e-05
5.29011e-05
5.29296e-05
5.29576e-05
5.2988e-05
5.30155e-05
5.30475e-05
5.30733e-05
5.31075e-05
5.31278e-05
5.31663e-05
5.31751e-05
5.32226e-05
5.32092e-05
5.32681e-05
5.32398e-05
5.32498e-05
5.32963e-05
5.30862e-05
5.37051e-05
5.10219e-05
0.000240714
0.000127338
0.000112403
0.00010619
0.000102947
0.00010093
9.95566e-05
9.85611e-05
9.78042e-05
9.72107e-05
9.6735e-05
9.63465e-05
9.60249e-05
9.57552e-05
9.55275e-05
9.53331e-05
9.51667e-05
9.50223e-05
9.48978e-05
9.47887e-05
9.46933e-05
9.46092e-05
9.45348e-05
9.44688e-05
9.44101e-05
9.43576e-05
9.43105e-05
9.42681e-05
9.423e-05
9.41954e-05
9.41642e-05
9.41355e-05
9.41096e-05
9.40857e-05
9.40642e-05
9.4044e-05
9.4026e-05
9.40089e-05
9.39937e-05
9.39791e-05
9.39664e-05
9.3954e-05
9.39434e-05
9.3933e-05
9.39242e-05
9.39157e-05
9.39083e-05
9.39021e-05
9.38968e-05
9.3892e-05
9.38885e-05
9.38856e-05
9.38843e-05
9.38833e-05
9.38844e-05
9.3886e-05
9.38895e-05
9.38936e-05
9.38996e-05
9.39062e-05
9.39149e-05
9.39241e-05
9.39357e-05
9.39461e-05
9.39546e-05
9.39646e-05
9.39736e-05
9.39819e-05
9.39894e-05
9.39974e-05
9.40019e-05
9.401e-05
9.40089e-05
9.40169e-05
9.40074e-05
9.40176e-05
9.39911e-05
9.401e-05
9.39524e-05
9.39933e-05
9.38802e-05
9.39526e-05
9.38023e-05
9.37768e-05
9.37747e-05
9.33334e-05
9.44868e-05
9.07721e-05
0.000414959
0.000204345
0.000175537
0.00016402
0.000158388
0.000155068
0.000152891
0.00015136
0.000150223
0.000149345
0.000148651
0.000148089
0.000147628
0.000147244
0.000146922
0.000146648
0.000146415
0.000146213
0.000146039
0.000145888
0.000145755
0.000145639
0.000145537
0.000145445
0.000145365
0.000145293
0.000145228
0.00014517
0.000145118
0.000145071
0.000145028
0.000144989
0.000144953
0.000144921
0.000144891
0.000144863
0.000144839
0.000144815
0.000144794
0.000144774
0.000144756
0.000144738
0.000144723
0.000144707
0.000144694
0.00014468
0.000144667
0.000144655
0.000144645
0.000144633
0.000144622
0.00014461
0.0001446
0.000144587
0.000144577
0.000144564
0.000144552
0.000144537
0.000144522
0.000144505
0.000144486
0.000144464
0.00014444
0.000144417
0.000144397
0.000144377
0.000144354
0.000144328
0.000144299
0.00014427
0.000144233
0.000144202
0.000144152
0.000144119
0.000144052
0.000144024
0.000143925
0.000143913
0.00014376
0.00014379
0.000143543
0.000143633
0.000143333
0.000143267
0.000143183
0.000142547
0.00014419
0.000140103
0.000654918
0.000306978
0.000256085
0.000235816
0.000226284
0.000220917
0.000217527
0.00021522
0.000213551
0.000212289
0.000211308
0.000210526
0.000209891
0.000209367
0.000208931
0.000208563
0.000208251
0.000207982
0.000207754
0.000207554
0.000207381
0.000207229
0.000207095
0.000206977
0.000206873
0.00020678
0.000206696
0.000206622
0.000206555
0.000206494
0.000206439
0.000206389
0.000206344
0.000206302
0.000206264
0.000206229
0.000206197
0.000206167
0.00020614
0.000206113
0.00020609
0.000206066
0.000206046
0.000206024
0.000206005
0.000205985
0.000205966
0.000205946
0.000205929
0.000205908
0.000205887
0.000205863
0.00020584
0.000205812
0.000205784
0.000205751
0.000205716
0.000205675
0.00020563
0.000205577
0.000205519
0.000205451
0.000205377
0.000205307
0.000205246
0.000205184
0.000205116
0.000205043
0.000204965
0.000204885
0.000204792
0.000204709
0.000204595
0.00020451
0.000204371
0.000204293
0.000204107
0.000204056
0.000203794
0.000203807
0.000203421
0.000203526
0.00020307
0.000202977
0.000202817
0.000202105
0.000203893
0.000199985
0.000973889
0.000443064
0.000359424
0.000325312
0.000309511
0.000300904
0.00029564
0.000292165
0.000289722
0.00028792
0.000286546
0.000285469
0.000284608
0.000283907
0.00028333
0.000282847
0.000282443
0.000282097
0.000281804
0.000281551
0.000281332
0.000281141
0.000280974
0.000280827
0.000280698
0.000280583
0.00028048
0.000280389
0.000280307
0.000280232
0.000280166
0.000280105
0.00028005
0.000279999
0.000279953
0.00027991
0.000279872
0.000279835
0.000279802
0.000279769
0.000279741
0.000279711
0.000279686
0.000279658
0.000279633
0.000279606
0.00027958
0.00027955
0.000279525
0.000279494
0.000279461
0.000279423
0.000279384
0.000279336
0.000279287
0.000279229
0.000279165
0.000279091
0.000279008
0.000278911
0.000278804
0.000278681
0.000278543
0.000278416
0.000278306
0.000278192
0.00027807
0.000277941
0.000277803
0.000277664
0.000277506
0.000277362
0.000277176
0.000277032
0.000276813
0.000276679
0.000276405
0.000276307
0.000275947
0.000275926
0.000275434
0.000275532
0.000274947
0.000274857
0.000274642
0.000274007
0.000275654
0.000270686
0.00138726
0.000622091
0.000492767
0.000437662
0.000412015
0.0003983
0.000390111
0.000384842
0.000381234
0.000378637
0.0003767
0.000375212
0.000374044
0.000373108
0.000372349
0.000371722
0.000371204
0.000370764
0.000370397
0.000370081
0.000369812
0.000369579
0.000369376
0.000369198
0.000369044
0.000368906
0.000368785
0.000368677
0.000368581
0.000368494
0.000368416
0.000368345
0.000368282
0.000368222
0.00036817
0.00036812
0.000368077
0.000368033
0.000367996
0.000367957
0.000367925
0.000367889
0.000367859
0.000367826
0.000367796
0.000367761
0.000367729
0.000367689
0.000367655
0.000367613
0.000367568
0.000367514
0.000367457
0.000367387
0.000367315
0.000367228
0.000367133
0.000367021
0.000366895
0.000366749
0.000366587
0.000366401
0.000366193
0.000366004
0.000365841
0.00036567
0.000365488
0.000365298
0.000365098
0.000364896
0.000364671
0.000364465
0.000364208
0.000364003
0.000363712
0.00036352
0.000363174
0.00036302
0.000362602
0.000362518
0.000362003
0.00036204
0.000361401
0.000361356
0.000361131
0.000360694
0.00036213
0.000351531
0.00191243
0.000855112
0.000665393
0.000579764
0.000539084
0.000517425
0.000504671
0.000496612
0.000491212
0.00048741
0.000484635
0.000482547
0.00048094
0.000479675
0.000478667
0.000477848
0.000477181
0.000476622
0.000476164
0.000475774
0.000475446
0.000475164
0.000474923
0.000474713
0.000474532
0.000474373
0.000474234
0.000474111
0.000474002
0.000473904
0.000473818
0.000473738
0.000473669
0.000473603
0.000473547
0.000473491
0.000473445
0.000473396
0.000473357
0.000473313
0.000473279
0.000473238
0.000473206
0.000473167
0.000473134
0.000473093
0.000473055
0.000473007
0.000472963
0.00047291
0.000472856
0.000472785
0.000472711
0.000472619
0.000472524
0.000472408
0.000472281
0.000472132
0.000471963
0.000471767
0.00047155
0.000471301
0.000471024
0.000470773
0.000470558
0.000470333
0.000470095
0.000469846
0.000469589
0.000469329
0.000469047
0.000468784
0.000468469
0.000468213
0.000467872
0.000467625
0.000467249
0.00046703
0.000466628
0.000466443
0.000466
0.000465951
0.000465372
0.000465409
0.00046521
0.00046497
0.000466633
0.000449184
0.00256854
0.00115462
0.000888805
0.000760644
0.000697734
0.000663966
0.000644155
0.000631757
0.000623569
0.000617905
0.000613845
0.000610847
0.000608582
0.000606833
0.000605464
0.000604372
0.000603498
0.000602779
0.000602199
0.000601713
0.000601311
0.000600972
0.000600685
0.000600439
0.000600231
0.00060005
0.000599893
0.000599757
0.000599638
0.000599532
0.000599441
0.000599356
0.000599283
0.000599214
0.000599157
0.000599099
0.000599052
0.000599002
0.000598963
0.000598917
0.000598884
0.000598841
0.000598809
0.000598767
0.000598733
0.000598688
0.000598647
0.000598593
0.000598544
0.00059848
0.000598419
0.000598335
0.000598249
0.000598136
0.000598022
0.000597881
0.000597727
0.000597545
0.000597339
0.000597099
0.000596836
0.000596534
0.000596199
0.000595896
0.000595641
0.000595373
0.00059509
0.000594796
0.000594501
0.000594197
0.000593881
0.000593579
0.000593236
0.000592946
0.000592596
0.000592306
0.000591962
0.000591672
0.000591344
0.000591091
0.000590775
0.000590672
0.000590293
0.000590425
0.000590321
0.000590574
0.000592838
0.000569793
0.00337583
0.00153438
0.00117671
0.000991789
0.000897147
0.000845393
0.000814857
0.000795767
0.000783247
0.000774679
0.000768617
0.000764205
0.000760924
0.000758431
0.000756513
0.000755009
0.000753827
0.000752871
0.000752116
0.000751493
0.00075099
0.000750572
0.000750226
0.000749935
0.000749694
0.000749488
0.000749314
0.000749165
0.000749038
0.000748926
0.000748833
0.000748746
0.000748674
0.000748606
0.000748552
0.000748496
0.000748454
0.000748405
0.000748371
0.000748327
0.000748299
0.000748257
0.00074823
0.000748189
0.000748158
0.000748112
0.000748074
0.000748017
0.000747968
0.000747898
0.000747833
0.00074774
0.000747653
0.000747525
0.000747402
0.000747244
0.000747074
0.00074687
0.000746641
0.000746373
0.000746083
0.000745748
0.00074538
0.00074505
0.000744775
0.000744487
0.000744185
0.000743868
0.000743567
0.000743245
0.000742936
0.00074262
0.000742295
0.000742008
0.000741701
0.000741401
0.000741134
0.000740833
0.000740593
0.000740466
0.000740211
0.000740276
0.000740012
0.000740334
0.000740397
0.000741086
0.000744529
0.000717119
0.00435464
0.0020093
0.00154474
0.00128731
0.0011491
0.00107144
0.00102498
0.000995733
0.000976543
0.00096346
0.000954265
0.000947631
0.000942749
0.000939084
0.000936301
0.000934148
0.000932483
0.000931156
0.000930128
0.000929293
0.000928633
0.000928094
0.000927659
0.000927301
0.000927012
0.000926772
0.000926573
0.000926408
0.000926272
0.000926155
0.000926061
0.000925975
0.000925908
0.000925843
0.000925798
0.000925747
0.000925715
0.000925673
0.00092565
0.000925611
0.000925593
0.000925556
0.00092554
0.000925504
0.000925483
0.000925441
0.000925411
0.000925359
0.000925316
0.000925248
0.000925189
0.000925096
0.000925015
0.000924884
0.000924769
0.000924608
0.00092444
0.000924234
0.000924003
0.000923733
0.000923448
0.000923114
0.000922756
0.000922439
0.000922176
0.000921903
0.00092162
0.000921316
0.000921056
0.000920752
0.00092051
0.000920221
0.000919978
0.000919751
0.000919533
0.000919373
0.000919133
0.000919041
0.000918844
0.000918901
0.000918801
0.000919057
0.000919072
0.000919621
0.00091997
0.000921059
0.000925783
0.00089493
0.00552397
0.00259524
0.00200981
0.00166375
0.00146819
0.00135455
0.00128511
0.00124082
0.00121153
0.00119151
0.00117744
0.00116732
0.0011599
0.00115437
0.0011502
0.001147
0.00114455
0.00114262
0.00114115
0.00113996
0.00113904
0.0011383
0.00113771
0.00113724
0.00113687
0.00113657
0.00113632
0.00113613
0.00113597
0.00113585
0.00113575
0.00113566
0.0011356
0.00113554
0.0011355
0.00113546
0.00113544
0.00113541
0.0011354
0.00113537
0.00113537
0.00113535
0.00113535
0.00113532
0.00113532
0.00113528
0.00113527
0.00113523
0.0011352
0.00113515
0.0011351
0.00113502
0.00113496
0.00113485
0.00113476
0.00113462
0.00113448
0.0011343
0.00113411
0.00113387
0.00113364
0.00113335
0.00113306
0.00113281
0.0011326
0.0011324
0.00113218
0.00113197
0.00113178
0.0011316
0.00113142
0.00113129
0.00113112
0.00113107
0.00113096
0.00113098
0.00113095
0.00113104
0.0011311
0.00113134
0.00113155
0.00113203
0.00113243
0.00113326
0.00113402
0.00113553
0.00114144
0.00110766
0.00689969
0.00330897
0.00258919
0.00213945
0.00187177
0.00171014
0.00160871
0.00154276
0.00149856
0.00146809
0.00144656
0.00143102
0.00141962
0.00141112
0.00140472
0.00139983
0.00139609
0.00139316
0.00139093
0.00138915
0.00138778
0.00138668
0.00138583
0.00138514
0.00138461
0.00138419
0.00138385
0.00138359
0.00138339
0.00138323
0.00138311
0.00138301
0.00138294
0.00138288
0.00138285
0.00138281
0.00138281
0.00138278
0.00138279
0.00138277
0.00138279
0.00138278
0.0013828
0.00138279
0.00138281
0.00138279
0.0013828
0.00138278
0.00138278
0.00138275
0.00138274
0.00138269
0.00138267
0.00138259
0.00138255
0.00138245
0.00138238
0.00138225
0.00138215
0.00138199
0.00138187
0.00138168
0.00138154
0.0013814
0.00138132
0.00138123
0.00138117
0.00138109
0.00138106
0.00138105
0.00138105
0.00138111
0.00138115
0.0013813
0.00138144
0.00138168
0.00138197
0.00138228
0.00138274
0.00138322
0.00138387
0.00138462
0.00138552
0.0013867
0.00138795
0.00138999
0.0013964
0.00136066
0.00848655
0.00416826
0.00329923
0.00273321
0.00237916
0.00215646
0.0020123
0.00191629
0.00185075
0.00180495
0.00177225
0.00174846
0.0017309
0.00171774
0.0017078
0.00170018
0.00169433
0.00168976
0.00168625
0.00168346
0.00168131
0.00167958
0.00167824
0.00167716
0.00167633
0.00167567
0.00167514
0.00167473
0.00167442
0.00167416
0.00167398
0.00167383
0.00167373
0.00167364
0.0016736
0.00167355
0.00167355
0.00167352
0.00167354
0.00167352
0.00167356
0.00167355
0.0016736
0.0016736
0.00167365
0.00167365
0.00167369
0.00167369
0.00167373
0.00167373
0.00167377
0.00167377
0.00167381
0.00167379
0.00167382
0.0016738
0.00167384
0.00167381
0.00167385
0.00167381
0.00167387
0.00167385
0.00167394
0.00167398
0.00167411
0.00167419
0.00167436
0.00167448
0.0016747
0.0016749
0.0016752
0.00167549
0.00167587
0.00167628
0.00167679
0.00167731
0.00167802
0.00167861
0.00167959
0.00168036
0.00168157
0.00168265
0.00168414
0.00168573
0.00168751
0.00169025
0.0016964
0.00165953
0.010272
0.00519245
0.00415379
0.00346229
0.00301009
0.00271363
0.00251512
0.00237918
0.0022843
0.00221678
0.00216787
0.00213185
0.002105
0.0020847
0.00206923
0.00205729
0.00204806
0.00204081
0.00203519
0.0020307
0.0020272
0.00202438
0.00202216
0.00202038
0.00201897
0.00201785
0.00201695
0.00201623
0.00201568
0.00201522
0.00201488
0.00201459
0.00201439
0.00201422
0.00201411
0.00201401
0.00201397
0.00201391
0.00201391
0.00201388
0.00201391
0.0020139
0.00201396
0.00201396
0.00201403
0.00201404
0.00201412
0.00201415
0.00201423
0.00201427
0.00201437
0.00201442
0.00201453
0.0020146
0.00201474
0.00201482
0.002015
0.00201511
0.00201533
0.00201548
0.00201578
0.00201599
0.00201641
0.00201671
0.00201711
0.00201742
0.00201791
0.00201828
0.00201886
0.00201933
0.00202002
0.00202061
0.00202144
0.00202215
0.00202315
0.002024
0.00202524
0.0020262
0.00202775
0.00202886
0.00203075
0.00203217
0.00203436
0.00203632
0.00203873
0.00204228
0.00204771
0.00201034
0.0122165
0.00640443
0.0051624
0.0043398
0.00378211
0.00340168
0.0031378
0.00295155
0.0028182
0.00272124
0.00264972
0.00259625
0.00255582
0.00252489
0.00250106
0.00248248
0.00246795
0.00245644
0.00244741
0.00244013
0.00243438
0.00242971
0.00242598
0.00242294
0.00242051
0.00241854
0.00241693
0.00241562
0.00241458
0.00241371
0.00241303
0.00241245
0.00241201
0.00241163
0.00241136
0.00241111
0.00241096
0.00241079
0.00241072
0.00241061
0.0024106
0.00241053
0.00241057
0.00241054
0.00241061
0.0024106
0.00241069
0.00241074
0.00241085
0.00241092
0.00241108
0.00241118
0.00241139
0.00241154
0.00241181
0.00241201
0.00241236
0.00241264
0.0024131
0.00241347
0.00241408
0.00241458
0.0024154
0.00241601
0.00241677
0.00241736
0.00241824
0.00241892
0.00241994
0.00242073
0.00242191
0.00242283
0.0024242
0.00242527
0.00242685
0.00242808
0.00242991
0.00243133
0.00243347
0.00243503
0.0024376
0.00243936
0.00244234
0.00244461
0.00244775
0.00245186
0.00245659
0.00241923
0.0142487
0.00782483
0.00632782
0.00537162
0.00470707
0.00423718
0.00389973
0.00365396
0.00347302
0.00333825
0.00323675
0.00315945
0.00310005
0.00305393
0.00301789
0.00298945
0.0029669
0.00294886
0.00293451
0.0029228
0.00291343
0.00290571
0.00289947
0.00289432
0.00289012
0.00288665
0.00288378
0.0028814
0.00287944
0.00287779
0.00287645
0.00287529
0.00287436
0.00287356
0.00287293
0.00287235
0.00287193
0.00287152
0.00287125
0.00287095
0.00287079
0.00287059
0.00287054
0.00287039
0.00287039
0.00287031
0.00287037
0.00287038
0.00287049
0.00287056
0.00287075
0.00287089
0.00287117
0.0028714
0.00287179
0.00287212
0.00287265
0.0028731
0.00287382
0.00287443
0.0028754
0.00287621
0.0028775
0.00287848
0.00287963
0.00288054
0.00288187
0.00288289
0.00288441
0.00288557
0.0028873
0.00288861
0.00289055
0.00289203
0.00289422
0.00289589
0.00289835
0.00290023
0.00290299
0.00290509
0.00290824
0.00291049
0.00291414
0.00291668
0.00292061
0.00292491
0.00292905
0.00289222
0.016287
0.00943629
0.00764243
0.00655315
0.00578697
0.00522884
0.00481481
0.00450372
0.00426798
0.00408781
0.00394894
0.00384098
0.00375645
0.0036897
0.00363671
0.00359428
0.00356015
0.00353251
0.00351021
0.00349175
0.00347679
0.00346428
0.00345403
0.00344546
0.00343835
0.00343239
0.00342738
0.00342316
0.00341961
0.00341656
0.00341402
0.00341182
0.00340997
0.00340836
0.00340702
0.00340582
0.00340485
0.00340394
0.00340324
0.00340255
0.00340206
0.00340156
0.00340126
0.00340086
0.00340068
0.00340039
0.00340034
0.00340021
0.00340023
0.00340022
0.00340036
0.00340049
0.00340078
0.00340104
0.00340151
0.00340193
0.00340262
0.00340323
0.00340419
0.00340503
0.00340634
0.00340748
0.00340923
0.00341059
0.00341216
0.00341341
0.0034152
0.00341661
0.00341862
0.0034202
0.00342245
0.0034242
0.00342671
0.00342864
0.00343142
0.00343355
0.00343662
0.00343896
0.00344234
0.0034449
0.00344864
0.00345141
0.00345554
0.00345853
0.00346302
0.00346718
0.00347085
0.0034351
0.018229
0.0111881
0.0090842
0.00786617
0.00700982
0.00637232
0.00588591
0.00550957
0.00521615
0.00498584
0.00480392
0.0046593
0.00454374
0.00445076
0.00437566
0.00431453
0.00426465
0.00422348
0.00419
0.00416177
0.00413863
0.00411897
0.00410266
0.00408884
0.00407719
0.00406728
0.00405885
0.00405162
0.00404546
0.00404008
0.00403551
0.00403151
0.00402807
0.00402504
0.00402244
0.00402011
0.00401814
0.00401632
0.00401481
0.00401338
0.00401224
0.00401113
0.0040103
0.00400943
0.00400881
0.00400814
0.00400783
0.00400736
0.00400712
0.00400688
0.00400686
0.00400683
0.00400703
0.0040072
0.00400766
0.00400807
0.00400883
0.00400951
0.00401064
0.00401165
0.00401324
0.00401465
0.00401679
0.00401853
0.00402046
0.00402208
0.00402427
0.00402607
0.00402852
0.00403053
0.00403325
0.00403545
0.00403845
0.00404085
0.00404414
0.00404674
0.00405033
0.00405311
0.00405703
0.00405997
0.00406426
0.00406732
0.00407202
0.00407517
0.00408037
0.0040836
0.00408814
0.00405288
0.0199498
0.012988
0.0106121
0.00927609
0.00834616
0.00764537
0.0070988
0.00666495
0.00631758
0.00603767
0.00581106
0.00562668
0.00547612
0.00535253
0.0052508
0.00516654
0.00509667
0.0050381
0.00498946
0.00494822
0.00491385
0.0048841
0.00485921
0.00483778
0.00481949
0.00480371
0.00479012
0.00477829
0.00476808
0.00475906
0.00475128
0.0047444
0.00473839
0.00473303
0.00472835
0.00472413
0.00472045
0.00471709
0.00471419
0.00471148
0.00470919
0.00470701
0.00470521
0.00470347
0.00470207
0.00470068
0.00469967
0.0046986
0.00469797
0.00469724
0.00469678
0.00469639
0.00469628
0.00469618
0.00469643
0.00469666
0.00469731
0.00469792
0.00469905
0.0047001
0.00470179
0.00470337
0.00470572
0.00470778
0.00470998
0.00471191
0.00471439
0.00471656
0.00471934
0.00472174
0.00472481
0.00472744
0.0047308
0.00473363
0.0047373
0.0047403
0.00474429
0.00474742
0.00475175
0.00475497
0.00475967
0.0047629
0.00476803
0.00477121
0.00477691
0.00477974
0.00478462
0.00475039
0.0212922
0.0147155
0.0121617
0.0107293
0.00974663
0.00900416
0.00841691
0.00794134
0.0075517
0.00723006
0.00696336
0.0067413
0.00655592
0.00640056
0.00627014
0.00616008
0.00606722
0.00598812
0.0059212
0.00586367
0.00581504
0.0057723
0.00573626
0.00570459
0.00567726
0.00565335
0.00563256
0.00561419
0.00559815
0.00558382
0.00557133
0.00556017
0.00555028
0.00554139
0.0055335
0.00552635
0.00552001
0.00551421
0.00550907
0.00550433
0.00550016
0.00549626
0.00549287
0.00548969
0.00548694
0.00548435
0.00548215
0.00548012
0.00547837
0.00547697
0.00547582
0.00547479
0.00547394
0.00547324
0.00547297
0.00547274
0.005473
0.00547329
0.00547415
0.00547501
0.00547654
0.00547808
0.00548035
0.00548259
0.00548488
0.00548702
0.00548965
0.00549207
0.00549502
0.00549771
0.00550097
0.0055039
0.00550746
0.00551059
0.00551447
0.00551775
0.00552194
0.00552532
0.00552984
0.00553322
0.00553811
0.00554141
0.00554673
0.00554985
0.00555578
0.00555839
0.00556322
0.00553066
0.022066
0.0162246
0.0136396
0.01215
0.0111406
0.0103817
0.00977831
0.00928348
0.0088708
0.00852309
0.0082285
0.00797783
0.00776405
0.00758112
0.00742447
0.00728972
0.00717393
0.00707363
0.00698721
0.00691182
0.00684684
0.00678942
0.00673979
0.00669586
0.00665763
0.00662353
0.00659359
0.00656668
0.00654302
0.00652156
0.0065028
0.00648581
0.00647056
0.00645673
0.0064443
0.00643298
0.0064228
0.00641347
0.00640507
0.00639732
0.00639036
0.0063839
0.0063781
0.00637274
0.00636792
0.00636348
0.00635948
0.00635587
0.00635254
0.00634972
0.00634743
0.00634539
0.00634337
0.00634156
0.00634032
0.00633924
0.0063387
0.0063383
0.00633849
0.00633883
0.0063398
0.00634097
0.0063428
0.00634494
0.00634712
0.00634927
0.00635183
0.00635431
0.00635722
0.00636
0.00636324
0.00636628
0.00636983
0.00637307
0.00637692
0.00638031
0.00638445
0.00638789
0.00639234
0.00639574
0.00640055
0.00640378
0.00640904
0.00641199
0.00641791
0.00642021
0.00642478
0.00639435
0.0219967
0.017417
0.0149243
0.0134359
0.0124342
0.0116874
0.0110955
0.0106079
0.0101969
0.00984517
0.00954194
0.00927898
0.0090503
0.00885075
0.00867651
0.00852379
0.00839008
0.00827226
0.00816887
0.00807728
0.00799683
0.00792505
0.00786172
0.00780508
0.00775487
0.00770978
0.00766955
0.00763314
0.00760071
0.00757083
0.00754485
0.00752069
0.00749877
0.00747871
0.00746053
0.00744389
0.00742875
0.00741482
0.00740212
0.00739038
0.00737967
0.00736977
0.00736073
0.00735239
0.00734476
0.0073377
0.0073313
0.00732533
0.00731992
0.00731487
0.00731104
0.00730678
0.00730322
0.00729982
0.00729713
0.00729472
0.00729288
0.00729135
0.00729039
0.00728976
0.00728971
0.00729005
0.00729096
0.00729265
0.00729445
0.00729633
0.00729855
0.00730081
0.00730342
0.00730602
0.00730897
0.00731185
0.00731512
0.00731821
0.00732176
0.00732499
0.00732881
0.00733208
0.00733618
0.00733938
0.00734383
0.00734682
0.00735175
0.00735439
0.00736002
0.00736196
0.00736598
0.00733812
0.0208141
0.0181318
0.0158479
0.0144531
0.0135097
0.012809
0.0122581
0.0118058
0.0114233
0.0110931
0.0108051
0.0105516
0.0103276
0.0101287
0.00995196
0.00979421
0.00965358
0.00952752
0.00941488
0.0093135
0.00922278
0.00914081
0.00906716
0.00900047
0.0089403
0.0088857
0.00883625
0.00879106
0.00875022
0.00871242
0.00867844
0.00864713
0.00861843
0.00859197
0.00856768
0.00854524
0.00852463
0.00850553
0.00848795
0.00847163
0.00845648
0.00844297
0.00842998
0.00841807
0.00840746
0.00839691
0.00838819
0.00837933
0.00837075
0.00836235
0.00835541
0.00834907
0.00834338
0.00833813
0.0083335
0.00832931
0.00832572
0.00832258
0.00832001
0.00831792
0.00831638
0.00831536
0.00831488
0.00831569
0.00831681
0.00831809
0.00831967
0.00832139
0.0083234
0.00832549
0.00832786
0.00833025
0.00833294
0.00833556
0.00833852
0.00834128
0.00834449
0.00834731
0.00835077
0.00835355
0.00835732
0.00835993
0.00836416
0.00836647
0.00837121
0.00837381
0.00837549
0.008351
0.018707
0.0177753
0.0161592
0.0150213
0.0142161
0.0136086
0.0131341
0.0127473
0.0124208
0.0121385
0.0118909
0.011671
0.0114743
0.0112973
0.0111376
0.0109928
0.0108614
0.0107417
0.0106327
0.0105331
0.0104423
0.0103591
0.010283
0.010213
0.0101489
0.0100899
0.0100356
0.00998544
0.00993939
0.00989652
0.0098571
0.00982055
0.0097867
0.00975522
0.00972602
0.00969882
0.00967357
0.00965
0.0096281
0.00960762
0.00958855
0.00957076
0.00955417
0.0095387
0.0095243
0.00951076
0.0094983
0.00948651
0.00947548
0.00946505
0.00945552
0.0094467
0.00943864
0.00943117
0.00942438
0.00941814
0.00941255
0.00940749
0.00940303
0.00939912
0.00939577
0.009393
0.00939075
0.00939032
0.00939051
0.0093909
0.00939158
0.00939245
0.00939358
0.00939485
0.00939636
0.00939795
0.00939978
0.00940162
0.00940371
0.00940572
0.00940805
0.00941016
0.00941273
0.00941484
0.00941771
0.00941972
0.00942301
0.00942484
0.00942846
0.00943087
0.00943158
0.00941031
0.0155515
0.0161797
0.0156424
0.0149274
0.014372
0.0139244
0.0135743
0.0132887
0.0130473
0.0128389
0.0126564
0.0124936
0.012347
0.0122137
0.0120919
0.0119797
0.0118763
0.0117805
0.0116917
0.0116091
0.0115323
0.0114608
0.011394
0.0113317
0.0112735
0.011219
0.0111681
0.0111204
0.0110758
0.0110339
0.0109946
0.0109578
0.0109232
0.0108907
0.0108602
0.0108316
0.0108047
0.0107793
0.0107556
0.0107332
0.0107121
0.0106923
0.0106736
0.0106561
0.0106396
0.010624
0.0106095
0.0105957
0.0105828
0.0105707
0.0105594
0.0105487
0.0105389
0.0105296
0.0105211
0.0105131
0.0105058
0.0104991
0.0104929
0.0104873
0.0104823
0.0104777
0.0104737
0.010472
0.0104712
0.0104706
0.0104703
0.0104702
0.0104703
0.0104706
0.0104711
0.0104718
0.0104726
0.0104735
0.0104746
0.0104757
0.010477
0.0104783
0.0104799
0.0104811
0.0104831
0.0104843
0.0104866
0.0104877
0.0104904
0.0104921
0.010492
0.0104743
0.0119558
0.0135986
0.0140546
0.0139771
0.0138019
0.0135968
0.0134352
0.0132935
0.0131685
0.0130611
0.0129674
0.0128833
0.0128073
0.0127373
0.0126723
0.0126112
0.0125535
0.0124987
0.0124465
0.0123967
0.0123492
0.0123037
0.01226
0.0122182
0.0121782
0.0121397
0.0121029
0.0120677
0.012034
0.0120018
0.011971
0.0119415
0.0119134
0.0118865
0.011861
0.0118366
0.0118134
0.0117913
0.0117704
0.0117504
0.0117315
0.0117134
0.0116963
0.01168
0.0116645
0.0116498
0.0116359
0.0116227
0.0116103
0.0115984
0.0115873
0.0115767
0.0115668
0.0115574
0.0115487
0.0115403
0.0115326
0.0115253
0.0115186
0.0115123
0.0115064
0.0115009
0.0114959
0.0114934
0.011492
0.0114908
0.0114899
0.0114891
0.0114886
0.0114882
0.011488
0.0114879
0.011488
0.0114882
0.0114885
0.0114889
0.0114895
0.01149
0.0114909
0.0114915
0.0114927
0.0114933
0.0114949
0.0114953
0.0114974
0.011498
0.0114979
0.0114839
0.0115113
0.0114644
0.0120144
0.0124178
0.0125758
0.0126305
0.0127052
0.0127307
0.01274
0.0127544
0.0127671
0.012777
0.0127863
0.0127935
0.0127981
0.0128008
0.0128015
0.0128003
0.0127974