/*--------------------------------*- C++ -*----------------------------------*\
| =========                 |                                                 |
| \\      /  F ield         | OpenFOAM: The Open Source CFD Toolbox           |
|  \\    /   O peration     | Version:  2306                                  |
|   \\  /    A nd           | Website:  www.openfoam.com                      |
|    \\/     M anipulation  |                                                 |
\*---------------------------------------------------------------------------*/
FoamFile
{
    version     2.0;
    format      ascii;
    arch        "LSB;label=32;scalar=64";
    class       volScalarField;
    location    "1600";
    object      p;
}
// * * * * * * * * * * * * * * * * * * * * * * * * * * * * * * * * * * * * * //

dimensions      [0 2 -2 0 0 0 0];

internalField   nonuniform List<scalar> 
20540
(
218.032
57.3095
218.03
52.8183
218.026
49.5354
218.02
47.7653
218.012
46.6929
218.001
45.892
217.987
45.246
217.968
44.7178
217.944
44.2807
217.914
43.9145
217.876
43.6062
217.83
43.3483
217.773
43.1366
217.704
42.9691
217.622
42.8458
217.524
42.7676
217.41
42.7358
217.28
42.7516
217.134
42.8156
216.973
42.9277
216.799
43.0866
216.617
43.2875
216.432
43.5226
216.24
43.7912
216.007
44.1293
215.67
44.632
215.192
45.3636
214.642
46.2154
214.131
47.0363
213.693
47.7562
213.392
48.2291
213.254
48.4182
213.272
48.3331
213.444
47.9732
213.774
47.3354
214.228
46.4847
214.75
45.5596
215.31
44.6203
215.8
43.81
216.152
43.2353
216.404
42.8348
216.617
42.5133
216.822
42.2319
217.025
41.9895
217.219
41.7924
217.4
41.644
217.566
41.5449
217.715
41.4944
217.846
41.4911
217.958
41.5333
218.054
41.6191
218.134
41.7469
218.201
41.9157
218.256
42.126
218.301
42.3798
218.338
42.6814
218.367
43.0384
218.391
43.4634
218.41
43.9762
218.424
44.6029
218.435
45.3796
218.443
46.4209
218.449
48.1433
218.452
51.3389
218.455
55.7081
-8.51377
3.49934
-2.53873
-9.41297
-14.6749
-19.7442
-24.8109
-29.6302
-34.2273
-38.6401
-42.8716
-46.9271
-50.8166
-54.548
-58.1296
-61.5679
-64.8699
-68.0419
-71.0897
-74.0189
-76.8348
-79.5424
-82.1463
-84.6508
-87.0603
-89.3784
-91.6091
-93.7559
-95.8222
-97.8113
-99.7263
-101.57
-103.346
-105.056
-106.704
-108.292
-109.823
-111.301
-112.727
-114.105
-115.438
-116.729
-117.983
-119.203
-120.393
-121.559
-122.704
-123.835
-124.958
-126.08
-127.207
-128.347
-129.509
-130.702
-131.935
-133.219
-134.565
-135.987
-137.495
-139.107
-140.835
-142.702
-144.717
-146.554
-148.082
-149.65
-151.27
-152.944
-154.67
-156.452
-158.289
-160.185
-162.139
-164.157
-166.236
-168.392
-170.608
-172.925
-175.292
-177.817
-180.354
-183.186
-185.897
-189.27
-192.155
-196.602
-200.048
-207.086
-8.51081
3.50043
-2.5383
-9.41271
-14.6747
-19.744
-24.8108
-29.6301
-34.2273
-38.64
-42.8716
-46.927
-50.8165
-54.5479
-58.1296
-61.5679
-64.8699
-68.0418
-71.0897
-74.0189
-76.8348
-79.5423
-82.1463
-84.6508
-87.0603
-89.3784
-91.6091
-93.7559
-95.8222
-97.8113
-99.7263
-101.57
-103.346
-105.056
-106.704
-108.292
-109.823
-111.301
-112.727
-114.105
-115.438
-116.729
-117.983
-119.203
-120.393
-121.559
-122.704
-123.835
-124.958
-126.08
-127.207
-128.347
-129.509
-130.702
-131.935
-133.219
-134.565
-135.987
-137.495
-139.107
-140.835
-142.702
-144.717
-146.554
-148.082
-149.65
-151.27
-152.944
-154.67
-156.452
-158.289
-160.185
-162.139
-164.158
-166.237
-168.393
-170.608
-172.925
-175.293
-177.818
-180.355
-183.187
-185.899
-189.272
-192.158
-196.603
-200.055
-206.899
-8.51254
3.50231
-2.53744
-9.41213
-14.6743
-19.7437
-24.8106
-29.63
-34.2271
-38.6399
-42.8715
-46.9269
-50.8164
-54.5479
-58.1295
-61.5678
-64.8698
-68.0418
-71.0896
-74.0188
-76.8348
-79.5423
-82.1463
-84.6508
-87.0602
-89.3784
-91.6091
-93.7559
-95.8222
-97.8113
-99.7263
-101.57
-103.346
-105.056
-106.704
-108.292
-109.823
-111.301
-112.727
-114.105
-115.438
-116.729
-117.983
-119.203
-120.393
-121.559
-122.704
-123.835
-124.958
-126.08
-127.207
-128.347
-129.509
-130.702
-131.935
-133.219
-134.566
-135.987
-137.495
-139.107
-140.835
-142.702
-144.718
-146.555
-148.082
-149.651
-151.271
-152.944
-154.671
-156.453
-158.29
-160.186
-162.14
-164.159
-166.238
-168.394
-170.61
-172.927
-175.295
-177.821
-180.357
-183.19
-185.902
-189.276
-192.164
-196.607
-200.067
-206.602
-8.5175
3.5046
-2.5362
-9.41125
-14.6736
-19.7432
-24.8102
-29.6296
-34.2269
-38.6397
-42.8713
-46.9268
-50.8163
-54.5478
-58.1294
-61.5677
-64.8697
-68.0417
-71.0896
-74.0188
-76.8347
-79.5423
-82.1462
-84.6508
-87.0602
-89.3783
-91.6091
-93.7559
-95.8222
-97.8113
-99.7262
-101.57
-103.346
-105.056
-106.704
-108.292
-109.823
-111.301
-112.727
-114.105
-115.438
-116.729
-117.983
-119.203
-120.393
-121.559
-122.704
-123.835
-124.958
-126.08
-127.207
-128.347
-129.509
-130.702
-131.935
-133.219
-134.566
-135.987
-137.496
-139.108
-140.835
-142.703
-144.718
-146.555
-148.083
-149.651
-151.272
-152.946
-154.672
-156.454
-158.291
-160.188
-162.142
-164.161
-166.24
-168.397
-170.613
-172.93
-175.298
-177.825
-180.361
-183.195
-185.907
-189.282
-192.173
-196.61
-200.078
-206.329
-8.52833
3.50658
-2.53482
-9.41015
-14.6727
-19.7426
-24.8097
-29.6292
-34.2265
-38.6394
-42.871
-46.9266
-50.8161
-54.5476
-58.1293
-61.5676
-64.8696
-68.0416
-71.0895
-74.0187
-76.8346
-79.5422
-82.1461
-84.6507
-87.0601
-89.3783
-91.609
-93.7558
-95.8221
-97.8112
-99.7262
-101.57
-103.346
-105.056
-106.704
-108.292
-109.823
-111.3
-112.727
-114.105
-115.438
-116.729
-117.983
-119.203
-120.393
-121.559
-122.704
-123.835
-124.958
-126.08
-127.207
-128.347
-129.509
-130.702
-131.935
-133.22
-134.566
-135.988
-137.496
-139.108
-140.836
-142.703
-144.719
-146.556
-148.084
-149.653
-151.273
-152.947
-154.674
-156.456
-158.294
-160.19
-162.144
-164.164
-166.243
-168.4
-170.616
-172.935
-175.303
-177.83
-180.367
-183.202
-185.914
-189.29
-192.184
-196.613
-200.078
-206.135
-8.54842
3.50778
-2.53353
-9.40894
-14.6717
-19.7417
-24.809
-29.6287
-34.2261
-38.639
-42.8707
-46.9263
-50.8159
-54.5474
-58.1291
-61.5674
-64.8695
-68.0415
-71.0893
-74.0185
-76.8345
-79.5421
-82.1461
-84.6506
-87.0601
-89.3782
-91.6089
-93.7558
-95.8221
-97.8112
-99.7261
-101.57
-103.346
-105.056
-106.704
-108.292
-109.823
-111.3
-112.727
-114.105
-115.438
-116.729
-117.983
-119.203
-120.393
-121.559
-122.704
-123.835
-124.958
-126.08
-127.207
-128.347
-129.509
-130.702
-131.935
-133.22
-134.566
-135.988
-137.497
-139.109
-140.837
-142.704
-144.72
-146.558
-148.085
-149.654
-151.275
-152.949
-154.676
-156.458
-158.296
-160.193
-162.148
-164.167
-166.247
-168.404
-170.621
-172.94
-175.308
-177.837
-180.373
-183.21
-185.923
-189.299
-192.196
-196.613
-200.061
-206.009
-8.58109
3.50777
-2.53255
-9.40771
-14.6705
-19.7407
-24.8082
-29.628
-34.2255
-38.6385
-42.8703
-46.9259
-50.8155
-54.5471
-58.1288
-61.5672
-64.8693
-68.0413
-71.0892
-74.0184
-76.8344
-79.542
-82.1459
-84.6505
-87.06
-89.3781
-91.6089
-93.7557
-95.822
-97.8111
-99.7261
-101.57
-103.346
-105.056
-106.704
-108.292
-109.823
-111.3
-112.726
-114.104
-115.438
-116.729
-117.983
-119.203
-120.393
-121.559
-122.704
-123.835
-124.959
-126.08
-127.207
-128.348
-129.51
-130.702
-131.936
-133.22
-134.567
-135.989
-137.497
-139.11
-140.838
-142.705
-144.722
-146.559
-148.087
-149.656
-151.277
-152.951
-154.679
-156.461
-158.299
-160.196
-162.152
-164.172
-166.252
-168.409
-170.626
-172.946
-175.315
-177.844
-180.381
-183.219
-185.932
-189.308
-192.208
-196.608
-200.024
-205.893
-8.62969
3.50593
-2.53218
-9.40663
-14.6692
-19.7396
-24.8072
-29.6271
-34.2248
-38.6379
-42.8697
-46.9254
-50.8151
-54.5467
-58.1285
-61.5669
-64.869
-68.041
-71.089
-74.0182
-76.8342
-79.5418
-82.1458
-84.6504
-87.0598
-89.378
-91.6087
-93.7556
-95.8219
-97.811
-99.726
-101.57
-103.345
-105.056
-106.704
-108.292
-109.823
-111.3
-112.726
-114.104
-115.438
-116.729
-117.983
-119.203
-120.393
-121.559
-122.704
-123.835
-124.959
-126.08
-127.207
-128.348
-129.51
-130.703
-131.936
-133.221
-134.567
-135.989
-137.498
-139.111
-140.839
-142.707
-144.723
-146.561
-148.089
-149.659
-151.28
-152.954
-154.682
-156.465
-158.303
-160.201
-162.156
-164.177
-166.257
-168.416
-170.633
-172.953
-175.322
-177.853
-180.389
-183.229
-185.942
-189.316
-192.218
-196.596
-199.967
-205.737
-8.69796
3.50145
-2.53281
-9.40593
-14.668
-19.7384
-24.8061
-29.6262
-34.2239
-38.6372
-42.8691
-46.9249
-50.8146
-54.5463
-58.1281
-61.5665
-64.8687
-68.0407
-71.0887
-74.0179
-76.834
-79.5416
-82.1456
-84.6502
-87.0596
-89.3778
-91.6086
-93.7554
-95.8217
-97.8109
-99.7259
-101.57
-103.345
-105.056
-106.704
-108.292
-109.823
-111.3
-112.726
-114.104
-115.437
-116.729
-117.983
-119.203
-120.393
-121.559
-122.704
-123.836
-124.959
-126.08
-127.207
-128.348
-129.51
-130.703
-131.937
-133.221
-134.568
-135.99
-137.499
-139.112
-140.84
-142.709
-144.725
-146.563
-148.092
-149.661
-151.283
-152.958
-154.686
-156.469
-158.308
-160.206
-162.161
-164.183
-166.264
-168.422
-170.64
-172.961
-175.33
-177.861
-180.398
-183.238
-185.95
-189.32
-192.223
-196.57
-199.888
-205.52
-8.78989
3.4933
-2.53496
-9.40595
-14.6669
-19.7371
-24.805
-29.6251
-34.2229
-38.6363
-42.8683
-46.9242
-50.814
-54.5457
-58.1276
-61.5661
-64.8683
-68.0404
-71.0883
-74.0176
-76.8337
-79.5413
-82.1453
-84.6499
-87.0594
-89.3776
-91.6084
-93.7553
-95.8216
-97.8107
-99.7257
-101.57
-103.345
-105.056
-106.703
-108.292
-109.823
-111.3
-112.726
-114.104
-115.437
-116.729
-117.983
-119.203
-120.393
-121.559
-122.704
-123.836
-124.959
-126.08
-127.208
-128.348
-129.51
-130.704
-131.937
-133.222
-134.569
-135.991
-137.5
-139.113
-140.842
-142.71
-144.727
-146.566
-148.095
-149.665
-151.287
-152.962
-154.69
-156.473
-158.313
-160.211
-162.167
-164.189
-166.27
-168.429
-170.647
-172.969
-175.338
-177.87
-180.405
-183.245
-185.956
-189.318
-192.22
-196.523
-199.779
-205.237
-8.90964
3.48025
-2.53926
-9.40714
-14.6664
-19.7361
-24.8038
-29.6239
-34.2218
-38.6353
-42.8674
-46.9233
-50.8133
-54.545
-58.127
-61.5655
-64.8677
-68.0399
-71.0879
-74.0172
-76.8333
-79.541
-82.145
-84.6497
-87.0592
-89.3774
-91.6082
-93.755
-95.8214
-97.8105
-99.7255
-101.569
-103.345
-105.055
-106.703
-108.292
-109.823
-111.3
-112.726
-114.104
-115.437
-116.729
-117.983
-119.203
-120.393
-121.559
-122.704
-123.836
-124.959
-126.081
-127.208
-128.348
-129.511
-130.704
-131.938
-133.223
-134.57
-135.992
-137.501
-139.115
-140.844
-142.713
-144.73
-146.569
-148.098
-149.668
-151.29
-152.966
-154.694
-156.478
-158.318
-160.216
-162.173
-164.195
-166.277
-168.436
-170.654
-172.976
-175.344
-177.876
-180.41
-183.247
-185.956
-189.304
-192.203
-196.443
-199.625
-204.878
-9.0612
3.46087
-2.54645
-9.41011
-14.6667
-19.7354
-24.8027
-29.6228
-34.2207
-38.6342
-42.8664
-46.9224
-50.8124
-54.5442
-58.1263
-61.5649
-64.8671
-68.0393
-71.0874
-74.0168
-76.8329
-79.5406
-82.1446
-84.6493
-87.0588
-89.3771
-91.6079
-93.7548
-95.8211
-97.8103
-99.7253
-101.569
-103.345
-105.055
-106.703
-108.291
-109.823
-111.3
-112.726
-114.104
-115.437
-116.729
-117.983
-119.203
-120.393
-121.559
-122.704
-123.836
-124.959
-126.081
-127.208
-128.349
-129.511
-130.704
-131.938
-133.223
-134.571
-135.993
-137.503
-139.116
-140.846
-142.715
-144.732
-146.572
-148.101
-149.671
-151.294
-152.97
-154.699
-156.483
-158.323
-160.222
-162.178
-164.2
-166.282
-168.442
-170.659
-172.981
-175.348
-177.878
-180.41
-183.241
-185.947
-189.272
-192.163
-196.317
-199.41
-204.424
-9.24794
3.43349
-2.55733
-9.41559
-14.6684
-19.7355
-24.8021
-29.6218
-34.2196
-38.6331
-42.8653
-46.9214
-50.8114
-54.5433
-58.1254
-61.5641
-64.8664
-68.0387
-71.0868
-74.0162
-76.8323
-79.54
-82.1442
-84.6489
-87.0584
-89.3767
-91.6075
-93.7544
-95.8208
-97.81
-99.725
-101.569
-103.345
-105.055
-106.703
-108.291
-109.822
-111.3
-112.726
-114.104
-115.437
-116.729
-117.983
-119.203
-120.393
-121.558
-122.704
-123.836
-124.959
-126.081
-127.208
-128.349
-129.511
-130.705
-131.939
-133.224
-134.571
-135.994
-137.504
-139.118
-140.847
-142.717
-144.735
-146.574
-148.104
-149.675
-151.297
-152.973
-154.702
-156.487
-158.326
-160.225
-162.182
-164.204
-166.285
-168.444
-170.66
-172.98
-175.346
-177.872
-180.4
-183.221
-185.921
-189.213
-192.09
-196.129
-199.116
-203.855
-9.47189
3.39618
-2.57273
-9.42441
-14.6722
-19.7368
-24.8022
-29.6213
-34.2187
-38.6321
-42.8642
-46.9203
-50.8104
-54.5423
-58.1245
-61.5632
-64.8656
-68.0379
-71.086
-74.0155
-76.8317
-79.5394
-82.1436
-84.6483
-87.0579
-89.3762
-91.607
-93.754
-95.8204
-97.8096
-99.7246
-101.569
-103.344
-105.055
-106.703
-108.291
-109.822
-111.299
-112.726
-114.104
-115.437
-116.728
-117.982
-119.202
-120.393
-121.558
-122.704
-123.836
-124.959
-126.081
-127.208
-128.349
-129.512
-130.705
-131.939
-133.225
-134.572
-135.995
-137.505
-139.119
-140.849
-142.718
-144.736
-146.576
-148.106
-149.677
-151.299
-152.975
-154.704
-156.488
-158.328
-160.226
-162.182
-164.204
-166.283
-168.441
-170.655
-172.972
-175.334
-177.853
-180.375
-183.179
-185.87
-189.112
-191.966
-195.858
-198.721
-203.154
-9.73255
3.34668
-2.59343
-9.4375
-14.6788
-19.74
-24.8036
-29.6215
-34.2183
-38.6313
-42.8633
-46.9193
-50.8094
-54.5413
-58.1235
-61.5622
-64.8647
-68.037
-71.0852
-74.0147
-76.8309
-79.5387
-82.1429
-84.6477
-87.0573
-89.3756
-91.6065
-93.7535
-95.8199
-97.8091
-99.7242
-101.568
-103.344
-105.054
-106.702
-108.29
-109.822
-111.299
-112.725
-114.103
-115.436
-116.728
-117.982
-119.202
-120.393
-121.558
-122.704
-123.835
-124.959
-126.081
-127.208
-128.349
-129.512
-130.705
-131.939
-133.225
-134.572
-135.995
-137.505
-139.119
-140.849
-142.719
-144.737
-146.576
-148.106
-149.677
-151.299
-152.974
-154.703
-156.486
-158.325
-160.223
-162.177
-164.196
-166.274
-168.428
-170.639
-172.95
-175.305
-177.813
-180.326
-183.103
-185.779
-188.951
-191.769
-195.481
-198.202
-202.302
-10.0252
3.2823
-2.62016
-9.45573
-14.6891
-19.7457
-24.8067
-29.6231
-34.2189
-38.6312
-42.8628
-46.9186
-50.8085
-54.5404
-58.1225
-61.5613
-64.8637
-68.0361
-71.0843
-74.0138
-76.8301
-79.538
-82.1422
-84.647
-87.0566
-89.375
-91.6059
-93.7529
-95.8193
-97.8086
-99.7237
-101.568
-103.343
-105.054
-106.702
-108.29
-109.821
-111.299
-112.725
-114.103
-115.436
-116.728
-117.982
-119.202
-120.392
-121.558
-122.704
-123.835
-124.958
-126.08
-127.208
-128.349
-129.511
-130.705
-131.939
-133.224
-134.572
-135.995
-137.505
-139.119
-140.848
-142.717
-144.735
-146.574
-148.103
-149.673
-151.294
-152.969
-154.696
-156.478
-158.315
-160.21
-162.162
-164.178
-166.251
-168.4
-170.604
-172.906
-175.251
-177.741
-180.239
-182.977
-185.628
-188.707
-191.469
-194.966
-197.53
-201.278
-10.3395
3.19997
-2.65356
-9.47991
-14.704
-19.7549
-24.8125
-29.6265
-34.2208
-38.6322
-42.8631
-46.9184
-50.8081
-54.5398
-58.1218
-61.5605
-64.8628
-68.0352
-71.0834
-74.013
-76.8293
-79.5371
-82.1414
-84.6462
-87.0559
-89.3742
-91.6052
-93.7522
-95.8187
-97.8079
-99.7231
-101.567
-103.343
-105.053
-106.701
-108.29
-109.821
-111.298
-112.724
-114.102
-115.436
-116.727
-117.981
-119.201
-120.392
-121.557
-122.703
-123.835
-124.958
-126.08
-127.207
-128.348
-129.51
-130.704
-131.938
-133.223
-134.57
-135.993
-137.502
-139.115
-140.844
-142.713
-144.729
-146.566
-148.095
-149.664
-151.283
-152.956
-154.681
-156.46
-158.293
-160.185
-162.132
-164.142
-166.208
-168.348
-170.542
-172.828
-175.159
-177.621
-180.095
-182.777
-185.389
-188.349
-191.029
-194.281
-196.673
-200.062
-10.658
3.09662
-2.69426
-9.51062
-14.724
-19.7681
-24.8215
-29.6326
-34.2248
-38.6347
-42.8646
-46.9192
-50.8084
-54.5397
-58.1215
-61.56
-64.8622
-68.0345
-71.0827
-74.0122
-76.8285
-79.5363
-82.1406
-84.6454
-87.0551
-89.3735
-91.6044
-93.7515
-95.818
-97.8072
-99.7224
-101.566
-103.342
-105.053
-106.701
-108.289
-109.82
-111.298
-112.724
-114.102
-115.435
-116.727
-117.981
-119.201
-120.391
-121.557
-122.702
-123.834
-124.957
-126.079
-127.206
-128.346
-129.509
-130.702
-131.935
-133.22
-134.567
-135.988
-137.497
-139.109
-140.836
-142.703
-144.718
-146.552
-148.078
-149.645
-151.261
-152.93
-154.651
-156.426
-158.254
-160.138
-162.077
-164.078
-166.133
-168.258
-170.436
-172.7
-175.007
-177.428
-179.866
-182.473
-185.025
-187.837
-190.405
-193.388
-195.595
-198.632
-10.9572
2.97011
-2.74266
-9.54818
-14.7497
-19.7859
-24.8344
-29.6419
-34.2314
-38.6394
-42.868
-46.9215
-50.8099
-54.5406
-58.122
-61.5601
-64.8622
-68.0342
-71.0823
-74.0117
-76.8279
-79.5357
-82.1399
-84.6447
-87.0544
-89.3728
-91.6037
-93.7508
-95.8173
-97.8066
-99.7217
-101.566
-103.342
-105.052
-106.7
-108.288
-109.82
-111.297
-112.723
-114.101
-115.434
-116.726
-117.98
-119.2
-120.39
-121.556
-122.701
-123.832
-124.955
-126.077
-127.204
-128.344
-129.505
-130.698
-131.931
-133.214
-134.56
-135.98
-137.487
-139.097
-140.822
-142.685
-144.696
-146.526
-148.049
-149.611
-151.223
-152.886
-154.6
-156.367
-158.186
-160.06
-161.987
-163.972
-166.011
-168.114
-170.267
-172.497
-174.767
-177.133
-179.516
-182.025
-184.488
-187.125
-189.546
-192.245
-194.256
-196.957
-11.2073
2.81984
-2.79863
-9.59262
-14.781
-19.8086
-24.8516
-29.655
-34.2413
-38.6469
-42.8737
-46.9258
-50.8131
-54.543
-58.1237
-61.5614
-64.863
-68.0347
-71.0825
-74.0118
-76.8278
-79.5355
-82.1396
-84.6443
-87.054
-89.3723
-91.6032
-93.7502
-95.8167
-97.806
-99.7211
-101.565
-103.341
-105.051
-106.699
-108.288
-109.819
-111.296
-112.722
-114.101
-115.434
-116.725
-117.979
-119.199
-120.389
-121.554
-122.699
-123.83
-124.953
-126.074
-127.2
-128.339
-129.5
-130.692
-131.923
-133.205
-134.549
-135.967
-137.471
-139.077
-140.798
-142.656
-144.66
-146.484
-148
-149.556
-151.159
-152.813
-154.517
-156.272
-158.077
-159.934
-161.842
-163.805
-165.817
-167.888
-170.005
-172.185
-174.403
-176.691
-178.994
-181.379
-183.719
-186.156
-188.397
-190.806
-192.613
-194.999
-11.3738
2.64711
-2.86102
-9.64362
-14.8176
-19.8356
-24.8731
-29.6721
-34.2549
-38.6577
-42.8823
-46.9327
-50.8186
-54.5474
-58.1272
-61.5641
-64.8652
-68.0364
-71.0838
-74.0127
-76.8285
-79.536
-82.1399
-84.6445
-87.054
-89.3723
-91.6031
-93.75
-95.8165
-97.8057
-99.7208
-101.565
-103.341
-105.051
-106.699
-108.287
-109.819
-111.296
-112.722
-114.1
-115.433
-116.724
-117.978
-119.198
-120.387
-121.552
-122.697
-123.827
-124.949
-126.069
-127.195
-128.333
-129.492
-130.681
-131.911
-133.19
-134.53
-135.945
-137.444
-139.045
-140.759
-142.608
-144.603
-146.415
-147.922
-149.467
-151.058
-152.698
-154.386
-156.122
-157.906
-159.739
-161.618
-163.547
-165.521
-167.544
-169.607
-171.718
-173.859
-176.046
-178.239
-180.47
-182.65
-184.865
-186.897
-189.017
-190.616
-192.708
-11.4179
2.45501
-2.9271
-9.70053
-14.8586
-19.8663
-24.8982
-29.6928
-34.2719
-38.6718
-42.894
-46.9425
-50.8267
-54.5542
-58.1329
-61.5689
-64.8691
-68.0397
-71.0866
-74.015
-76.8304
-79.5376
-82.1412
-84.6456
-87.0549
-89.373
-91.6037
-93.7505
-95.8168
-97.806
-99.721
-101.565
-103.341
-105.051
-106.699
-108.287
-109.818
-111.295
-112.721
-114.099
-115.432
-116.723
-117.977
-119.196
-120.385
-121.55
-122.694
-123.823
-124.944
-126.063
-127.186
-128.322
-129.479
-130.666
-131.891
-133.167
-134.502
-135.91
-137.402
-138.994
-140.698
-142.534
-144.513
-146.309
-147.8
-149.33
-150.902
-152.52
-154.184
-155.892
-157.644
-159.441
-161.278
-163.158
-165.075
-167.031
-169.017
-171.036
-173.071
-175.126
-177.172
-179.22
-181.207
-183.18
-184.982
-186.818
-188.208
-190.022
-11.3
2.24884
-2.99226
-9.76241
-14.903
-19.8992
-24.9258
-29.7163
-34.2916
-38.6887
-42.9086
-46.955
-50.8375
-54.5635
-58.141
-61.5759
-64.8752
-68.045
-71.0912
-74.0191
-76.834
-79.5407
-82.1439
-84.648
-87.057
-89.3748
-91.6053
-93.7519
-95.8181
-97.807
-99.7219
-101.566
-103.341
-105.052
-106.699
-108.287
-109.819
-111.296
-112.721
-114.099
-115.432
-116.722
-117.975
-119.194
-120.383
-121.546
-122.689
-123.817
-124.936
-126.053
-127.174
-128.307
-129.46
-130.642
-131.862
-133.131
-134.459
-135.857
-137.338
-138.917
-140.604
-142.421
-144.376
-146.146
-147.616
-149.122
-150.665
-152.252
-153.879
-155.547
-157.252
-158.995
-160.773
-162.582
-164.42
-166.283
-168.163
-170.058
-171.952
-173.843
-175.706
-177.542
-179.305
-181.022
-182.581
-184.138
-185.322
-186.868
-10.9837
2.03889
-3.05046
-9.8281
-14.9496
-19.9326
-24.9541
-29.7409
-34.3129
-38.7073
-42.925
-46.9696
-50.8505
-54.5751
-58.1512
-61.5851
-64.8834
-68.0524
-71.0978
-74.025
-76.8393
-79.5455
-82.1483
-84.6519
-87.0605
-89.378
-91.6082
-93.7546
-95.8205
-97.8093
-99.7239
-101.568
-103.343
-105.053
-106.701
-108.289
-109.819
-111.296
-112.722
-114.099
-115.431
-116.722
-117.974
-119.192
-120.379
-121.541
-122.683
-123.809
-124.925
-126.039
-127.156
-128.284
-129.431
-130.607
-131.819
-133.078
-134.393
-135.778
-137.242
-138.8
-140.463
-142.25
-144.169
-145.904
-147.34
-148.809
-150.312
-151.852
-153.427
-155.035
-156.674
-158.342
-160.034
-161.746
-163.475
-165.213
-166.953
-168.687
-170.405
-172.096
-173.743
-175.341
-176.857
-178.308
-179.617
-180.903
-181.88
-183.165
-10.4423
1.84315
-3.09372
-9.8962
-14.9972
-19.9648
-24.9815
-29.765
-34.3339
-38.726
-42.9419
-46.9849
-50.8644
-54.5878
-58.1628
-61.5957
-64.8932
-68.0613
-71.106
-74.0325
-76.8462
-79.5519
-82.1542
-84.6574
-87.0656
-89.3828
-91.6126
-93.7587
-95.8243
-97.8128
-99.7272
-101.571
-103.346
-105.056
-106.703
-108.291
-109.821
-111.298
-112.723
-114.1
-115.431
-116.721
-117.972
-119.189
-120.375
-121.535
-122.673
-123.796
-124.909
-126.017
-127.129
-128.25
-129.389
-130.554
-131.754
-132.998
-134.296
-135.659
-137.098
-138.627
-140.254
-141.997
-143.864
-145.544
-146.933
-148.349
-149.792
-151.265
-152.766
-154.291
-155.837
-157.399
-158.975
-160.557
-162.139
-163.716
-165.277
-166.815
-168.318
-169.777
-171.179
-172.518
-173.771
-174.952
-176.007
-177.028
-177.799
-178.825
-9.67441
1.67894
-3.1055
-9.96367
-15.0447
-19.9938
-25.006
-29.7868
-34.3527
-38.7429
-42.9574
-46.9992
-50.8776
-54.6001
-58.1743
-61.6064
-64.9032
-68.0708
-71.1149
-74.0408
-76.8541
-79.5593
-82.1611
-84.6639
-87.0718
-89.3886
-91.6182
-93.7639
-95.8293
-97.8175
-99.7317
-101.575
-103.35
-105.059
-106.706
-108.294
-109.824
-111.3
-112.725
-114.101
-115.431
-116.72
-117.969
-119.184
-120.368
-121.525
-122.66
-123.778
-124.885
-125.987
-127.089
-128.2
-129.326
-130.476
-131.657
-132.88
-134.152
-135.485
-136.887
-138.371
-139.946
-141.626
-143.416
-145.02
-146.341
-147.681
-149.04
-150.419
-151.816
-153.227
-154.645
-156.068
-157.488
-158.901
-160.298
-161.672
-163.016
-164.32
-165.577
-166.777
-167.912
-168.977
-169.96
-170.868
-171.67
-172.432
-172.995
-173.763
-8.73565
1.55487
-3.0573
-10.0226
-15.0895
-20.0176
-25.0259
-29.8044
-34.3675
-38.756
-42.9695
-47.0105
-50.8882
-54.6101
-58.1839
-61.6155
-64.912
-68.0791
-71.1229
-74.0485
-76.8615
-79.5664
-82.168
-84.6705
-87.0781
-89.3947
-91.624
-93.7696
-95.8347
-97.8227
-99.7367
-101.58
-103.354
-105.064
-106.71
-108.297
-109.827
-111.303
-112.726
-114.101
-115.431
-116.718
-117.965
-119.177
-120.357
-121.51
-122.64
-123.751
-124.85
-125.941
-127.031
-128.126
-129.234
-130.362
-131.517
-132.707
-133.942
-135.23
-136.579
-137.999
-139.499
-141.088
-142.771
-144.267
-145.491
-146.727
-147.97
-149.221
-150.478
-151.736
-152.987
-154.228
-155.453
-156.654
-157.825
-158.959
-160.05
-161.091
-162.075
-162.997
-163.851
-164.636
-165.345
-165.984
-166.535
-167.045
-167.402
-167.918
-7.75797
1.46069
-2.92722
-10.0562
-15.1243
-20.0314
-25.0381
-29.8159
-34.3765
-38.7637
-42.9765
-47.017
-50.8943
-54.616
-58.1896
-61.6211
-64.9175
-68.0845
-71.1282
-74.0538
-76.8667
-79.5715
-82.1731
-84.6755
-87.0831
-89.3996
-91.6288
-93.7743
-95.8394
-97.8272
-99.7411
-101.584
-103.358
-105.067
-106.714
-108.3
-109.83
-111.304
-112.727
-114.101
-115.428
-116.713
-117.958
-119.166
-120.341
-121.488
-122.609
-123.711
-124.797
-125.874
-126.946
-128.019
-129.1
-130.196
-131.312
-132.458
-133.638
-134.862
-136.135
-137.465
-138.858
-140.321
-141.855
-143.204
-144.297
-145.389
-146.477
-147.561
-148.636
-149.697
-150.738
-151.755
-152.741
-153.691
-154.6
-155.462
-156.273
-157.027
-157.723
-158.357
-158.926
-159.431
-159.869
-160.247
-160.554
-160.823
-160.979
-161.25
-6.84763
1.33947
-2.74982
-10.0558
-15.1398
-20.0277
-25.0366
-29.8174
-34.377
-38.7636
-42.9765
-47.017
-50.8943
-54.616
-58.1899
-61.6216
-64.9182
-68.0854
-71.1293
-74.0551
-76.8681
-79.5731
-82.1748
-84.6774
-87.0851
-89.4017
-91.6311
-93.7766
-95.8417
-97.8296
-99.7434
-101.586
-103.36
-105.069
-106.716
-108.302
-109.83
-111.304
-112.725
-114.097
-115.423
-116.704
-117.944
-119.147
-120.315
-121.453
-122.564
-123.651
-124.721
-125.776
-126.822
-127.864
-128.907
-129.957
-131.02
-132.101
-133.205
-134.339
-135.506
-136.712
-137.959
-139.25
-140.583
-141.736
-142.656
-143.563
-144.453
-145.325
-146.174
-146.996
-147.786
-148.539
-149.252
-149.92
-150.54
-151.11
-151.625
-152.085
-152.489
-152.836
-153.127
-153.363
-153.544
-153.676
-153.753
-153.799
-153.766
-153.809
-6.01862
1.219
-2.59778
-10.0618
-15.1536
-20.0157
-25.0246
-29.8091
-34.3687
-38.7546
-42.9683
-47.0094
-50.8872
-54.6095
-58.1839
-61.6162
-64.9132
-68.0809
-71.1252
-74.0514
-76.8648
-79.5702
-82.1722
-84.6751
-87.0831
-89.4
-91.6295
-93.7753
-95.8406
-97.8286
-99.7425
-101.585
-103.36
-105.068
-106.714
-108.299
-109.827
-111.3
-112.719
-114.089
-115.411
-116.688
-117.922
-119.118
-120.276
-121.402
-122.497
-123.565
-124.61
-125.635
-126.645
-127.644
-128.634
-129.622
-130.609
-131.601
-132.601
-133.612
-134.636
-135.674
-136.726
-137.791
-138.863
-139.764
-140.467
-141.143
-141.791
-142.408
-142.991
-143.536
-144.04
-144.501
-144.916
-145.284
-145.603
-145.872
-146.091
-146.26
-146.381
-146.454
-146.481
-146.466
-146.408
-146.314
-146.182
-146.025
-145.819
-145.651
-5.44918
1.17507
-2.48419
-10.0659
-15.1665
-20.0128
-25.0221
-29.8076
-34.3657
-38.7501
-42.9633
-47.0037
-50.8817
-54.6044
-58.1785
-61.6106
-64.9078
-68.0757
-71.1202
-74.0466
-76.8603
-79.566
-82.1682
-84.6713
-87.0795
-89.3966
-91.6263
-93.7722
-95.8376
-97.8257
-99.7396
-101.582
-103.356
-105.065
-106.71
-108.295
-109.822
-111.292
-112.71
-114.077
-115.395
-116.666
-117.894
-119.08
-120.227
-121.337
-122.414
-123.459
-124.475
-125.465
-126.431
-127.377
-128.305
-129.217
-130.116
-131.004
-131.881
-132.749
-133.607
-134.455
-135.288
-136.102
-136.892
-137.525
-138
-138.44
-138.843
-139.207
-139.531
-139.813
-140.05
-140.244
-140.392
-140.495
-140.554
-140.569
-140.541
-140.473
-140.366
-140.222
-140.044
-139.835
-139.597
-139.334
-139.047
-138.743
-138.413
-138.095
-5.18786
1.16396
-2.43285
-10.0657
-15.1705
-20.011
-25.0215
-29.8074
-34.3647
-38.7487
-42.9615
-47.0014
-50.8796
-54.6024
-58.1761
-61.608
-64.905
-68.0729
-71.1177
-74.0444
-76.8582
-79.5637
-82.1659
-84.6691
-87.0773
-89.3944
-91.6242
-93.7701
-95.8356
-97.8237
-99.7376
-101.58
-103.354
-105.062
-106.707
-108.291
-109.816
-111.286
-112.701
-114.064
-115.378
-116.644
-117.865
-119.041
-120.176
-121.271
-122.328
-123.348
-124.334
-125.287
-126.209
-127.101
-127.964
-128.799
-129.608
-130.389
-131.143
-131.868
-132.563
-133.223
-133.844
-134.419
-134.943
-135.33
-135.598
-135.825
-136.012
-136.156
-136.258
-136.316
-136.332
-136.305
-136.237
-136.129
-135.983
-135.801
-135.584
-135.335
-135.056
-134.751
-134.422
-134.073
-133.704
-133.321
-132.924
-132.517
-132.101
-131.681
-5.21666
1.18103
-2.4341
-10.0601
-15.1656
-20.0083
-25.0193
-29.8056
-34.3633
-38.7475
-42.9606
-47.0006
-50.8789
-54.6017
-58.1755
-61.6075
-64.9046
-68.0725
-71.1174
-74.0441
-76.8578
-79.5634
-82.1657
-84.6688
-87.0771
-89.3942
-91.624
-93.7699
-95.8353
-97.8234
-99.7372
-101.58
-103.353
-105.061
-106.705
-108.288
-109.812
-111.28
-112.693
-114.053
-115.363
-116.623
-117.836
-119.003
-120.125
-121.204
-122.241
-123.237
-124.192
-125.108
-125.984
-126.821
-127.619
-128.378
-129.096
-129.772
-130.404
-130.989
-131.524
-132.004
-132.423
-132.775
-133.053
-133.214
-133.296
-133.334
-133.33
-133.284
-133.196
-133.066
-132.897
-132.691
-132.448
-132.172
-131.864
-131.528
-131.166
-130.781
-130.375
-129.952
-129.513
-129.062
-128.602
-128.134
-127.661
-127.184
-126.708
-126.221
-5.53622
1.2272
-2.48811
-10.0494
-15.1517
-20.0048
-25.0157
-29.8023
-34.3617
-38.7468
-42.9606
-47.0015
-50.8798
-54.6027
-58.1771
-61.6093
-64.9067
-68.0747
-71.1193
-74.0458
-76.8596
-79.5653
-82.1676
-84.6707
-87.0789
-89.396
-91.6257
-93.7715
-95.8368
-97.8247
-99.7383
-101.58
-103.354
-105.061
-106.705
-108.287
-109.81
-111.276
-112.686
-114.043
-115.349
-116.604
-117.809
-118.967
-120.077
-121.14
-122.158
-123.129
-124.055
-124.934
-125.766
-126.551
-127.286
-127.97
-128.601
-129.177
-129.693
-130.147
-130.533
-130.847
-131.082
-131.231
-131.289
-131.253
-131.173
-131.05
-130.886
-130.68
-130.435
-130.152
-129.833
-129.482
-129.101
-128.693
-128.26
-127.806
-127.334
-126.846
-126.345
-125.834
-125.315
-124.792
-124.265
-123.737
-123.211
-122.687
-122.171
-121.641
-6.15646
1.3079
-2.60072
-10.0332
-15.1289
-20.0023
-25.0145
-29.8009
-34.3626
-38.7501
-42.9646
-47.0065
-50.8847
-54.6072
-58.182
-61.6144
-64.9118
-68.0795
-71.1239
-74.0501
-76.8637
-79.5692
-82.1713
-84.6742
-87.0822
-89.3991
-91.6286
-93.7742
-95.8393
-97.827
-99.7403
-101.582
-103.355
-105.062
-106.705
-108.286
-109.808
-111.272
-112.681
-114.035
-115.336
-116.585
-117.784
-118.933
-120.031
-121.08
-122.08
-123.029
-123.926
-124.771
-125.562
-126.298
-126.974
-127.59
-128.141
-128.624
-129.035
-129.369
-129.621
-129.785
-129.857
-129.829
-129.696
-129.492
-129.276
-129.017
-128.719
-128.382
-128.008
-127.6
-127.162
-126.696
-126.206
-125.695
-125.167
-124.623
-124.068
-123.503
-122.932
-122.356
-121.78
-121.203
-120.629
-120.06
-119.496
-118.938
-118.394
-117.837
-7.01019
1.45491
-2.74827
-10.0181
-15.1095
-20.0104
-25.0238
-29.8069
-34.3691
-38.7576
-42.9715
-47.0129
-50.8908
-54.6128
-58.1871
-61.6191
-64.916
-68.0833
-71.1274
-74.0533
-76.8665
-79.5716
-82.1734
-84.6759
-87.0837
-89.4003
-91.6296
-93.775
-95.8398
-97.8273
-99.7404
-101.582
-103.355
-105.061
-106.703
-108.284
-109.805
-111.267
-112.674
-114.026
-115.324
-116.569
-117.762
-118.903
-119.993
-121.03
-122.014
-122.945
-123.819
-124.637
-125.395
-126.09
-126.719
-127.279
-127.766
-128.175
-128.502
-128.741
-128.887
-128.935
-128.881
-128.716
-128.44
-128.109
-127.791
-127.433
-127.036
-126.603
-126.137
-125.64
-125.116
-124.57
-124.005
-123.423
-122.828
-122.224
-121.612
-120.996
-120.379
-119.762
-119.149
-118.54
-117.938
-117.343