/*--------------------------------*- C++ -*----------------------------------*\
| =========                 |                                                 |
| \\      /  F ield         | OpenFOAM: The Open Source CFD Toolbox           |
|  \\    /   O peration     | Version:  2306                                  |
|   \\  /    A nd           | Website:  www.openfoam.com                      |
|    \\/     M anipulation  |                                                 |
\*---------------------------------------------------------------------------*/
FoamFile
{
    version     2.0;
    format      ascii;
    arch        "LSB;label=32;scalar=64";
    class       surfaceScalarField;
    location    "1600";
    object      phi;
}
// * * * * * * * * * * * * * * * * * * * * * * * * * * * * * * * * * * * * * //

dimensions      [0 3 -1 0 0 0 0];

oriented        oriented;

internalField   nonuniform List<scalar> 
40747
(
9.5456e-06
5.33489e-06
3.70007e-06
5.84553e-06
1.15584e-05
1.17778e-05
6.72674e-06
8.53174e-06
1.39997e-05
1.95549e-05
9.37284e-06
1.13536e-05
1.69626e-05
2.89361e-05
1.18399e-05
1.44956e-05
2.05616e-05
4.02434e-05
1.42267e-05
1.81748e-05
2.49373e-05
5.38589e-05
1.65865e-05
2.25775e-05
3.02631e-05
7.02341e-05
1.89506e-05
2.78991e-05
3.6754e-05
8.98997e-05
2.13391e-05
3.43655e-05
4.46769e-05
0.000113475
2.37674e-05
4.22486e-05
5.43654e-05
0.000141677
2.62519e-05
5.18809e-05
6.6238e-05
0.000175322
2.88158e-05
6.3674e-05
8.08227e-05
0.000215331
3.14982e-05
7.81403e-05
9.87899e-05
0.000262715
3.4366e-05
9.59221e-05
0.000120996
0.000318549
3.75322e-05
0.00011783
0.000148541
0.000383924
4.11812e-05
0.000144892
0.000182849
0.000459855
4.56036e-05
0.000178427
0.000225774
0.000547135
5.1241e-05
0.000220136
0.000279738
0.000646106
5.87398e-05
0.00027224
0.000347924
0.000756317
6.90079e-05
0.000337656
0.000434509
0.000876027
8.32611e-05
0.000420256
0.000544965
0.00100152
0.00010302
0.000525205
0.00068637
0.00112621
0.00012997
0.000659419
0.000867658
0.00123972
0.00016549
0.000832138
0.00109955
0.00132712
0.000209486
0.00105556
0.00139404
0.00136896
0.00025827
0.00134526
0.00176368
0.00134231
0.000302673
0.00171927
0.00221751
0.00122614
0.00032757
0.00219261
0.00274474
0.00102343
0.000312655
0.00275965
0.00333331
0.000765292
0.000253827
0.00339213
0.00401786
0.000467559
0.000167473
0.00410421
0.00383404
0.000198031
8.19079e-05
0.00391959
0.00382699
-6.44529e-05
-3.41696e-06
0.00391231
0.00382741
-0.000327354
-8.86647e-05
0.00391265
0.00383521
-0.000598056
-0.000173988
0.00392053
0.00389706
-0.000887853
-0.000257433
0.0039805
0.0032532
-0.00114019
-0.000314181
0.00330995
0.00269543
-0.00133921
-0.000328255
0.0027095
0.00219169
-0.00145415
-0.000303254
0.00216668
0.00175421
-0.00148071
-0.000258745
0.00170969
0.0013949
-0.0014384
-0.000209575
0.00134573
0.00110647
-0.00134926
-0.000164909
0.0010618
0.00087778
-0.00123242
-0.000128606
0.000841477
0.000697879
-0.00110287
-0.000100946
0.000670218
0.000556766
-0.000971309
-8.06594e-05
0.00053648
0.000445979
-0.00084467
-6.61027e-05
0.000431422
0.000358731
-0.000727043
-5.57476e-05
0.000348375
0.000289728
-0.00062049
-4.83451e-05
0.000282325
0.000234894
-0.000525721
-4.29441e-05
0.000229493
0.000191108
-0.000442583
-3.88553e-05
0.000187019
0.000155975
-0.000370415
-3.5598e-05
0.000152718
0.00012766
-0.000308283
-3.2849e-05
0.000124911
0.000104743
-0.000255139
-3.03993e-05
0.000102293
8.6125e-05
-0.000209919
-2.81192e-05
8.38449e-05
7.09485e-05
-0.000171602
-2.59317e-05
6.8761e-05
5.85402e-05
-0.000139245
-2.37933e-05
5.64018e-05
4.83683e-05
-0.000111996
-2.16805e-05
4.62555e-05
4.00108e-05
-8.91009e-05
-1.95803e-05
3.79107e-05
3.31303e-05
-6.99004e-05
-1.74841e-05
3.1034e-05
2.74562e-05
-5.38228e-05
-1.53818e-05
2.53539e-05
2.27701e-05
-4.03773e-05
-1.3258e-05
2.06463e-05
1.88951e-05
-2.91449e-05
-1.10858e-05
1.67229e-05
1.56875e-05
-1.97695e-05
-8.81613e-06
1.34179e-05
1.30299e-05
-1.19496e-05
-6.35563e-06
1.05694e-05
1.08263e-05
-5.43112e-06
-3.51043e-06
7.9811e-06
8.99796e-06
5.48753e-06
2.62377e-06
3.22176e-06
2.03544e-06
5.88328e-07
1.87925e-06
1.56194e-07
1.78831e-06
9.0932e-08
1.72774e-06
6.05701e-08
1.68546e-06
4.22866e-08
1.65431e-06
3.11479e-08
1.63038e-06
2.39245e-08
1.61155e-06
1.88341e-08
1.59642e-06
1.51296e-08
1.58405e-06
1.2367e-08
1.57381e-06
1.02461e-08
1.56522e-06
8.5832e-09
1.55797e-06
7.25609e-09
1.55178e-06
6.18466e-09
1.54648e-06
5.30572e-09
1.5419e-06
4.58314e-09
1.53792e-06
3.97869e-09
1.53445e-06
3.46639e-09
1.53141e-06
3.03888e-09
1.52874e-06
2.6731e-09
1.52638e-06
2.36215e-09
1.52428e-06
2.09661e-09
1.52242e-06
1.86512e-09
1.52075e-06
1.66512e-09
1.51926e-06
1.4925e-09
1.51792e-06
1.3412e-09
1.51671e-06
1.20828e-09
1.51562e-06
1.09181e-09
1.51463e-06
9.88463e-10
1.51373e-06
8.97986e-10
1.51292e-06
8.16614e-10
1.51217e-06
7.44073e-10
1.5115e-06
6.7728e-10
1.51088e-06
6.17379e-10
1.51032e-06
5.60911e-10
1.50981e-06
5.09263e-10
1.50935e-06
4.5875e-10
1.50894e-06
4.10722e-10
1.50858e-06
3.61549e-10
1.50827e-06
3.12102e-10
1.50801e-06
2.60004e-10
1.5078e-06
2.03484e-10
1.50766e-06
1.42455e-10
1.50759e-06
7.46939e-11
1.50759e-06
-1.2589e-13
1.50767e-06
-8.68633e-11
1.50786e-06
-1.86917e-10
1.50816e-06
-2.99098e-10
1.50859e-06
-4.26322e-10
1.50916e-06
-5.71288e-10
1.5099e-06
-7.3871e-10
1.51082e-06
-9.26057e-10
1.51197e-06
-1.14082e-09
1.51335e-06
-1.38414e-09
1.51501e-06
-1.6574e-09
1.51697e-06
-1.96378e-09
1.51928e-06
-2.3089e-09
1.52198e-06
-2.69294e-09
1.52511e-06
-3.12948e-09
1.52872e-06
-3.61831e-09
1.53289e-06
-4.16591e-09
1.53769e-06
-4.80363e-09
1.54127e-06
-3.57065e-09
1.54506e-06
-3.79763e-09
1.54911e-06
-4.04361e-09
1.55341e-06
-4.29627e-09
1.55796e-06
-4.55107e-09
1.56278e-06
-4.81801e-09
1.56787e-06
-5.08786e-09
1.57324e-06
-5.37725e-09
1.57891e-06
-5.67019e-09
1.5849e-06
-5.98512e-09
1.59122e-06
-6.31854e-09
1.5979e-06
-6.67883e-09
1.60497e-06
-7.06746e-09
1.61246e-06
-7.496e-09
1.62045e-06
-7.98571e-09
1.62898e-06
-8.53019e-09
1.63818e-06
-9.19719e-09
1.64811e-06
-9.9382e-09
1.65914e-06
-1.10212e-08
1.67148e-06
-1.23437e-08
1.68468e-06
-1.32026e-08
1.70478e-06
-2.00965e-08
1.7196e-06
-1.48205e-08
1.75999e-06
-4.03924e-08
-7.52448e-07
2.51244e-06
5.78742e-06
5.96608e-06
4.8234e-06
1.55235e-06
4.52898e-06
4.50608e-07
4.35188e-06
2.68031e-07
4.23169e-06
1.80763e-07
4.14698e-06
1.26996e-07
4.08419e-06
9.39398e-08
4.03573e-06
7.23869e-08
3.99745e-06
5.71164e-08
3.96661e-06
4.59627e-08
3.94136e-06
3.76239e-08
3.92039e-06
3.12079e-08
3.90281e-06
2.61679e-08
3.88793e-06
2.21398e-08
3.87523e-06
1.88834e-08
3.86432e-06
1.62095e-08
3.8549e-06
1.40089e-08
3.84671e-06
1.21668e-08
3.83957e-06
1.06044e-08
3.83331e-06
9.29957e-09
3.8278e-06
8.18269e-09
3.82293e-06
7.23267e-09
3.81861e-06
6.42102e-09
3.81476e-06
5.71335e-09
3.81133e-06
5.10157e-09
3.80825e-06
4.57342e-09
3.80548e-06
4.11036e-09
3.80298e-06
3.7035e-09
3.80073e-06
3.34684e-09
3.79869e-06
3.03029e-09
3.79683e-06
2.7531e-09
3.79515e-06
2.50374e-09
3.79361e-06
2.28137e-09
3.79221e-06
2.07659e-09
3.79093e-06
1.89278e-09
3.78978e-06
1.71948e-09
3.78873e-06
1.56076e-09
3.78778e-06
1.40547e-09
3.78693e-06
1.25755e-09
3.78619e-06
1.10603e-09
3.78555e-06
9.53297e-10
3.78502e-06
7.92242e-10
3.7846e-06
6.17422e-10
3.78432e-06
4.28114e-10
3.78418e-06
2.17648e-10
3.78419e-06
-1.49582e-11
3.78439e-06
-2.84073e-10
3.7848e-06
-5.95971e-10
3.78545e-06
-9.45737e-10
3.78636e-06
-1.3416e-09
3.78758e-06
-1.79349e-09
3.78916e-06
-2.31515e-09
3.79114e-06
-2.89929e-09
3.79356e-06
-3.56869e-09
3.79651e-06
-4.32669e-09
3.80003e-06
-5.17875e-09
3.8042e-06
-6.13296e-09
3.8091e-06
-7.2092e-09
3.81481e-06
-8.40428e-09
3.82145e-06
-9.76559e-09
3.82912e-06
-1.12836e-08
3.83794e-06
-1.29923e-08
3.84811e-06
-1.4968e-08
3.85566e-06
-1.11183e-08
3.8637e-06
-1.18347e-08
3.87224e-06
-1.25862e-08
3.88132e-06
-1.33712e-08
3.89093e-06
-1.4162e-08
3.9011e-06
-1.49857e-08
3.91184e-06
-1.58224e-08
3.92317e-06
-1.67113e-08
3.93512e-06
-1.76222e-08
3.94772e-06
-1.85819e-08
3.96103e-06
-1.9626e-08
3.97506e-06
-2.07038e-08
3.98994e-06
-2.19483e-08
4.00562e-06
-2.31789e-08
4.02246e-06
-2.48194e-08
4.04018e-06
-2.62498e-08
4.05965e-06
-2.86754e-08
4.08001e-06
-3.02921e-08
4.1036e-06
-3.4609e-08
4.12817e-06
-3.69214e-08
4.15707e-06
-4.20969e-08
4.19589e-06
-5.89208e-08
4.2266e-06
-4.55249e-08
4.34424e-06
-1.58034e-07
-9.85032e-07
4.57682e-06
9.02067e-06
8.29899e-06
7.87031e-06
2.7027e-06
7.46669e-06
8.54228e-07
7.21322e-06
5.21509e-07
7.03726e-06
3.56716e-07
6.91204e-06
2.52217e-07
6.81866e-06
1.87322e-07
6.74628e-06
1.44768e-07
6.68894e-06
1.1445e-07
6.64267e-06
9.22304e-08
6.60472e-06
7.55828e-08
6.57317e-06
6.27498e-08
6.54669e-06
5.26537e-08
6.52425e-06
4.45753e-08
6.5051e-06
3.80383e-08
6.48864e-06
3.26662e-08
6.47441e-06
2.82415e-08
6.46204e-06
2.45363e-08
6.45125e-06
2.1392e-08
6.44179e-06
1.8764e-08
6.43346e-06
1.65143e-08
6.42609e-06
1.45996e-08
6.41955e-06
1.29631e-08
6.41373e-06
1.15365e-08
6.40853e-06
1.03024e-08
6.40386e-06
9.23676e-09
6.39967e-06
8.30245e-09
6.3959e-06
7.48125e-09
6.39248e-06
6.76124e-09
6.38939e-06
6.12206e-09
6.38658e-06
5.56202e-09
6.38403e-06
5.05833e-09
6.3817e-06
4.60887e-09
6.37958e-06
4.19496e-09
6.37765e-06
3.82294e-09
6.3759e-06
3.47219e-09
6.37431e-06
3.15028e-09
6.37288e-06
2.83522e-09
6.37161e-06
2.53425e-09
6.37049e-06
2.22579e-09
6.36953e-06
1.91382e-09
6.36874e-06
1.5844e-09
6.36813e-06
1.22615e-09
6.36772e-06
8.37182e-10
6.36754e-06
4.03877e-10
6.3676e-06
-7.65908e-11
6.36794e-06
-6.29377e-10
6.36862e-06
-1.27443e-09
6.36968e-06
-1.9994e-09
6.37115e-06
-2.81748e-09
6.37311e-06
-3.75336e-09
6.37563e-06
-4.8331e-09
6.37878e-06
-6.04398e-09
6.38264e-06
-7.43062e-09
6.38731e-06
-9.00049e-09
6.3929e-06
-1.07671e-08
6.39952e-06
-1.27442e-08
6.40728e-06
-1.49765e-08
6.41633e-06
-1.74527e-08
6.42685e-06
-2.02768e-08
6.43898e-06
-2.34185e-08
6.45296e-06
-2.69652e-08
6.46904e-06
-3.10459e-08
6.48097e-06
-2.30539e-08
6.49369e-06
-2.45518e-08
6.5072e-06
-2.609e-08
6.52155e-06
-2.77175e-08
6.53674e-06
-2.93578e-08
6.55281e-06
-3.10563e-08
6.56979e-06
-3.27922e-08
6.58769e-06
-3.46175e-08
6.60659e-06
-3.65141e-08
6.62648e-06
-3.8473e-08
6.64751e-06
-4.06594e-08
6.66963e-06
-4.28246e-08
6.69316e-06
-4.54773e-08
6.71785e-06
-4.78648e-08
6.7445e-06
-5.14635e-08
6.77228e-06
-5.40291e-08
6.80317e-06
-5.95679e-08
6.83487e-06
-6.19954e-08
6.87228e-06
-7.20146e-08
6.91026e-06
-7.48993e-08
6.95597e-06
-8.78054e-08
7.01483e-06
-1.17784e-07
7.06061e-06
-9.13047e-08
7.25203e-06
-3.49457e-07
-9.24025e-07
7.19102e-06
1.24916e-05
1.0303e-05
1.12307e-05
3.96359e-06
1.07312e-05
1.35374e-06
1.04015e-05
8.51209e-07
1.01667e-05
5.91483e-07
9.99772e-06
4.21189e-07
9.87089e-06
3.14157e-07
9.77214e-06
2.43517e-07
9.69369e-06
1.92895e-07
9.63027e-06
1.55659e-07
9.57815e-06
1.27698e-07
9.5348e-06
1.06105e-07
9.49836e-06
8.90919e-08
9.46747e-06
7.54637e-08
9.44108e-06
6.44261e-08
9.4184e-06
5.5349e-08
9.39877e-06
4.7867e-08
9.38171e-06
4.15997e-08
9.36683e-06
3.6279e-08
9.35376e-06
3.18282e-08
9.34226e-06
2.80181e-08
9.33209e-06
2.47736e-08
9.32305e-06
2.19993e-08
9.31501e-06
1.95815e-08
9.30782e-06
1.74887e-08
9.30138e-06
1.5681e-08
9.29558e-06
1.40963e-08
9.29036e-06
1.27029e-08
9.28564e-06
1.1481e-08
9.28137e-06
1.03962e-08
9.27749e-06
9.44497e-09
9.27396e-06
8.58979e-09
9.27074e-06
7.82624e-09
9.26781e-06
7.12315e-09
9.26515e-06
6.49041e-09
9.26272e-06
5.89397e-09
9.26053e-06
5.34544e-09
9.25856e-06
4.80862e-09
9.2568e-06
4.29444e-09
9.25526e-06
3.76745e-09
9.25394e-06
3.23281e-09
9.25286e-06
2.66776e-09
9.25203e-06
2.05234e-09
9.25148e-06
1.38266e-09
9.25125e-06
6.35597e-10
9.25137e-06
-1.96072e-10
9.25189e-06
-1.14674e-09
9.25288e-06
-2.26175e-09
9.2544e-06
-3.51958e-09
9.25652e-06
-4.93527e-09
9.25932e-06
-6.55651e-09
9.26292e-06
-8.42591e-09
9.2674e-06
-1.05256e-08
9.2729e-06
-1.29282e-08
9.27955e-06
-1.56477e-08
9.28749e-06
-1.87107e-08
9.29688e-06
-2.21371e-08
9.30792e-06
-2.60086e-08
9.32077e-06
-3.03002e-08
9.33569e-06
-3.51973e-08
9.35291e-06
-4.06374e-08
9.37273e-06
-4.67889e-08
9.39553e-06
-5.38378e-08
9.41244e-06
-3.99693e-08
9.43048e-06
-4.25813e-08
9.44961e-06
-4.52196e-08
9.46992e-06
-4.80326e-08
9.49144e-06
-5.0874e-08
9.51419e-06
-5.37996e-08
9.5382e-06
-5.68055e-08
9.56352e-06
-5.99353e-08
9.59024e-06
-6.32266e-08
9.61833e-06
-6.65662e-08
9.64804e-06
-7.03733e-08
9.67923e-06
-7.40112e-08
9.71244e-06
-7.86855e-08
9.74716e-06
-8.25781e-08
9.78472e-06
-8.90263e-08
9.82362e-06
-9.29345e-08
9.8671e-06
-1.03039e-07
9.91128e-06
-1.0618e-07
9.96358e-06
-1.24308e-07
1.00162e-05
-1.27536e-07
1.00797e-05
-1.51287e-07
1.01587e-05
-1.9681e-07
1.02242e-05
-1.56788e-07
1.04531e-05
-5.78311e-07
-8.39356e-07
1.03684e-05
1.64947e-05
1.19831e-05
1.51737e-05
5.2846e-06
1.45903e-05
1.93712e-06
1.41817e-05
1.25982e-06
1.38817e-05
8.91518e-07
1.36627e-05
6.40228e-07
1.34969e-05
4.79914e-07
1.33672e-05
3.73269e-07
1.32637e-05
2.96334e-07
1.31799e-05
2.395e-07
1.31109e-05
1.96711e-07
1.30534e-05
1.63597e-07
1.3005e-05
1.37464e-07
1.2964e-05
1.16504e-07
1.29289e-05
9.95121e-08
1.28987e-05
8.55274e-08
1.28726e-05
7.39907e-08
1.28498e-05
6.43235e-08
1.283e-05
5.61134e-08
1.28126e-05
4.92393e-08
1.27973e-05
4.33547e-08
1.27837e-05
3.83406e-08
1.27716e-05
3.40515e-08
1.27609e-05
3.03144e-08
1.27513e-05
2.70777e-08
1.27427e-05
2.42809e-08
1.2735e-05
2.18295e-08
1.2728e-05
1.96733e-08
1.27217e-05
1.77821e-08
1.2716e-05
1.61028e-08
1.27108e-05
1.46293e-08
1.27061e-05
1.33051e-08
1.27018e-05
1.21222e-08
1.26979e-05
1.10331e-08
1.26944e-05
1.00518e-08
1.26911e-05
9.12719e-09
1.26882e-05
8.27527e-09
1.26856e-05
7.44183e-09
1.26832e-05
6.64165e-09
1.26812e-05
5.82183e-09
1.26794e-05
4.98797e-09
1.2678e-05
4.10621e-09
1.26769e-05
3.14491e-09
1.26762e-05
2.09696e-09
1.26759e-05
9.26976e-10
1.26761e-05
-3.80691e-10
1.26768e-05
-1.86687e-09
1.26781e-05
-3.61364e-09
1.26802e-05
-5.59345e-09
1.26831e-05
-7.81916e-09
1.26869e-05
-1.03667e-08
1.26918e-05
-1.33029e-08
1.26979e-05
-1.66057e-08
1.27053e-05
-2.03816e-08
1.27143e-05
-2.46548e-08
1.27251e-05
-2.94708e-08
1.27378e-05
-3.48561e-08
1.27527e-05
-4.09438e-08
1.27701e-05
-4.76887e-08
1.27903e-05
-5.53858e-08
1.28136e-05
-6.39282e-08
1.28404e-05
-7.35965e-08
1.28712e-05
-8.46345e-08
1.28941e-05
-6.2817e-08
1.29184e-05
-6.69392e-08
1.29443e-05
-7.10467e-08
1.29717e-05
-7.54418e-08
1.30007e-05
-7.98953e-08
1.30314e-05
-8.44567e-08
1.30637e-05
-8.91641e-08
1.30978e-05
-9.40198e-08
1.31338e-05
-9.91782e-08
1.31715e-05
-1.04329e-07
1.32115e-05
-1.10307e-07
1.32533e-05
-1.15841e-07
1.32978e-05
-1.23235e-07
1.33443e-05
-1.29003e-07
1.33945e-05
-1.39298e-07
1.34464e-05
-1.44757e-07
1.35043e-05
-1.60987e-07
1.35629e-05
-1.64792e-07
1.3632e-05
-1.93394e-07
1.37014e-05
-1.96907e-07
1.3785e-05
-2.34927e-07
1.38846e-05
-2.96388e-07
1.39792e-05
-2.51392e-07
1.42093e-05
-8.08368e-07
-8.9234e-07
1.42622e-05
2.12604e-05
1.33001e-05
1.9926e-05
6.61909e-06
1.92769e-05
2.58621e-06
1.8789e-05
1.74772e-06
1.8417e-05
1.26351e-06
1.81404e-05
9.16745e-07
1.7929e-05
6.9134e-07
1.77624e-05
5.39908e-07
1.76289e-05
4.29784e-07
1.75204e-05
3.48007e-07
1.74309e-05
2.86233e-07
1.73562e-05
2.38307e-07
1.72932e-05
2.0041e-07
1.72398e-05
1.69969e-07
1.7194e-05
1.45262e-07
1.71546e-05
1.24909e-07
1.71205e-05
1.08102e-07
1.70908e-05
9.40129e-08
1.70649e-05
8.20421e-08
1.70422e-05
7.2009e-08
1.70221e-05
6.34196e-08
1.70043e-05
5.60963e-08
1.69886e-05
4.98284e-08
1.69745e-05
4.43687e-08
1.69619e-05
3.96369e-08
1.69507e-05
3.55468e-08
1.69405e-05
3.19621e-08
1.69314e-05
2.88079e-08
1.69232e-05
2.60407e-08
1.69157e-05
2.35833e-08
1.69089e-05
2.14254e-08
1.69027e-05
1.9487e-08
1.68971e-05
1.77544e-08
1.68919e-05
1.61598e-08
1.68873e-05
1.47214e-08
1.6883e-05
1.33668e-08
1.68792e-05
1.21166e-08
1.68757e-05
1.08943e-08
1.68727e-05
9.71828e-09
1.687e-05
8.51431e-09
1.68677e-05
7.28711e-09
1.68658e-05
5.98911e-09
1.68644e-05
4.57337e-09
1.68634e-05
3.02778e-09
1.68631e-05
1.3016e-09
1.68633e-05
-6.34445e-10
1.68643e-05
-2.82595e-09
1.68661e-05
-5.39868e-09
1.68688e-05
-8.32895e-09
1.68726e-05
-1.16265e-08
1.68776e-05
-1.53931e-08
1.68841e-05
-1.97322e-08
1.68921e-05
-2.46205e-08
1.69019e-05
-3.02036e-08
1.69138e-05
-3.65204e-08
1.6928e-05
-4.36429e-08
1.69447e-05
-5.16045e-08
1.69644e-05
-6.06068e-08
1.69873e-05
-7.05773e-08
1.70138e-05
-8.19525e-08
1.70445e-05
-9.45676e-08
1.70797e-05
-1.08852e-07
1.71202e-05
-1.25103e-07
1.71502e-05
-9.28251e-08
1.71822e-05
-9.89344e-08
1.72161e-05
-1.04954e-07
1.72521e-05
-1.11396e-07
1.72901e-05
-1.17948e-07
1.73303e-05
-1.24625e-07
1.73727e-05
-1.31542e-07
1.74173e-05
-1.38613e-07
1.74643e-05
-1.4619e-07
1.75136e-05
-1.53647e-07
1.75657e-05
-1.62431e-07
1.76202e-05
-1.70337e-07
1.76782e-05
-1.81252e-07
1.77385e-05
-1.89304e-07
1.78038e-05
-2.04557e-07
1.78709e-05
-2.11812e-07
1.79457e-05
-2.35835e-07
1.80213e-05
-2.40334e-07
1.81097e-05
-2.81808e-07
1.81983e-05
-2.85585e-07
1.83056e-05
-3.4215e-07
1.84261e-05
-4.16939e-07
1.85605e-05
-3.85796e-07
1.8771e-05
-1.0188e-06
-1.11919e-06
1.89978e-05
2.70151e-05
1.41841e-05
2.57172e-05
7.91698e-06
2.50295e-05
3.27389e-06
2.44672e-05
2.31001e-06
2.40182e-05
1.71252e-06
2.36767e-05
1.25821e-06
2.34122e-05
9.55901e-07
2.32018e-05
7.50259e-07
2.30324e-05
5.99235e-07
2.2894e-05
4.86349e-07
2.27796e-05
4.00714e-07
2.26838e-05
3.34067e-07
2.2603e-05
2.81237e-07
2.25342e-05
2.38721e-07
2.24753e-05
2.04162e-07
2.24246e-05
1.75662e-07
2.23806e-05
1.521e-07
2.23422e-05
1.32335e-07
2.23088e-05
1.15534e-07
2.22793e-05
1.01436e-07
2.22534e-05
8.93642e-08
2.22304e-05
7.9065e-08
2.221e-05
7.0244e-08
2.21918e-05
6.25626e-08
2.21755e-05
5.59001e-08
2.2161e-05
5.01387e-08
2.21478e-05
4.50896e-08
2.2136e-05
4.0645e-08
2.21253e-05
3.67449e-08
2.21156e-05
3.32808e-08
2.21068e-05
3.02364e-08
2.20988e-05
2.75027e-08
2.20915e-05
2.50581e-08
2.20848e-05
2.28092e-08
2.20788e-05
2.07781e-08
2.20733e-05
1.8867e-08
2.20683e-05
1.71002e-08
2.20638e-05
1.53745e-08
2.20598e-05
1.3711e-08
2.20563e-05
1.20098e-08
2.20533e-05
1.02728e-08
2.20509e-05
8.43565e-09
2.2049e-05
6.43189e-09
2.20478e-05
4.24186e-09
2.20473e-05
1.79602e-09
2.20477e-05
-9.5449e-10
2.20489e-05
-4.0622e-09
2.20512e-05
-7.69658e-09
2.20547e-05
-1.18522e-08
2.20596e-05
-1.65442e-08
2.20661e-05
-2.18878e-08
2.20744e-05
-2.80388e-08
2.20848e-05
-3.49785e-08
2.20975e-05
-4.28969e-08
2.21128e-05
-5.18525e-08
2.21311e-05
-6.19542e-08
2.21528e-05
-7.32417e-08
2.21782e-05
-8.6006e-08
2.22077e-05
-1.00138e-07
2.2242e-05
-1.16255e-07
2.22816e-05
-1.34116e-07
2.23271e-05
-1.54344e-07
2.23793e-05
-1.7728e-07
2.24179e-05
-1.3149e-07
2.24592e-05
-1.40161e-07
2.25028e-05
-1.48624e-07
2.25491e-05
-1.57662e-07
2.25981e-05
-1.66888e-07
2.26497e-05
-1.76245e-07
2.27041e-05
-1.8597e-07
2.27613e-05
-1.95826e-07
2.28216e-05
-2.06465e-07
2.28848e-05
-2.168e-07
2.29515e-05
-2.29123e-07
2.30211e-05
-2.3995e-07
2.30951e-05
-2.55285e-07
2.31719e-05
-2.66103e-07
2.32549e-05
-2.87523e-07
2.334e-05
-2.96906e-07
2.34346e-05
-3.30468e-07
2.35301e-05
-3.35822e-07
2.36409e-05
-3.92649e-07
2.3752e-05
-3.96628e-07
2.38868e-05
-4.76976e-07
2.40295e-05
-5.59684e-07
2.42116e-05
-5.67891e-07
2.44047e-05
-1.2119e-06
-1.45738e-06
2.47429e-05
3.40117e-05
1.45379e-05
3.28075e-05
9.12113e-06
3.21191e-05
3.96227e-06
3.14955e-05
2.93367e-06
3.09682e-05
2.23978e-06
3.05556e-05
1.67087e-06
3.02304e-05
1.28107e-06
2.99689e-05
1.01172e-06
2.97567e-05
8.11471e-07
2.95825e-05
6.60546e-07
2.94378e-05
5.45434e-07
2.93164e-05
4.55487e-07
2.92136e-05
3.83964e-07
2.91261e-05
3.26269e-07
2.9051e-05
2.79281e-07
2.89862e-05
2.40475e-07
2.89299e-05
2.08347e-07
2.88809e-05
1.81374e-07
2.8838e-05
1.58431e-07
2.88003e-05
1.39152e-07
2.8767e-05
1.22639e-07
2.87375e-05
1.0854e-07
2.87113e-05
9.64544e-08
2.86879e-05
8.59324e-08
2.8667e-05
7.67984e-08
2.86483e-05
6.88956e-08
2.86314e-05
6.19698e-08
2.86162e-05
5.58705e-08
2.86024e-05
5.05169e-08
2.85899e-05
4.57607e-08
2.85786e-05
4.15771e-08
2.85683e-05
3.7822e-08
2.85589e-05
3.44623e-08
2.85503e-05
3.1373e-08
2.85425e-05
2.85796e-08
2.85354e-05
2.59539e-08
2.8529e-05
2.35228e-08
2.85232e-05
2.11509e-08
2.85181e-05
1.88609e-08
2.85136e-05
1.65221e-08
2.85097e-05
1.4131e-08
2.85066e-05
1.16027e-08
2.85041e-05
8.84643e-09
2.85026e-05
5.83149e-09
2.85019e-05
2.46547e-09
2.85023e-05
-1.32639e-09
2.85038e-05
-5.61037e-09
2.85067e-05
-1.05958e-08
2.85112e-05
-1.63067e-08
2.85174e-05
-2.2785e-08
2.85257e-05
-3.01443e-08
2.85362e-05
-3.86051e-08
2.85494e-05
-4.81623e-08
2.85656e-05
-5.90568e-08
2.85851e-05
-7.13729e-08
2.86084e-05
-8.52686e-08
2.8636e-05
-1.0079e-07
2.86683e-05
-1.18341e-07
2.87059e-05
-1.37768e-07
2.87496e-05
-1.59908e-07
2.87999e-05
-1.84429e-07
2.88578e-05
-2.122e-07
2.89241e-05
-2.43586e-07
2.89732e-05
-1.80592e-07
2.90256e-05
-1.92509e-07
2.9081e-05
-2.04056e-07
2.91397e-05
-2.16339e-07
2.92017e-05
-2.28917e-07
2.92671e-05
-2.41616e-07
2.9336e-05
-2.5485e-07
2.94083e-05
-2.68157e-07
2.94844e-05
-2.82601e-07
2.95641e-05
-2.96482e-07
2.96482e-05
-3.13175e-07
2.97358e-05
-3.27566e-07
2.98288e-05
-3.48313e-07
2.99252e-05
-3.6249e-07
3.0029e-05
-3.91345e-07
3.01355e-05
-4.0336e-07
3.02532e-05
-4.48203e-07
3.03722e-05
-4.54804e-07
3.05091e-05
-5.29543e-07
3.06462e-05
-5.33689e-07
3.08128e-05
-6.43586e-07
3.09809e-05
-7.2783e-07
3.12131e-05
-8.0003e-07
3.14119e-05
-1.41069e-06
-1.83292e-06
3.17874e-05
4.2549e-05
1.42375e-05
4.15049e-05
1.01652e-05
4.08655e-05
4.60173e-06
4.02044e-05
3.59472e-06
3.96042e-05
2.84003e-06
3.91171e-05
2.15791e-06
3.8725e-05
1.67321e-06
3.84051e-05
1.33161e-06
3.81428e-05
1.07371e-06
3.79261e-05
8.77288e-07
3.77451e-05
7.26426e-07
3.75927e-05
6.07939e-07
3.74633e-05
5.13347e-07
3.73527e-05
4.36807e-07
3.72577e-05
3.74321e-07
3.71756e-05
3.22618e-07
3.71042e-05
2.79735e-07
3.70419e-05
2.43689e-07
3.69873e-05
2.13005e-07
3.69393e-05
1.87179e-07
3.68968e-05
1.65048e-07
3.68593e-05
1.46134e-07
3.68258e-05
1.29905e-07
3.6796e-05
1.15777e-07
3.67693e-05
1.035e-07
3.67453e-05
9.28722e-08
3.67237e-05
8.35571e-08
3.67042e-05
7.53494e-08
3.66866e-05
6.81428e-08
3.66706e-05
6.17385e-08
3.66561e-05
5.60996e-08
3.66429e-05
5.10402e-08
3.66309e-05
4.6511e-08
3.66199e-05
4.23489e-08
3.66099e-05
3.8581e-08
3.66008e-05
3.5043e-08
3.65926e-05
3.17629e-08
3.65851e-05
2.8567e-08
3.65785e-05
2.5477e-08
3.65727e-05
2.23266e-08
3.65678e-05
1.91028e-08
3.65637e-05
1.56956e-08
3.65605e-05
1.19845e-08
3.65584e-05
7.9233e-09
3.65575e-05
3.39175e-09
3.65579e-05
-1.71745e-09
3.65598e-05
-7.49485e-09
3.65634e-05
-1.41874e-08
3.65689e-05
-2.18527e-08
3.65767e-05
-3.05854e-08
3.65871e-05
-4.04939e-08
3.66004e-05
-5.18719e-08
3.66169e-05
-6.47301e-08
3.66373e-05
-7.93747e-08
3.66618e-05
-9.59217e-08
3.66911e-05
-1.14594e-07
3.67258e-05
-1.35442e-07
3.67665e-05
-1.59015e-07
3.68138e-05
-1.85099e-07
3.68687e-05
-2.14803e-07
3.6932e-05
-2.4768e-07
3.70047e-05
-2.84906e-07
3.70879e-05
-3.26855e-07
3.71496e-05
-2.4221e-07
3.72152e-05
-2.58185e-07
3.72848e-05
-2.7358e-07
3.73583e-05
-2.89873e-07
3.7436e-05
-3.06598e-07
3.75178e-05
-3.23417e-07
3.76039e-05
-3.40975e-07
3.76943e-05
-3.58507e-07
3.77893e-05
-3.77609e-07
3.78886e-05
-3.95817e-07
3.79933e-05
-4.17807e-07
3.81022e-05
-4.36532e-07
3.82177e-05
-4.63755e-07
3.83373e-05
-4.82052e-07
3.84655e-05
-5.19607e-07
3.85972e-05
-5.35041e-07
3.87418e-05
-5.92826e-07
3.88884e-05
-6.01405e-07
3.90555e-05
-6.96568e-07
3.92229e-05
-7.01183e-07
3.94253e-05
-8.45949e-07
3.96248e-05
-9.27364e-07
3.99047e-05
-1.07987e-06
4.01372e-05
-1.64326e-06
-2.21511e-06
4.05194e-05
5.29878e-05
1.31307e-05
5.21814e-05
1.09715e-05
5.16526e-05
5.13053e-06
5.09915e-05
4.25589e-06
5.03331e-05
3.49844e-06
4.9774e-05
2.71698e-06
4.93113e-05
2.13588e-06
4.89269e-05
1.71608e-06
4.86076e-05
1.39293e-06
4.83414e-05
1.14352e-06
4.81176e-05
9.50242e-07
4.79281e-05
7.97437e-07
4.77666e-05
6.74821e-07
4.76282e-05
5.75213e-07
4.75089e-05
4.93638e-07
4.74055e-05
4.25977e-07
4.73155e-05
3.6973e-07
4.72369e-05
3.22374e-07
4.71679e-05
2.8202e-07
4.7107e-05
2.47989e-07
4.70533e-05
2.18802e-07
4.70056e-05
1.93834e-07
4.69631e-05
1.72379e-07
4.69252e-05
1.53704e-07
4.68912e-05
1.37458e-07
4.68607e-05
1.23382e-07
4.68333e-05
1.11043e-07
4.68084e-05
1.00164e-07
4.6786e-05
9.06073e-08
4.67656e-05
8.21119e-08
4.67471e-05
7.46237e-08
4.67302e-05
6.79067e-08
4.67149e-05
6.18905e-08
4.67008e-05
5.63653e-08
4.66881e-05
5.13574e-08
4.66765e-05
4.66608e-08
4.66659e-05
4.23008e-08
4.66564e-05
3.80596e-08
4.6648e-05
3.39542e-08
4.66405e-05
2.97764e-08
4.66341e-05
2.54993e-08
4.66288e-05
2.09818e-08
4.66248e-05
1.60679e-08
4.6622e-05
1.06899e-08
4.66207e-05
4.69367e-09
4.6621e-05
-2.06751e-09
4.66233e-05
-9.72205e-09
4.66276e-05
-1.85555e-08
4.66345e-05
-2.86619e-08
4.66441e-05
-4.02061e-08
4.66569e-05
-5.33035e-08
4.66734e-05
-6.83333e-08
4.6694e-05
-8.53151e-08
4.67192e-05
-1.04641e-07
4.67498e-05
-1.26461e-07
4.67863e-05
-1.51087e-07
4.68294e-05
-1.78572e-07
4.688e-05
-2.09643e-07
4.6939e-05
-2.44015e-07
4.70073e-05
-2.8312e-07
4.7086e-05
-3.26374e-07
4.71764e-05
-3.75331e-07
4.72799e-05
-4.30362e-07
4.73565e-05
-3.18747e-07
4.7438e-05
-3.39729e-07
4.75243e-05
-3.59881e-07
4.76155e-05
-3.81086e-07
4.77118e-05
-4.02882e-07
4.78131e-05
-4.24726e-07
4.79197e-05
-4.47547e-07
4.80314e-05
-4.70207e-07
4.81488e-05
-4.94934e-07
4.82713e-05
-5.18387e-07
4.84002e-05
-5.46692e-07
4.85344e-05
-5.70692e-07
4.86761e-05
-6.05494e-07
4.8823e-05
-6.28901e-07
4.89798e-05
-6.76395e-07
4.91411e-05
-6.96391e-07
4.93169e-05
-7.68624e-07
4.94959e-05
-7.80425e-07
4.96975e-05
-8.98119e-07
4.99008e-05
-9.04457e-07
5.01426e-05
-1.08774e-06
5.03816e-05
-1.16641e-06
5.07058e-05
-1.40403e-06
5.09892e-05
-1.92667e-06
-2.60992e-06
5.1384e-05
6.57692e-05
1.10355e-05
6.52909e-05
1.14498e-05
6.49465e-05
5.47496e-06
6.43375e-05
4.86487e-06
6.36486e-05
4.18734e-06
6.30286e-05
3.33702e-06
6.24971e-05
2.66736e-06
6.20448e-05
2.16835e-06
6.1663e-05
1.77469e-06
6.13409e-05
1.46567e-06
6.10677e-05
1.22344e-06
6.08348e-05
1.03031e-06
6.06353e-05
8.7431e-07
6.04636e-05
7.46934e-07
6.03151e-05
6.42193e-07
6.0186e-05
5.55043e-07
6.00733e-05
4.82382e-07
5.99746e-05
4.21075e-07
5.98879e-05
3.68759e-07
5.98114e-05
3.24538e-07
5.97436e-05
2.86569e-07
5.96834e-05
2.54045e-07
5.96297e-05
2.26052e-07
5.95818e-05
2.01681e-07
5.95388e-05
1.80454e-07
5.95001e-05
1.62043e-07
5.94653e-05
1.45898e-07
5.94338e-05
1.31653e-07
5.94053e-05
1.19133e-07
5.93794e-05
1.07998e-07
5.93558e-05
9.8171e-08
5.93344e-05
8.93576e-08
5.93148e-05
8.1459e-08
5.9297e-05
7.42099e-08
5.92807e-05
6.76311e-08
5.92659e-05
6.14694e-08
5.92525e-05
5.57425e-08
5.92404e-05
5.0181e-08
5.92295e-05
4.47932e-08
5.922e-05
3.93215e-08
5.92118e-05
3.37196e-08
5.92049e-05
2.78075e-08
5.91996e-05
2.13881e-08
5.9196e-05
1.43641e-08
5.91941e-05
6.54015e-09
5.91943e-05
-2.27714e-09
5.91969e-05
-1.22707e-08
5.92021e-05
-2.3768e-08
5.92103e-05
-3.69047e-08
5.92221e-05
-5.19278e-08
5.92377e-05
-6.89771e-08
5.92579e-05
-8.85311e-08
5.92833e-05
-1.10622e-07
5.93144e-05
-1.35744e-07
5.9352e-05
-1.64078e-07
5.9397e-05
-1.96061e-07
5.94501e-05
-2.3174e-07
5.95126e-05
-2.72063e-07
5.95852e-05
-3.16662e-07
5.96695e-05
-3.67344e-07
5.97665e-05
-4.23367e-07
5.98779e-05
-4.86744e-07
6.00054e-05
-5.57839e-07
6.00996e-05
-4.12944e-07
6.01999e-05
-4.40036e-07
6.0306e-05
-4.66015e-07
6.04181e-05
-4.93195e-07
6.05364e-05
-5.21125e-07
6.06607e-05
-5.49052e-07
6.07914e-05
-5.78209e-07
6.09282e-05
-6.07049e-07
6.10718e-05
-6.38494e-07
6.12217e-05
-6.68268e-07
6.1379e-05
-7.03994e-07
6.15427e-05
-7.34418e-07
6.17152e-05
-7.7794e-07
6.1894e-05
-8.07713e-07
6.2084e-05
-8.66392e-07
6.228e-05
-8.92387e-07
6.24918e-05
-9.80395e-07
6.27087e-05
-9.97379e-07
6.29495e-05
-1.13891e-06
6.3195e-05
-1.14995e-06
6.34799e-05
-1.37262e-06
6.37673e-05
-1.45378e-06
6.41346e-05
-1.77136e-06
6.44744e-05
-2.26651e-06
-3.02907e-06
6.48936e-05
8.14353e-05
7.74046e-06
8.13905e-05
1.14946e-05
8.13155e-05
5.54993e-06
8.08266e-05
5.35376e-06
8.01505e-05
4.86343e-06
7.94928e-05
3.99471e-06
7.89027e-05
3.25751e-06
7.83848e-05
2.68627e-06
7.79382e-05
2.22127e-06
7.75555e-05
1.84832e-06
7.72273e-05
1.55166e-06
7.69451e-05
1.31254e-06
7.67016e-05
1.11777e-06
7.64909e-05
9.57673e-07
7.63077e-05
8.25335e-07
7.6148e-05
7.14771e-07
7.60082e-05
6.22247e-07
7.58853e-05
5.43953e-07
7.5777e-05
4.77017e-07
7.56813e-05
4.20279e-07
7.55964e-05
3.71482e-07
7.55208e-05
3.29618e-07
7.54534e-05
2.93514e-07
7.5393e-05
2.62066e-07
7.53388e-05
2.34634e-07
7.52901e-05
2.10811e-07
7.5246e-05
1.8991e-07
7.52063e-05
1.71451e-07
7.51702e-05
1.55214e-07
7.51374e-05
1.40767e-07
7.51076e-05
1.27999e-07
7.50804e-05
1.16548e-07
7.50556e-05
1.06278e-07
7.5033e-05
9.68592e-08
7.50123e-05
8.83e-08
7.49935e-05
8.02938e-08
7.49764e-05
7.28446e-08
7.49609e-05
6.56233e-08
7.49471e-05
5.86234e-08
7.49349e-05
5.153e-08
7.49244e-05
4.42706e-08
7.49156e-05
3.66164e-08
7.49086e-05
2.83233e-08
7.49038e-05
1.92549e-08
7.49011e-05
9.16491e-09
7.49011e-05
-2.19433e-09
7.49039e-05
-1.50801e-08
7.491e-05
-2.98672e-08
7.49198e-05
-4.67399e-08
7.49339e-05
-6.6039e-08
7.49529e-05
-8.79486e-08
7.49774e-05
-1.13057e-07
7.50083e-05
-1.41426e-07
7.50462e-05
-1.73668e-07
7.50921e-05
-2.09981e-07
7.5147e-05
-2.50986e-07
7.5212e-05
-2.96696e-07
7.52883e-05
-3.48348e-07
7.53771e-05
-4.05459e-07
7.548e-05
-4.70276e-07
7.55986e-05
-5.41882e-07
7.57347e-05
-6.22833e-07
7.58903e-05
-7.13503e-07
7.60053e-05
-5.27904e-07
7.61277e-05
-5.62382e-07
7.62571e-05
-5.95446e-07
7.63938e-05
-6.29839e-07
7.65378e-05
-6.6512e-07
7.66891e-05
-7.00358e-07
7.68479e-05
-7.37067e-07
7.70142e-05
-7.73322e-07
7.71884e-05
-8.12711e-07
7.73702e-05
-8.50043e-07
7.75607e-05
-8.94425e-07
7.77588e-05
-9.32591e-07
7.7967e-05
-9.86105e-07
7.8183e-05
-1.02374e-06
7.84115e-05
-1.09486e-06
7.86478e-05
-1.12869e-06
7.89009e-05
-1.23348e-06
7.91621e-05
-1.25855e-06
7.94473e-05
-1.4241e-06
7.97423e-05
-1.44499e-06
8.00744e-05
-1.70474e-06
8.04185e-05
-1.79785e-06
8.08309e-05
-2.18372e-06
8.12281e-05
-2.66374e-06
-3.47584e-06
8.16749e-05
0.000100655
3.0072e-06
0.000101167
1.09834e-05
0.000101457
5.25957e-06
0.000101171
5.63955e-06
0.000100569
5.46595e-06
9.99122e-05
4.65105e-06
9.92857e-05
3.88398e-06
9.87131e-05
3.25894e-06
9.82053e-05
2.72901e-06
9.77615e-05
2.29214e-06
9.73751e-05
1.93805e-06
9.7039e-05
1.64864e-06
9.67465e-05
1.41031e-06
9.64914e-05
1.21276e-06
9.62684e-05
1.04834e-06