/*--------------------------------*- C++ -*----------------------------------*\
| =========                 |                                                 |
| \\      /  F ield         | OpenFOAM: The Open Source CFD Toolbox           |
|  \\    /   O peration     | Version:  2306                                  |
|   \\  /    A nd           | Website:  www.openfoam.com                      |
|    \\/     M anipulation  |                                                 |
\*---------------------------------------------------------------------------*/
FoamFile
{
    version     2.0;
    format      ascii;
    arch        "LSB;label=32;scalar=64";
    class       volSymmTensorField;
    location    "1600";
    object      turbulenceProperties:devReff;
}
// * * * * * * * * * * * * * * * * * * * * * * * * * * * * * * * * * * * * * //

dimensions      [0 2 -2 0 0 0 0];

internalField   nonuniform List<symmTensor> 
20540
(
(2.43482 -8.03596 -0 -2.43482 -0 -6.55675e-06)
(14.7868 -17.33 -0 -14.4353 -0 -0.351581)
(2.43054 -16.7242 -0 -2.43052 -0 -1.28827e-05)
(10.5212 -36.1213 -0 -10.8057 -0 0.284504)
(2.42348 -17.9318 -0 -2.42351 -0 2.87033e-05)
(7.48336 -38.869 -0 -7.56984 -0 0.0864842)
(2.41354 -18.9628 -0 -2.41354 -0 5.98089e-06)
(5.67199 -41.2892 -0 -5.64455 -0 -0.0274442)
(2.40017 -19.8061 -0 -2.40016 -0 -2.08215e-06)
(4.53361 -43.366 -0 -4.51087 -0 -0.0227346)
(2.38265 -20.4471 -0 -2.38265 -0 -3.14575e-06)
(3.71593 -45.0769 -0 -3.71001 -0 -0.00591882)
(2.36015 -20.8955 -0 -2.36015 -0 -4.34448e-06)
(3.07905 -46.454 -0 -3.07818 -0 -0.000870699)
(2.3317 -21.1631 -0 -2.3317 -0 -6.32899e-06)
(2.56902 -47.5359 -0 -2.56836 -0 -0.000656188)
(2.29619 -21.2601 -0 -2.29618 -0 -9.51299e-06)
(2.15591 -48.3592 -0 -2.15513 -0 -0.000783153)
(2.25232 -21.1928 -0 -2.25231 -0 -1.4483e-05)
(1.81997 -48.9543 -0 -1.81928 -0 -0.000685501)
(2.19863 -20.9636 -0 -2.19861 -0 -2.21078e-05)
(1.54872 -49.3442 -0 -1.54814 -0 -0.000583513)
(2.13348 -20.5713 -0 -2.13344 -0 -3.38482e-05)
(1.33485 -49.5441 -0 -1.33431 -0 -0.000541299)
(2.05509 -20.0112 -0 -2.05503 -0 -5.30383e-05)
(1.17426 -49.5614 -0 -1.17374 -0 -0.000521021)
(1.96161 -19.2765 -0 -1.96153 -0 -8.61375e-05)
(1.06489 -49.3922 -0 -1.0644 -0 -0.000488889)
(1.85128 -18.3587 -0 -1.85114 -0 -0.000140142)
(1.00575 -49.0251 -0 -1.00533 -0 -0.000428858)
(1.72267 -17.2495 -0 -1.72246 -0 -0.000201654)
(0.995867 -48.4356 -0 -0.995539 -0 -0.000328083)
(1.57515 -15.9425 -0 -1.57495 -0 -0.000200592)
(1.03299 -47.5842 -0 -1.03279 -0 -0.000198784)
(1.4094 -14.4359 -0 -1.40917 -0 -0.000225435)
(1.11209 -46.4146 -0 -1.1121 -0 1.07399e-05)
(1.22841 -12.7485 -0 -1.22798 -0 -0.000439069)
(1.22325 -44.8299 -0 -1.22369 -0 0.000443999)
(1.03388 -10.886 -0 -1.03322 -0 -0.000654878)
(1.35098 -42.7339 -0 -1.35216 -0 0.00118494)
(0.83172 -8.88432 -0 -0.831156 -0 -0.00056408)
(1.47046 -39.9816 -0 -1.47263 -0 0.00216606)
(0.631853 -6.79877 -0 -0.631993 -0 0.000140668)
(1.54483 -36.4024 -0 -1.54773 -0 0.00289425)
(0.445759 -4.70626 -0 -0.446925 -0 0.00116676)
(1.52528 -31.8294 -0 -1.5278 -0 0.00252198)
(0.279319 -2.71504 -0 -0.279574 -0 0.000255475)
(1.36166 -26.172 -0 -1.3642 -0 0.00253479)
(0.119064 -0.920188 -0 -0.114359 -0 -0.00470444)
(1.03656 -19.5811 -0 -1.04676 -0 0.010199)
(-0.0740229 0.629178 -0 0.0841606 -0 -0.0101377)
(0.605284 -12.5316 -0 -0.626669 -0 0.0213848)
(-0.306488 1.62931 -0 0.31274 -0 -0.00625218)
(0.192943 -6.1745 -0 -0.204384 -0 0.0114411)
(-0.483116 1.72841 -0 0.484732 -0 -0.00161647)
(-0.118547 -2.28225 -0 0.114356 -0 0.00419029)
(-0.533233 1.21364 -0 0.54211 -0 -0.00887705)
(-0.395406 -0.231931 -0 0.382035 -0 0.0133708)
(-0.515468 0.631508 -0 0.52828 -0 -0.0128119)
(-0.541936 0.439476 -0 0.519998 -0 0.0219382)
(-0.483163 0.247538 -0 0.495387 -0 -0.0122241)
(-0.584483 0.349612 -0 0.560929 -0 0.0235542)
(-0.466885 0.0591903 -0 0.478885 -0 -0.0120003)
(-0.588625 0.108183 -0 0.565156 -0 0.0234696)
(-0.467335 -0.0725449 -0 0.479254 -0 -0.0119193)
(-0.588399 -0.138866 -0 0.564935 -0 0.0234644)
(-0.484517 -0.266843 -0 0.496663 -0 -0.0121464)
(-0.583008 -0.375505 -0 0.559491 -0 0.0235173)
(-0.51615 -0.648893 -0 0.528841 -0 -0.0126906)
(-0.537191 -0.442912 -0 0.51546 -0 0.0217304)
(-0.531451 -1.20689 -0 0.540184 -0 -0.00873325)
(-0.387214 0.25288 -0 0.373926 -0 0.0132878)
(-0.47923 -1.68277 -0 0.480806 -0 -0.00157589)
(-0.114176 2.28407 -0 0.109733 -0 0.00444385)
(-0.302769 -1.54784 -0 0.308939 -0 -0.00616952)
(0.191855 6.11805 -0 -0.203466 -0 0.011611)
(-0.0727665 -0.534066 -0 0.0827415 -0 -0.00997506)
(0.596877 12.3706 -0 -0.618461 -0 0.0215843)
(0.118715 1.01286 -0 -0.114091 -0 -0.00462381)
(1.0245 19.3642 -0 -1.03555 -0 0.0110479)
(0.280334 2.81059 -0 -0.280576 -0 0.000242016)
(1.3505 25.9465 -0 -1.35377 -0 0.00326701)
(0.451129 4.81845 -0 -0.452226 -0 0.00109714)
(1.51535 31.6205 -0 -1.51833 -0 0.00297602)
(0.644315 6.94448 -0 -0.644382 -0 6.68753e-05)
(1.53302 36.2329 -0 -1.5363 -0 0.00328118)
(0.853819 9.08397 -0 -0.853179 -0 -0.000640347)
(1.45134 39.8602 -0 -1.45384 -0 0.00250016)
(1.06787 11.1596 -0 -1.06721 -0 -0.000660969)
(1.31851 42.6611 -0 -1.31994 -0 0.00143188)
(1.27589 13.1071 -0 -1.2755 -0 -0.000387665)
(1.17165 44.8093 -0 -1.17227 -0 0.000620209)
(1.47333 14.9053 -0 -1.47305 -0 -0.000278256)
(1.03566 46.4273 -0 -1.03583 -0 0.000163819)
(1.6551 16.5226 -0 -1.65481 -0 -0.000289012)
(0.927438 47.6351 -0 -0.927348 -0 -9.01912e-05)
(1.81787 17.944 -0 -1.81764 -0 -0.000231074)
(0.8572 48.5222 -0 -0.856952 -0 -0.000248274)
(1.96065 19.1684 -0 -1.9605 -0 -0.000149852)
(0.830512 49.1516 -0 -0.830162 -0 -0.000349399)
(2.08396 20.2002 -0 -2.08386 -0 -9.32284e-05)
(0.849887 49.5633 -0 -0.84947 -0 -0.000416754)
(2.1892 21.0464 -0 -2.18914 -0 -5.93928e-05)
(0.916225 49.7854 -0 -0.915771 -0 -0.000453797)
(2.27817 21.7151 -0 -2.27813 -0 -3.86204e-05)
(1.02992 49.8336 -0 -1.02945 -0 -0.000473278)
(2.35276 22.2136 -0 -2.35273 -0 -2.53584e-05)
(1.19181 49.7142 -0 -1.19132 -0 -0.00049004)
(2.41482 22.5477 -0 -2.4148 -0 -1.67267e-05)
(1.40398 49.4255 -0 -1.40344 -0 -0.000534975)
(2.46606 22.7204 -0 -2.46605 -0 -1.10548e-05)
(1.67051 48.9577 -0 -1.66987 -0 -0.000638884)
(2.50805 22.7314 -0 -2.50804 -0 -7.34314e-06)
(1.99872 48.2935 -0 -1.99798 -0 -0.000737748)
(2.54215 22.5767 -0 -2.54215 -0 -4.92683e-06)
(2.40088 47.4091 -0 -2.40026 -0 -0.000619653)
(2.56957 22.2484 -0 -2.56957 -0 -3.37125e-06)
(2.89634 46.2733 -0 -2.89548 -0 -0.000852343)
(2.59135 21.7344 -0 -2.59135 -0 -2.54021e-06)
(3.5143 44.8488 -0 -3.50847 -0 -0.00583027)
(2.60838 21.0199 -0 -2.60838 -0 -2.72794e-06)
(4.30753 43.094 -0 -4.28529 -0 -0.0222339)
(2.62143 20.0906 -0 -2.62143 -0 -2.54782e-06)
(5.41283 40.97 -0 -5.38622 -0 -0.026604)
(2.63121 18.9394 -0 -2.63125 -0 3.78522e-05)
(7.17393 38.455 -0 -7.25809 -0 0.0841611)
(2.63817 17.5936 -0 -2.63818 -0 8.83607e-06)
(10.1317 35.5973 -0 -10.4073 -0 0.275578)
(2.64288 8.43972 -0 -2.64285 -0 -3.01437e-05)
(14.2787 17.0486 -0 -13.9392 -0 -0.339459)
(0.01215 -15.6325 -0 -0.0125432 -0 0.000393237)
(0.00205752 -10.2522 -0 -0.00210454 -0 4.70251e-05)
(0.000551458 -9.16596 -0 -0.000564933 -0 1.34748e-05)
(0.000327258 -8.58318 -0 -0.000333893 -0 6.6346e-06)
(0.000223581 -8.20263 -0 -0.000227416 -0 3.8349e-06)
(0.000160661 -7.94393 -0 -0.000163204 -0 2.54306e-06)
(0.000122072 -7.75849 -0 -0.000123911 -0 1.83901e-06)
(9.68831e-05 -7.61813 -0 -9.82743e-05 -0 1.39118e-06)
(7.88836e-05 -7.50889 -0 -7.99785e-05 -0 1.09488e-06)
(6.55821e-05 -7.42206 -0 -6.64715e-05 -0 8.89433e-07)
(5.55107e-05 -7.3517 -0 -5.62485e-05 -0 7.37782e-07)
(4.76424e-05 -7.29377 -0 -4.82654e-05 -0 6.22948e-07)
(4.13561e-05 -7.24553 -0 -4.18895e-05 -0 5.33466e-07)
(3.6237e-05 -7.20492 -0 -3.66992e-05 -0 4.62239e-07)
(3.20191e-05 -7.17049 -0 -3.24235e-05 -0 4.04483e-07)
(2.84805e-05 -7.14102 -0 -2.88374e-05 -0 3.56863e-07)
(2.55117e-05 -7.1157 -0 -2.58292e-05 -0 3.1743e-07)
(2.29683e-05 -7.09372 -0 -2.32523e-05 -0 2.83979e-07)
(2.07549e-05 -7.07466 -0 -2.101e-05 -0 2.55118e-07)
(1.88733e-05 -7.05797 -0 -1.91044e-05 -0 2.31072e-07)
(1.72212e-05 -7.04334 -0 -1.74312e-05 -0 2.0993e-07)
(1.5787e-05 -7.03043 -0 -1.59789e-05 -0 1.91862e-07)
(1.45369e-05 -7.01901 -0 -1.47132e-05 -0 1.76239e-07)
(1.34165e-05 -7.00884 -0 -1.35787e-05 -0 1.62196e-07)
(1.24272e-05 -6.9998 -0 -1.25771e-05 -0 1.49948e-07)
(1.15573e-05 -6.9917 -0 -1.16966e-05 -0 1.39307e-07)
(1.07759e-05 -6.98445 -0 -1.09055e-05 -0 1.29657e-07)
(1.00729e-05 -6.97791 -0 -1.0194e-05 -0 1.21122e-07)
(9.44454e-06 -6.97202 -0 -9.55804e-06 -0 1.135e-07)
(8.87237e-06 -6.96668 -0 -8.97893e-06 -0 1.0656e-07)
(8.36391e-06 -6.96185 -0 -8.46455e-06 -0 1.00637e-07)
(7.89272e-06 -6.95745 -0 -7.98764e-06 -0 9.49227e-08)
(7.46271e-06 -6.95346 -0 -7.55258e-06 -0 8.98782e-08)
(7.04895e-06 -6.9498 -0 -7.13398e-06 -0 8.50331e-08)
(6.66811e-06 -6.9465 -0 -6.74885e-06 -0 8.07352e-08)
(6.2869e-06 -6.94346 -0 -6.3634e-06 -0 7.64985e-08)
(5.92387e-06 -6.94073 -0 -5.99655e-06 -0 7.2683e-08)
(5.53801e-06 -6.93822 -0 -5.60673e-06 -0 6.87208e-08)
(5.14624e-06 -6.93602 -0 -5.21117e-06 -0 6.49229e-08)
(4.70187e-06 -6.93401 -0 -4.76263e-06 -0 6.07609e-08)
(4.21364e-06 -6.93231 -0 -4.27004e-06 -0 5.6399e-08)
(3.64462e-06 -6.93081 -0 -3.69611e-06 -0 5.14929e-08)
(2.9629e-06 -6.92964 -0 -3.00897e-06 -0 4.60638e-08)
(2.1571e-06 -6.92872 -0 -2.19658e-06 -0 3.94818e-08)
(1.18137e-06 -6.92818 -0 -1.21334e-06 -0 3.19687e-08)
(1.58427e-08 -6.92796 -0 -4.01502e-08 -0 2.43074e-08)
(-1.44252e-06 -6.92819 -0 1.43128e-06 -0 1.1239e-08)
(-3.24171e-06 -6.92886 -0 3.24453e-06 -0 -2.81677e-09)
(-5.39162e-06 -6.93012 -0 5.40885e-06 -0 -1.72292e-08)
(-7.98496e-06 -6.93195 -0 8.02124e-06 -0 -3.62798e-08)
(-1.11114e-05 -6.93451 -0 1.1171e-05 -0 -5.96163e-08)
(-1.49196e-05 -6.93784 -0 1.50072e-05 -0 -8.75904e-08)
(-1.94161e-05 -6.94212 -0 1.9537e-05 -0 -1.20901e-07)
(-2.48356e-05 -6.94738 -0 2.49956e-05 -0 -1.59958e-07)
(-3.12799e-05 -6.95388 -0 3.14902e-05 -0 -2.10251e-07)
(-3.88917e-05 -6.96165 -0 3.9155e-05 -0 -2.63337e-07)
(-4.78317e-05 -6.97097 -0 4.81674e-05 -0 -3.35758e-07)
(-5.84055e-05 -6.98189 -0 5.88112e-05 -0 -4.05723e-07)
(-7.06991e-05 -6.99478 -0 7.12132e-05 -0 -5.14089e-07)
(-8.53602e-05 -7.00966 -0 8.59614e-05 -0 -6.01203e-07)
(-0.000102403 -7.02708 -0 0.00010318 -0 -7.77784e-07)
(-0.00012257 -7.04698 -0 0.000123439 -0 -8.69056e-07)
(-0.000146659 -7.07013 -0 0.000147816 -0 -1.15657e-06)
(-0.000170204 -7.09221 -0 0.000171689 -0 -1.4848e-06)
(-0.000190956 -7.11135 -0 0.000192355 -0 -1.39967e-06)
(-0.000213592 -7.13156 -0 0.000215385 -0 -1.79277e-06)
(-0.000238873 -7.15314 -0 0.000240853 -0 -1.9798e-06)
(-0.000266271 -7.17601 -0 0.000268485 -0 -2.21363e-06)
(-0.000296585 -7.20026 -0 0.000299117 -0 -2.53275e-06)
(-0.000329629 -7.2259 -0 0.000332438 -0 -2.80874e-06)
(-0.000366532 -7.25299 -0 0.000369787 -0 -3.25581e-06)
(-0.000406921 -7.28162 -0 0.000410451 -0 -3.53055e-06)
(-0.00045172 -7.31182 -0 0.000455962 -0 -4.24164e-06)
(-0.000502585 -7.34366 -0 0.000506929 -0 -4.34485e-06)
(-0.000557971 -7.37749 -0 0.000563731 -0 -5.75978e-06)
(-0.000623783 -7.41285 -0 0.000628829 -0 -5.04623e-06)
(-0.000692364 -7.45117 -0 0.000700823 -0 -8.45838e-06)
(-0.00078428 -7.49028 -0 0.000789131 -0 -4.85064e-06)
(-0.000867965 -7.53498 -0 0.000882343 -0 -1.43777e-05)
(-0.00101196 -7.57761 -0 0.00101288 -0 -9.15764e-07)
(-0.00110279 -7.633 -0 0.00113256 -0 -2.97747e-05)
(-0.00138159 -7.67689 -0 0.00136547 -0 1.61198e-05)
(-0.00145771 -7.75467 -0 0.00153133 -0 -7.36185e-05)
(-0.00195479 -7.79318 -0 0.00187947 -0 7.53203e-05)
(-0.0025241 -7.91199 -0 0.00272055 -0 -0.000196451)
(-0.00275292 -7.96926 -0 0.00253784 -0 0.000215086)
(-0.00582222 -8.10924 -0 0.00649897 -0 -0.000676749)
(-0.113246 -8.39458 1.84642e-21 0.103639 -0 0.00960723)
(0.0145285 -10.8018 -0 -0.0136753 -0 -0.000853231)
(0.00405394 -7.23968 -0 -0.00403001 -0 -2.3932e-05)
(0.00121369 -6.51523 -0 -0.00121386 -0 1.613e-07)
(0.000735831 -6.12614 -0 -0.000737241 -0 1.41052e-06)
(0.000508846 -5.87192 -0 -0.000510217 -0 1.3708e-06)
(0.000367233 -5.6979 -0 -0.000368351 -0 1.11869e-06)
(0.000279753 -5.5728 -0 -0.000280687 -0 9.34067e-07)
(0.000222448 -5.47801 -0 -0.000223224 -0 7.75616e-07)
(0.000181317 -5.40412 -0 -0.000181964 -0 6.47145e-07)
(0.000150851 -5.3453 -0 -0.000151401 -0 5.50472e-07)
(0.000127758 -5.2976 -0 -0.000128232 -0 4.7391e-07)
(0.000109698 -5.25829 -0 -0.000110109 -0 4.11962e-07)
(9.52553e-05 -5.22554 -0 -9.56164e-05 -0 3.61117e-07)
(8.34879e-05 -5.19796 -0 -8.38074e-05 -0 3.19474e-07)
(7.37873e-05 -5.17456 -0 -7.40715e-05 -0 2.84154e-07)
(6.56467e-05 -5.15453 -0 -6.59015e-05 -0 2.54757e-07)
(5.8813e-05 -5.13731 -0 -5.90421e-05 -0 2.29133e-07)
(5.29587e-05 -5.12236 -0 -5.31664e-05 -0 2.07653e-07)
(4.7863e-05 -5.1094 -0 -4.80515e-05 -0 1.88494e-07)
(4.35275e-05 -5.09804 -0 -4.36996e-05 -0 1.7207e-07)
(3.97223e-05 -5.08808 -0 -3.98799e-05 -0 1.57572e-07)
(3.64169e-05 -5.0793 -0 -3.65618e-05 -0 1.44974e-07)
(3.35351e-05 -5.07152 -0 -3.36691e-05 -0 1.3402e-07)
(3.09536e-05 -5.0646 -0 -3.10777e-05 -0 1.24114e-07)
(2.86723e-05 -5.05845 -0 -2.87876e-05 -0 1.15257e-07)
(2.66658e-05 -5.05293 -0 -2.67733e-05 -0 1.07479e-07)
(2.48642e-05 -5.04799 -0 -2.49646e-05 -0 1.00408e-07)
(2.32429e-05 -5.04354 -0 -2.33371e-05 -0 9.42305e-08)
(2.17929e-05 -5.03953 -0 -2.18813e-05 -0 8.83458e-08)
(2.04727e-05 -5.03589 -0 -2.05558e-05 -0 8.30814e-08)
(1.92981e-05 -5.0326 -0 -1.93766e-05 -0 7.84741e-08)
(1.82102e-05 -5.0296 -0 -1.8284e-05 -0 7.38339e-08)
(1.72162e-05 -5.02688 -0 -1.7286e-05 -0 6.97781e-08)
(1.62597e-05 -5.02439 -0 -1.63255e-05 -0 6.57316e-08)
(1.53768e-05 -5.02213 -0 -1.54385e-05 -0 6.16832e-08)
(1.4493e-05 -5.02006 -0 -1.45506e-05 -0 5.76192e-08)
(1.36475e-05 -5.01819 -0 -1.37008e-05 -0 5.32661e-08)
(1.27484e-05 -5.01648 -0 -1.2797e-05 -0 4.85991e-08)
(1.18304e-05 -5.01496 -0 -1.18735e-05 -0 4.31173e-08)
(1.07887e-05 -5.01357 -0 -1.08256e-05 -0 3.6929e-08)
(9.63742e-06 -5.01239 -0 -9.66645e-06 -0 2.90368e-08)
(8.29461e-06 -5.01133 -0 -8.31428e-06 -0 1.96654e-08)
(6.68243e-06 -5.01049 -0 -6.69059e-06 -0 8.15877e-09)
(4.7703e-06 -5.00981 -0 -4.76354e-06 -0 -6.7582e-09)
(2.44945e-06 -5.00937 -0 -2.42388e-06 -0 -2.55676e-08)
(-3.30322e-07 -5.00913 -0 3.78889e-07 -0 -4.8567e-08)
(-3.78273e-06 -5.00917 -0 3.8575e-06 -0 -7.47733e-08)
(-8.08026e-06 -5.00948 -0 8.19196e-06 -0 -1.11697e-07)
(-1.3221e-05 -5.01016 -0 1.33783e-05 -0 -1.5731e-07)
(-1.93943e-05 -5.01118 -0 1.96016e-05 -0 -2.0726e-07)
(-2.68579e-05 -5.01266 -0 2.71299e-05 -0 -2.72058e-07)
(-3.59384e-05 -5.0146 -0 3.62876e-05 -0 -3.49152e-07)
(-4.66741e-05 -5.01713 -0 4.71168e-05 -0 -4.42685e-07)
(-5.95987e-05 -5.02024 -0 6.01504e-05 -0 -5.51705e-07)
(-7.49607e-05 -5.02412 -0 7.56462e-05 -0 -6.85475e-07)
(-9.312e-05 -5.02875 -0 9.39583e-05 -0 -8.38285e-07)
(-0.000114429 -5.03432 -0 0.000115457 -0 -1.02878e-06)
(-0.000139649 -5.04086 -0 0.000140886 -0 -1.23712e-06)
(-0.000168932 -5.04857 -0 0.000170443 -0 -1.51094e-06)
(-0.000203874 -5.05746 -0 0.000205659 -0 -1.78457e-06)
(-0.000244393 -5.06788 -0 0.000246585 -0 -2.19178e-06)
(-0.000292432 -5.07975 -0 0.000294963 -0 -2.53112e-06)
(-0.000349495 -5.09354 -0 0.000352609 -0 -3.11418e-06)
(-0.000405255 -5.10664 -0 0.000408951 -0 -3.69623e-06)
(-0.000454738 -5.118 -0 0.00045852 -0 -3.78188e-06)
(-0.00050796 -5.13 -0 0.000512406 -0 -4.44549e-06)
(-0.000567901 -5.14272 -0 0.000572837 -0 -4.93579e-06)
(-0.00063285 -5.15617 -0 0.000638346 -0 -5.49651e-06)
(-0.00070436 -5.17038 -0 0.000710505 -0 -6.14508e-06)
(-0.000782566 -5.18535 -0 0.000789375 -0 -6.80928e-06)
(-0.000869231 -5.2011 -0 0.000876858 -0 -7.62716e-06)
(-0.000964886 -5.21768 -0 0.00097328 -0 -8.39438e-06)
(-0.00106949 -5.23505 -0 0.00107902 -0 -9.5329e-06)
(-0.00119013 -5.25331 -0 0.00120037 -0 -1.02416e-05)
(-0.00131784 -5.27252 -0 0.00132997 -0 -1.21226e-05)
(-0.00147544 -5.29255 -0 0.00148769 -0 -1.22507e-05)
(-0.00162949 -5.31393 -0 0.00164562 -0 -1.61255e-05)
(-0.00185364 -5.33576 -0 0.00186732 -0 -1.36814e-05)
(-0.00203069 -5.3601 -0 0.00205438 -0 -2.36902e-05)
(-0.00239192 -5.38351 -0 0.00240352 -0 -1.15999e-05)
(-0.00255553 -5.41256 -0 0.00259754 -0 -4.20069e-05)
(-0.00325994 -5.43629 -0 0.00325386 -0 6.08719e-06)
(-0.00333137 -5.47511 -0 0.00342838 -0 -9.70084e-05)
(-0.00457559 -5.4948 -0 0.00449458 -0 8.10082e-05)
(-0.005672 -5.55109 -0 0.00592028 -0 -0.000248281)
(-0.00573271 -5.57341 -0 0.00542767 -0 0.000305042)
(-0.0191584 -5.63093 -0 0.0197469 -0 -0.000588536)
(-0.0452839 -5.81536 -3.88087e-21 0.0476789 -0 -0.00239503)
(0.0242322 -11.5724 -0 -0.0246876 -0 0.000455453)
(0.00761811 -7.91738 -0 -0.00759106 -0 -2.70493e-05)
(0.00255087 -7.15944 -0 -0.00254775 -0 -3.11721e-06)
(0.00159861 -6.7489 -0 -0.0015983 -0 -3.14299e-07)
(0.00112559 -6.48079 -0 -0.0011258 -0 2.14366e-07)
(0.000818408 -6.29642 -0 -0.000818789 -0 3.81188e-07)
(0.000626295 -6.16354 -0 -0.000626712 -0 4.17201e-07)
(0.000499611 -6.06276 -0 -0.000499988 -0 3.76537e-07)
(0.000408048 -5.98408 -0 -0.000408382 -0 3.33565e-07)
(0.000339959 -5.92137 -0 -0.000340259 -0 2.99827e-07)
(0.000288232 -5.87047 -0 -0.000288498 -0 2.66132e-07)
(0.000247696 -5.8285 -0 -0.000247934 -0 2.37807e-07)
(0.000215229 -5.79352 -0 -0.000215441 -0 2.12383e-07)
(0.000188743 -5.76403 -0 -0.000188934 -0 1.91209e-07)
(0.00016689 -5.73902 -0 -0.000167062 -0 1.72111e-07)
(0.000148538 -5.71758 -0 -0.000148694 -0 1.56279e-07)
(0.000133117 -5.69916 -0 -0.000133259 -0 1.41679e-07)
(0.000119906 -5.68316 -0 -0.000120035 -0 1.29751e-07)
(0.000108401 -5.66928 -0 -0.00010852 -0 1.18375e-07)
(9.86008e-05 -5.65713 -0 -9.87099e-05 -0 1.09016e-07)
(9.00019e-05 -5.64646 -0 -9.01023e-05 -0 1.00357e-07)
(8.25254e-05 -5.63705 -0 -8.26182e-05 -0 9.27296e-08)
(7.60037e-05 -5.62872 -0 -7.60898e-05 -0 8.60691e-08)
(7.01664e-05 -5.62131 -0 -7.02465e-05 -0 8.01397e-08)
(6.50021e-05 -5.61472 -0 -6.50769e-05 -0 7.47723e-08)
(6.0458e-05 -5.60881 -0 -6.05281e-05 -0 7.01397e-08)
(5.63794e-05 -5.60351 -0 -5.6445e-05 -0 6.55565e-08)
(5.27068e-05 -5.59874 -0 -5.27687e-05 -0 6.19423e-08)
(4.94214e-05 -5.59444 -0 -4.94797e-05 -0 5.82922e-08)
(4.64291e-05 -5.59054 -0 -4.6484e-05 -0 5.48854e-08)
(4.3763e-05 -5.58702 -0 -4.38154e-05 -0 5.23698e-08)
(4.12954e-05 -5.5838 -0 -4.13446e-05 -0 4.92326e-08)
(3.90376e-05 -5.58088 -0 -3.90844e-05 -0 4.67751e-08)
(3.68652e-05 -5.57821 -0 -3.69097e-05 -0 4.45341e-08)
(3.48531e-05 -5.57579 -0 -3.48953e-05 -0 4.22191e-08)
(3.28391e-05 -5.57356 -0 -3.28793e-05 -0 4.01368e-08)
(3.09019e-05 -5.57156 -0 -3.09398e-05 -0 3.78743e-08)
(2.88414e-05 -5.56971 -0 -2.88772e-05 -0 3.57553e-08)
(2.67233e-05 -5.56807 -0 -2.67564e-05 -0 3.31301e-08)
(2.43196e-05 -5.56657 -0 -2.43504e-05 -0 3.07267e-08)
(2.1646e-05 -5.56529 -0 -2.16732e-05 -0 2.72533e-08)
(1.85223e-05 -5.56413 -0 -1.85455e-05 -0 2.32515e-08)
(1.47644e-05 -5.56321 -0 -1.47841e-05 -0 1.97113e-08)
(1.02906e-05 -5.56244 -0 -1.03037e-05 -0 1.30606e-08)
(4.85122e-06 -5.56192 -0 -4.85733e-06 -0 6.10084e-09)
(-1.69663e-06 -5.5616 -0 1.70002e-06 -0 -3.39094e-09)
(-9.74655e-06 -5.56157 -0 9.75838e-06 -0 -1.1833e-08)
(-1.98562e-05 -5.56181 -0 1.9882e-05 -0 -2.57982e-08)
(-3.19929e-05 -5.56242 -0 3.20392e-05 -0 -4.63672e-08)
(-4.64978e-05 -5.56338 -0 4.65611e-05 -0 -6.33082e-08)
(-6.40738e-05 -5.56479 -0 6.41614e-05 -0 -8.76162e-08)
(-8.54303e-05 -5.56666 -0 8.55451e-05 -0 -1.14808e-07)
(-0.000110729 -5.56912 -0 0.00011088 -0 -1.50389e-07)
(-0.000141139 -5.57216 -0 0.000141326 -0 -1.86565e-07)
(-0.000177277 -5.57595 -0 0.000177514 -0 -2.36729e-07)
(-0.000220023 -5.5805 -0 0.000220307 -0 -2.83642e-07)
(-0.00027016 -5.58598 -0 0.000270517 -0 -3.57092e-07)
(-0.000329512 -5.5924 -0 0.000329922 -0 -4.10165e-07)
(-0.000398401 -5.59999 -0 0.000398926 -0 -5.25337e-07)
(-0.000480553 -5.60873 -0 0.000481118 -0 -5.6551e-07)
(-0.000575752 -5.61897 -0 0.000576519 -0 -7.67323e-07)
(-0.000688577 -5.63062 -0 0.000689323 -0 -7.46286e-07)
(-0.000822234 -5.64415 -0 0.000823261 -0 -1.02658e-06)
(-0.000953145 -5.65696 -0 0.000954468 -0 -1.32335e-06)
(-0.00106931 -5.66808 -0 0.00107017 -0 -8.5777e-07)
(-0.00119343 -5.67982 -0 0.00119474 -0 -1.30629e-06)
(-0.00133377 -5.69222 -0 0.00133506 -0 -1.28973e-06)
(-0.00148601 -5.70529 -0 0.00148737 -0 -1.35908e-06)
(-0.00165288 -5.71909 -0 0.00165437 -0 -1.49143e-06)
(-0.00183599 -5.73359 -0 0.0018375 -0 -1.50904e-06)
(-0.0020374 -5.74878 -0 0.00203909 -0 -1.68957e-06)
(-0.00226151 -5.76476 -0 0.00226305 -0 -1.54758e-06)
(-0.00250355 -5.78139 -0 0.00250553 -0 -1.97394e-06)
(-0.00278632 -5.79887 -0 0.00278756 -0 -1.24302e-06)
(-0.00307897 -5.81711 -0 0.00308155 -0 -2.57499e-06)
(-0.00345057 -5.83614 -0 0.00345054 -0 3.12794e-08)
(-0.00379713 -5.85616 -0 0.00380153 -0 -4.39838e-06)
(-0.00432985 -5.87677 -0 0.00432548 -0 4.37211e-06)
(-0.0047134 -5.8991 -0 0.00472408 -0 -1.0684e-05)
(-0.00557657 -5.92109 -0 0.00555784 -0 1.87269e-05)
(-0.00590619 -5.94685 -0 0.00593928 -0 -3.30938e-05)
(-0.00754264 -5.96933 -0 0.00747475 -0 6.7892e-05)
(-0.00769065 -6.0022 -0 0.00780192 -0 -0.000111268)
(-0.0104106 -6.02005 -0 0.0101871 -0 0.00022349)
(-0.0129313 -6.06858 -0 0.0132436 -0 -0.000312354)
(-0.0120015 -6.07729 -0 0.0114175 -0 0.000584066)
(-0.0470558 -6.15625 -0 0.0476758 -0 -0.000620012)
(0.00331729 -6.06902 -0 0.00687358 -0 -0.0101909)
(0.0317 -11.334 -0 -0.0316928 -0 -7.20472e-06)
(0.0115136 -7.77426 -0 -0.0114581 -0 -5.55095e-05)
(0.00423596 -7.03956 -0 -0.00421907 -0 -1.68884e-05)
(0.00276312 -6.64071 -0 -0.00275377 -0 -9.35201e-06)
(0.0019887 -6.38201 -0 -0.00198224 -0 -6.45766e-06)
(0.00146035 -6.20381 -0 -0.0014558 -0 -4.54464e-06)
(0.00112421 -6.07533 -0 -0.00112082 -0 -3.38924e-06)
(0.000900591 -5.97791 -0 -0.000897893 -0 -2.69744e-06)
(0.00073759 -5.90184 -0 -0.000735392 -0 -2.19837e-06)
(0.000615725 -5.84119 -0 -0.000613904 -0 -1.8207e-06)
(0.00052284 -5.79194 -0 -0.0005213 -0 -1.54022e-06)
(0.000449854 -5.75134 -0 -0.000448533 -0 -1.32041e-06)
(0.000391265 -5.7175 -0 -0.000390119 -0 -1.14579e-06)
(0.000343391 -5.68897 -0 -0.000342389 -0 -1.00242e-06)
(0.000303837 -5.66476 -0 -0.000302951 -0 -8.85746e-07)
(0.000270583 -5.64402 -0 -0.000269796 -0 -7.86474e-07)
(0.000242607 -5.6262 -0 -0.000241902 -0 -7.04567e-07)
(0.000218629 -5.61071 -0 -0.000217996 -0 -6.33172e-07)
(0.000197738 -5.59728 -0 -0.000197166 -0 -5.72176e-07)
(0.000179914 -5.58552 -0 -0.000179394 -0 -5.19383e-07)
(0.000164277 -5.5752 -0 -0.000163804 -0 -4.73666e-07)
(0.000150668 -5.56609 -0 -0.000150234 -0 -4.33682e-07)
(0.000138788 -5.55803 -0 -0.000138389 -0 -3.98661e-07)
(0.000128161 -5.55085 -0 -0.000127794 -0 -3.6753e-07)
(0.000118749 -5.54447 -0 -0.000118409 -0 -3.39889e-07)
(0.000110462 -5.53876 -0 -0.000110147 -0 -3.15431e-07)
(0.000103027 -5.53363 -0 -0.000102733 -0 -2.93994e-07)
(9.63275e-05 -5.52901 -0 -9.60536e-05 -0 -2.73916e-07)
(9.03316e-05 -5.52485 -0 -9.00749e-05 -0 -2.5667e-07)
(8.487e-05 -5.52108 -0 -8.46291e-05 -0 -2.40873e-07)
(7.99954e-05 -5.51767 -0 -7.97694e-05 -0 -2.2608e-07)
(7.54878e-05 -5.51455 -0 -7.52743e-05 -0 -2.13484e-07)
(7.13583e-05 -5.51173 -0 -7.11571e-05 -0 -2.0122e-07)
(6.73862e-05 -5.50913 -0 -6.71968e-05 -0 -1.89427e-07)
(6.36958e-05 -5.50679 -0 -6.35172e-05 -0 -1.78658e-07)
(6.00049e-05 -5.50463 -0 -5.98373e-05 -0 -1.67546e-07)
(5.64379e-05 -5.50269 -0 -5.6281e-05 -0 -1.56939e-07)
(5.26463e-05 -5.50089 -0 -5.25011e-05 -0 -1.45254e-07)
(4.87273e-05 -5.4993 -0 -4.85937e-05 -0 -1.33515e-07)
(4.42838e-05 -5.49783 -0 -4.41644e-05 -0 -1.19415e-07)
(3.93157e-05 -5.49657 -0 -3.92112e-05 -0 -1.04541e-07)
(3.35081e-05 -5.49543 -0 -3.34214e-05 -0 -8.67661e-08)
(2.65121e-05 -5.4945 -0 -2.64484e-05 -0 -6.36921e-08)
(1.81615e-05 -5.49372 -0 -1.81225e-05 -0 -3.90294e-08)
(7.99897e-06 -5.49316 -0 -7.99115e-06 -0 -7.81909e-09)
(-4.30471e-06 -5.49279 -0 4.27535e-06 -0 2.93559e-08)
(-1.92789e-05 -5.49267 -0 1.92034e-05 -0 7.5501e-08)
(-3.81656e-05 -5.4928 -0 3.8028e-05 -0 1.37541e-07)
(-6.09786e-05 -5.49326 -0 6.07761e-05 -0 2.02484e-07)
(-8.8158e-05 -5.49403 -0 8.78725e-05 -0 2.85523e-07)
(-0.000121088 -5.49521 -0 0.0001207 -0 3.8802e-07)
(-0.000161066 -5.49678 -0 0.000160554 -0 5.12085e-07)
(-0.000208504 -5.49888 -0 0.000207848 -0 6.55907e-07)
(-0.000265447 -5.50149 -0 0.000264611 -0 8.36242e-07)
(-0.00033309 -5.50477 -0 0.00033205 -0 1.03994e-06)
(-0.000413137 -5.50869 -0 0.000411838 -0 1.29911e-06)
(-0.000506972 -5.51345 -0 0.000505397 -0 1.5746e-06)
(-0.000618055 -5.51902 -0 0.000616105 -0 1.94977e-06)
(-0.000746924 -5.52561 -0 0.000744619 -0 2.30459e-06)
(-0.000900482 -5.53319 -0 0.000897614 -0 2.86794e-06)
(-0.0010783 -5.54207 -0 0.00107501 -0 3.28917e-06)
(-0.00128893 -5.55217 -0 0.00128477 -0 4.16319e-06)
(-0.0015376 -5.5639 -0 0.00153288 -0 4.72209e-06)
(-0.00178168 -5.57496 -0 0.00177651 -0 5.17811e-06)
(-0.00199862 -5.58455 -0 0.00199196 -0 6.65895e-06)
(-0.00222864 -5.59469 -0 0.00222178 -0 6.85798e-06)
(-0.00248898 -5.60535 -0 0.00248111 -0 7.86677e-06)
(-0.002772 -5.61656 -0 0.00276318 -0 8.82366e-06)
(-0.00308086 -5.62836 -0 0.00307109 -0 9.76642e-06)
(-0.00342067 -5.64072 -0 0.00340968 -0 1.09869e-05)
(-0.00379173 -5.65363 -0 0.00377968 -0 1.20515e-05)
(-0.00420733 -5.66718 -0 0.00419357 -0 1.37592e-05)
(-0.00465098 -5.68118 -0 0.00463631 -0 1.46743e-05)
(-0.0051751 -5.6959 -0 0.0051575 -0 1.75958e-05)
(-0.0057059 -5.71106 -0 0.0056885 -0 1.74064e-05)
(-0.00639698 -5.72697 -0 0.00637333 -0 2.36529e-05)
(-0.00701433 -5.74332 -0 0.0069953 -0 1.90306e-05)
(-0.00800887 -5.76043 -0 0.00797348 -0 3.53871e-05)
(-0.00866874 -5.77813 -0 0.00865382 -0 1.49133e-05)
(-0.0102782 -5.79641 -0 0.0102145 -0 6.37211e-05)
(-0.0108145 -5.81577 -0 0.0108263 -0 -1.17756e-05)
(-0.0137729 -5.83485 -0 0.0136277 -0 0.000145194)
(-0.0140361 -5.85798 -0 0.0141496 -0 -0.0001135)
(-0.0187945 -5.87184 -0 0.0184244 -0 0.000370065)
(-0.0229045 -5.90961 -0 0.0232735 -0 -0.000368951)
(-0.0220562 -5.89491 -0 0.0212697 -0 0.000786425)
(-0.0741985 -6.02702 -0 0.0749546 -0 -0.000756084)
(0.0228087 -5.60902 -0 -0.019834 -0 -0.00297476)
(0.0368602 -11.143 -0 -0.036817 -0 -4.31695e-05)
(0.0153984 -7.6599 -0 -0.0153788 -0 -1.96776e-05)
(0.00612246 -6.93958 -0 -0.00611402 -0 -8.43186e-06)
(0.00418415 -6.54624 -0 -0.00417925 -0 -4.90746e-06)
(0.00308976 -6.29326 -0 -0.00308603 -0 -3.72901e-06)
(0.0022963 -6.11876 -0 -0.00229361 -0 -2.68682e-06)
(0.00178031 -5.99284 -0 -0.00177829 -0 -2.02526e-06)
(0.00143322 -5.8974 -0 -0.00143155 -0 -1.6664e-06)
(0.00117772 -5.82284 -0 -0.00117633 -0 -1.39254e-06)
(0.000985446 -5.76336 -0 -0.000984277 -0 -1.16909e-06)
(0.000838292 -5.71506 -0 -0.000837289 -0 -1.00298e-06)
(0.000722289 -5.67522 -0 -0.000721419 -0 -8.69228e-07)
(0.000628927 -5.64201 -0 -0.000628165 -0 -7.61682e-07)
(0.000552484 -5.61401 -0 -0.000551813 -0 -6.70865e-07)
(0.000489225 -5.59025 -0 -0.000488628 -0 -5.97118e-07)
(0.000435975 -5.56989 -0 -0.000435442 -0 -5.32413e-07)
(0.000391113 -5.5524 -0 -0.000390634 -0 -4.79573e-07)
(0.000352641 -5.53719 -0 -0.000352209 -0 -4.32168e-07)
(0.000319104 -5.52401 -0 -0.000318712 -0 -3.92163e-07)
(0.000290439 -5.51246 -0 -0.000290083 -0 -3.56504e-07)
(0.000265296 -5.50233 -0 -0.00026497 -0 -3.25963e-07)
(0.000243388 -5.49339 -0 -0.00024309 -0 -2.98861e-07)
(0.000224247 -5.48547 -0 -0.000223972 -0 -2.74938e-07)
(0.000207137 -5.47843 -0 -0.000206884 -0 -2.53685e-07)
(0.000191965 -5.47216 -0 -0.00019173 -0 -2.3466e-07)
(0.000178597 -5.46655 -0 -0.000178379 -0 -2.17636e-07)
(0.000166607 -5.46152 -0 -0.000166404 -0 -2.03078e-07)
(0.000155796 -5.45698 -0 -0.000155607 -0 -1.88837e-07)
(0.000146116 -5.4529 -0 -0.000145939 -0 -1.77008e-07)
(0.000137298 -5.44919 -0 -0.000137132 -0 -1.66132e-07)
(0.000129414 -5.44584 -0 -0.000129259 -0 -1.55352e-07)
(0.00012213 -5.44278 -0 -0.000121983 -0 -1.4697e-07)
(0.00011545 -5.44 -0 -0.000115312 -0 -1.38244e-07)
(0.00010903 -5.43746 -0 -0.0001089 -0 -1.29859e-07)
(0.000103048 -5.43515 -0 -0.000102926 -0 -1.22281e-07)
(9.70738e-05 -5.43303 -0 -9.69595e-05 -0 -1.14281e-07)
(9.12775e-05 -5.43112 -0 -9.11708e-05 -0 -1.06681e-07)
(8.51252e-05 -5.42934 -0 -8.50271e-05 -0 -9.81322e-08)
(7.87383e-05 -5.42777 -0 -7.86486e-05 -0 -8.97298e-08)
(7.15095e-05 -5.42631 -0 -7.14302e-05 -0 -7.92416e-08)
(6.33961e-05 -5.42505 -0 -6.33274e-05 -0 -6.87674e-08)
(5.39121e-05 -5.42391 -0 -5.38561e-05 -0 -5.6085e-08)
(4.24838e-05 -5.42296 -0 -4.24453e-05 -0 -3.84823e-08)
(2.88158e-05 -5.42215 -0 -2.87941e-05 -0 -2.16697e-08)
(1.21822e-05 -5.42155 -0 -1.21822e-05 -0 7.12453e-11)
(-8.0604e-06 -5.42111 -0 8.03248e-06 -0 2.79197e-08)
(-3.25293e-05 -5.42091 -0 3.24744e-05 -0 5.48904e-08)
(-6.3336e-05 -5.42093 -0 6.32313e-05 -0 1.04655e-07)
(-0.000100814 -5.42125 -0 0.000100663 -0 1.5048e-07)
(-0.000145486 -5.42183 -0 0.000145286 -0 2.00738e-07)
(-0.000199454 -5.42278 -0 0.00019918 -0 2.74856e-07)
(-0.00026493 -5.42408 -0 0.000264567 -0 3.63353e-07)
(-0.000342751 -5.42585 -0 0.00034229 -0 4.60511e-07)
(-0.000436042 -5.42805 -0 0.000435454 -0 5.87993e-07)
(-0.00054681 -5.43085 -0 0.000546086 -0 7.23884e-07)
(-0.000677924 -5.43422 -0 0.000677013 -0 9.10429e-07)
(-0.000831539 -5.4383 -0 0.000830452 -0 1.08667e-06)
(-0.00101336 -5.44309 -0 0.001012 -0 1.36504e-06)
(-0.0012242 -5.44877 -0 0.00122263 -0 1.56907e-06)
(-0.00147519 -5.45529 -0 0.00147318 -0 2.01227e-06)
(-0.00176563 -5.46295 -0 0.00176344 -0 2.18802e-06)
(-0.00210948 -5.47162 -0 0.00210655 -0 2.93269e-06)
(-0.00251392 -5.48171 -0 0.00251081 -0 3.10375e-06)
(-0.00291135 -5.49118 -0 0.00290821 -0 3.14111e-06)
(-0.00326557 -5.49938 -0 0.00326083 -0 4.74118e-06)
(-0.00363849 -5.50807 -0 0.00363408 -0 4.4048e-06)
(-0.00405987 -5.51716 -0 0.00405472 -0 5.15305e-06)
(-0.00451921 -5.52668 -0 0.00451343 -0 5.78436e-06)
(-0.00501839 -5.53667 -0 0.00501208 -0 6.30309e-06)
(-0.00556873 -5.54711 -0 0.00556159 -0 7.13227e-06)
(-0.00616551 -5.55794 -0 0.00615789 -0 7.61155e-06)
(-0.00683748 -5.56931 -0 0.00682858 -0 8.90648e-06)
(-0.00754721 -5.58092 -0 0.00753831 -0 8.89993e-06)
(-0.00839338 -5.59318 -0 0.00838178 -0 1.16051e-05)
(-0.00923385 -5.60557 -0 0.00922424 -0 9.61599e-06)
(-0.0103504 -5.6187 -0 0.0103338 -0 1.66231e-05)
(-0.0113125 -5.63173 -0 0.0113048 -0 7.694e-06)
(-0.0129187 -5.64581 -0 0.0128903 -0 2.83958e-05)
(-0.0139191 -5.65932 -0 0.0139231 -0 -4.04589e-06)
(-0.0164999 -5.67448 -0 0.0164384 -0 6.14325e-05)