/*--------------------------------*- C++ -*----------------------------------*\
| =========                 |                                                 |
| \\      /  F ield         | OpenFOAM: The Open Source CFD Toolbox           |
|  \\    /   O peration     | Version:  2306                                  |
|   \\  /    A nd           | Website:  www.openfoam.com                      |
|    \\/     M anipulation  |                                                 |
\*---------------------------------------------------------------------------*/
FoamFile
{
    version     2.0;
    format      ascii;
    arch        "LSB;label=32;scalar=64";
    class       volVectorField;
    location    "1600";
    object      U;
}
// * * * * * * * * * * * * * * * * * * * * * * * * * * * * * * * * * * * * * //

dimensions      [0 1 -1 0 0 0 0];

internalField   nonuniform List<vector> 
20540
(
(35.9892 0.00107583 0)
(26.0629 0.00246203 0)
(36.0205 0.00344934 0)
(26.0881 0.00724258 0)
(36.0615 0.00631553 0)
(26.1211 0.0111959 0)
(36.1144 0.00977408 0)
(26.1637 0.0145461 0)
(36.1817 0.0139445 0)
(26.2183 0.0177129 0)
(36.2665 0.0189688 0)
(26.2872 0.020863 0)
(36.372 0.0250156 0)
(26.3735 0.0240261 0)
(36.5025 0.0322831 0)
(26.4809 0.0272141 0)
(36.6625 0.041004 0)
(26.6135 0.0304455 0)
(36.8577 0.0514484 0)
(26.7766 0.0337411 0)
(37.0942 0.0639272 0)
(26.9762 0.0371263 0)
(37.3793 0.0787928 0)
(27.22 0.0406402 0)
(37.7213 0.0964375 0)
(27.5168 0.0443508 0)
(38.1292 0.117286 0)
(27.8773 0.0483746 0)
(38.6128 0.141782 0)
(28.3144 0.0529061 0)
(39.1822 0.170358 0)
(28.8435 0.0582583 0)
(39.8471 0.203392 0)
(29.4829 0.0649163 0)
(40.6155 0.24114 0)
(30.2542 0.0736039 0)
(41.4908 0.283596 0)
(31.1828 0.085364 0)
(42.4682 0.330326 0)
(32.2975 0.101637 0)
(43.5296 0.38029 0)
(33.6295 0.124299 0)
(44.6326 0.431545 0)
(35.21 0.155588 0)
(45.692 0.480988 0)
(37.0645 0.197686 0)
(46.5583 0.523675 0)
(39.2012 0.251634 0)
(47.0388 0.551192 0)
(41.5882 0.315571 0)
(47.0293 0.552608 0)
(44.1148 0.383523 0)
(46.6211 0.520552 0)
(46.4899 0.4408 0)
(46.0294 0.454966 0)
(48.0233 0.4478 0)
(45.4855 0.360325 0)
(48.3751 0.387047 0)
(45.1136 0.246412 0)
(48.2061 0.284337 0)
(44.9445 0.133125 0)
(48.0106 0.167303 0)
(44.8876 0.0265878 0)
(47.9162 0.0526462 0)
(44.8904 -0.0785206 0)
(47.9215 -0.0617923 0)
(44.9545 -0.185269 0)
(48.0263 -0.17638 0)
(45.132 -0.297453 0)
(48.2259 -0.291278 0)
(45.5004 -0.408722 0)
(48.3833 -0.390346 0)
(46.028 -0.501327 0)
(48.023 -0.448836 0)
(46.5962 -0.565887 0)
(46.4986 -0.441396 0)
(46.9802 -0.597719 0)
(44.1288 -0.384279 0)
(46.9614 -0.596242 0)
(41.5911 -0.315991 0)
(46.4462 -0.568291 0)
(39.1791 -0.2513 0)
(45.5411 -0.524593 0)
(37.0051 -0.196347 0)
(44.4397 -0.473507 0)
(35.1042 -0.153216 0)
(43.2909 -0.420044 0)
(33.4722 -0.121075 0)
(42.1803 -0.367452 0)
(32.0864 -0.0978479 0)
(41.1511 -0.317798 0)
(30.9183 -0.0813174 0)
(40.2237 -0.272298 0)
(29.9378 -0.0695719 0)
(39.4042 -0.231505 0)
(29.1172 -0.0611176 0)
(38.6896 -0.195498 0)
(28.4318 -0.0548534 0)
(38.0727 -0.16409 0)
(27.8604 -0.0499985 0)
(37.5444 -0.136948 0)
(27.385 -0.0460191 0)
(37.0949 -0.113662 0)
(26.9901 -0.0425637 0)
(36.7146 -0.0938012 0)
(26.6625 -0.0394098 0)
(36.3946 -0.0769401 0)
(26.3913 -0.0364229 0)
(36.1268 -0.0626795 0)
(26.1674 -0.0335254 0)
(35.9036 -0.0506551 0)
(25.9829 -0.0306749 0)
(35.7186 -0.0405417 0)
(25.8315 -0.0278492 0)
(35.5661 -0.0320529 0)
(25.7076 -0.0250346 0)
(35.4412 -0.0249398 0)
(25.6069 -0.022219 0)
(35.3396 -0.0189878 0)
(25.5254 -0.0193904 0)
(35.2576 -0.0140131 0)
(25.4599 -0.0165414 0)
(35.1922 -0.00985914 0)
(25.4079 -0.0136466 0)
(35.1406 -0.00639331 0)
(25.367 -0.01055 0)
(35.1004 -0.00350322 0)
(25.3353 -0.00685374 0)
(35.0696 -0.0010951 0)
(25.3111 -0.00233744 0)
(9.29612 0.00387458 0)
(6.35304 0.000383565 0)
(5.74852 9.32265e-05 0)
(5.42127 5.29185e-05 0)
(5.20663 3.50534e-05 0)
(5.06006 2.48504e-05 0)
(4.95461 1.87151e-05 0)
(4.87457 1.4744e-05 0)
(4.81215 1.19453e-05 0)
(4.76245 9.89579e-06 0)
(4.7221 8.35034e-06 0)
(4.68885 7.14948e-06 0)
(4.66113 6.1936e-06 0)
(4.63778 5.41763e-06 0)
(4.61796 4.78022e-06 0)
(4.60098 4.24643e-06 0)
(4.5864 3.79993e-06 0)
(4.57372 3.41765e-06 0)
(4.56273 3.08557e-06 0)
(4.5531 2.8041e-06 0)
(4.54466 2.55697e-06 0)
(4.53721 2.34274e-06 0)
(4.53061 2.15611e-06 0)
(4.52474 1.98906e-06 0)
(4.51952 1.84173e-06 0)
(4.51484 1.71242e-06 0)
(4.51064 1.5961e-06 0)
(4.50687 1.4916e-06 0)
(4.50346 1.3985e-06 0)
(4.50038 1.31354e-06 0)
(4.49759 1.23842e-06 0)
(4.49504 1.16867e-06 0)
(4.49273 1.10512e-06 0)
(4.49062 1.04419e-06 0)
(4.48871 9.88481e-07 0)
(4.48695 9.32856e-07 0)
(4.48537 8.80416e-07 0)
(4.48392 8.24874e-07 0)
(4.48264 7.69174e-07 0)
(4.48148 7.06283e-07 0)
(4.48049 6.38115e-07 0)
(4.47963 5.58783e-07 0)
(4.47895 4.64833e-07 0)
(4.47842 3.54023e-07 0)
(4.4781 2.21444e-07 0)
(4.47797 6.43992e-08 0)
(4.4781 -1.37167e-07 0)
(4.47848 -3.80696e-07 0)
(4.47921 -6.68886e-07 0)
(4.48026 -1.02088e-06 0)
(4.48173 -1.44276e-06 0)
(4.48365 -1.95694e-06 0)
(4.48611 -2.56374e-06 0)
(4.48914 -3.29501e-06 0)
(4.49288 -4.1676e-06 0)
(4.49735 -5.19252e-06 0)
(4.50272 -6.40371e-06 0)
(4.509 -7.8243e-06 0)
(4.51642 -9.49505e-06 0)
(4.52498 -1.14597e-05 0)
(4.535 -1.37957e-05 0)
(4.54644 -1.64779e-05 0)
(4.55975 -1.98216e-05 0)
(4.57244 -2.31357e-05 0)
(4.58343 -2.57938e-05 0)
(4.59503 -2.90385e-05 0)
(4.60742 -3.24505e-05 0)
(4.62054 -3.61759e-05 0)
(4.63445 -4.03636e-05 0)
(4.64915 -4.48539e-05 0)
(4.66467 -5.0009e-05 0)
(4.68107 -5.54296e-05 0)
(4.69835 -6.18251e-05 0)
(4.71658 -6.84613e-05 0)
(4.73592 -7.68127e-05 0)
(4.75615 -8.46869e-05 0)
(4.77804 -9.63803e-05 0)
(4.80041 -0.000105307 0)
(4.8259 -0.00012382 0)
(4.85031 -0.000131858 0)
(4.88184 -0.000165962 0)
(4.90704 -0.000168426 0)
(4.95135 -0.000242768 0)
(4.97339 -0.000207614 0)
(5.04188 -0.000464777 0)
(5.07399 -0.000281509 0)
(5.16123 -0.00077406 0)
(5.27175 -0.0312632 0)
(16.182 0.00666154 0)
(12.3162 0.0016348 0)
(11.3861 0.000465891 0)
(10.864 0.000281587 0)
(10.5136 0.000194582 0)
(10.2717 0.000140954 0)
(10.0963 0.000107755 0)
(9.96256 8.59059e-05 0)
(9.85782 7.01935e-05 0)
(9.77417 5.85268e-05 0)
(9.70612 4.96564e-05 0)
(9.64992 4.27014e-05 0)
(9.60301 3.71279e-05 0)
(9.56343 3.25779e-05 0)
(9.52981 2.882e-05 0)
(9.50098 2.56616e-05 0)
(9.47619 2.30068e-05 0)
(9.45463 2.07292e-05 0)
(9.43593 1.87442e-05 0)
(9.41954 1.70549e-05 0)
(9.40515 1.55701e-05 0)
(9.39245 1.42801e-05 0)
(9.38121 1.31551e-05 0)
(9.3712 1.21456e-05 0)
(9.36229 1.12537e-05 0)
(9.35431 1.04691e-05 0)
(9.34715 9.76388e-06 0)
(9.3407 9.12935e-06 0)
(9.33489 8.56153e-06 0)
(9.32962 8.04452e-06 0)
(9.32485 7.58499e-06 0)
(9.3205 7.15867e-06 0)
(9.31656 6.76972e-06 0)
(9.31295 6.3951e-06 0)
(9.30969 6.05007e-06 0)
(9.30668 5.70453e-06 0)
(9.30399 5.3752e-06 0)
(9.30152 5.02497e-06 0)
(9.29934 4.66892e-06 0)
(9.29736 4.26487e-06 0)
(9.29568 3.82012e-06 0)
(9.29421 3.3019e-06 0)
(9.29306 2.68054e-06 0)
(9.29217 1.94534e-06 0)
(9.29166 1.05404e-06 0)
(9.29147 -9.4813e-09 0)
(9.29173 -1.34148e-06 0)
(9.29243 -2.98657e-06 0)
(9.29373 -4.9505e-06 0)
(9.2956 -7.31747e-06 0)
(9.29821 -1.01743e-05 0)
(9.30159 -1.3652e-05 0)
(9.30594 -1.77581e-05 0)
(9.31127 -2.27032e-05 0)
(9.31785 -2.85854e-05 0)
(9.3257 -3.55234e-05 0)
(9.33512 -4.36796e-05 0)
(9.34615 -5.33013e-05 0)
(9.35916 -6.4513e-05 0)
(9.37416 -7.78173e-05 0)
(9.39172 -9.33618e-05 0)
(9.41175 -0.000111587 0)
(9.43504 -0.000133536 0)
(9.45723 -0.000155004 0)
(9.47645 -0.000173429 0)
(9.49672 -0.000194114 0)
(9.51835 -0.000216914 0)
(9.54126 -0.000241625 0)
(9.56553 -0.00026898 0)
(9.59117 -0.000298699 0)
(9.61823 -0.000331968 0)
(9.64679 -0.000368144 0)
(9.67691 -0.000408605 0)
(9.70859 -0.000453764 0)
(9.74227 -0.000504221 0)
(9.77735 -0.000561583 0)
(9.81545 -0.000625681 0)
(9.85408 -0.000702668 0)
(9.89847 -0.000786592 0)
(9.94035 -0.000897943 0)
(9.99528 -0.00100992 0)
(10.0381 -0.00120013 0)
(10.1148 -0.00137286 0)
(10.1523 -0.00162041 0)
(10.2678 -0.00245485 0)
(10.3252 -0.00205868 0)
(10.4477 -0.00644819 0)
(10.8466 -0.0585928 0)
(20.1903 0.0106131 0)
(16.5009 0.00327482 0)
(15.4657 0.00103055 0)
(14.8555 0.00064254 0)
(14.4336 0.000452029 0)
(14.1388 0.000330285 0)
(13.9238 0.000253916 0)
(13.7588 0.000203278 0)
(13.6293 0.000166579 0)
(13.5256 0.000139192 0)
(13.4411 0.0001183 0)
(13.3712 0.000101873 0)
(13.3129 8.86772e-05 0)
(13.2636 7.78834e-05 0)
(13.2216 6.89549e-05 0)
(13.1857 6.14405e-05 0)
(13.1548 5.51159e-05 0)
(13.1278 4.96863e-05 0)
(13.1045 4.49495e-05 0)
(13.084 4.09136e-05 0)
(13.066 3.73652e-05 0)
(13.0501 3.4279e-05 0)
(13.0361 3.15853e-05 0)
(13.0236 2.91696e-05 0)
(13.0124 2.70327e-05 0)
(13.0024 2.51519e-05 0)
(12.9935 2.34615e-05 0)
(12.9854 2.19395e-05 0)
(12.9781 2.05774e-05 0)
(12.9715 1.93362e-05 0)
(12.9656 1.82321e-05 0)
(12.9601 1.72079e-05 0)
(12.9552 1.62723e-05 0)
(12.9507 1.53714e-05 0)
(12.9466 1.45393e-05 0)
(12.9428 1.3706e-05 0)
(12.9395 1.29083e-05 0)
(12.9364 1.20596e-05 0)
(12.9336 1.11923e-05 0)
(12.9312 1.02078e-05 0)
(12.9291 9.11856e-06 0)
(12.9273 7.8474e-06 0)
(12.9259 6.3216e-06 0)
(12.9248 4.50947e-06 0)
(12.9242 2.31034e-06 0)
(12.924 -3.23554e-07 0)
(12.9245 -3.5961e-06 0)
(12.9254 -7.67173e-06 0)
(12.9272 -1.25466e-05 0)
(12.9297 -1.83964e-05 0)
(12.9332 -2.54727e-05 0)
(12.9376 -3.40779e-05 0)
(12.9434 -4.42532e-05 0)
(12.9504 -5.64933e-05 0)
(12.959 -7.10469e-05 0)
(12.9693 -8.82283e-05 0)
(12.9817 -0.000108406 0)
(12.9961 -0.000132232 0)
(13.0132 -0.000159952 0)
(13.0328 -0.000192884 0)
(13.0558 -0.000231247 0)
(13.082 -0.000276353 0)
(13.1125 -0.00033033 0)
(13.1415 -0.000383087 0)
(13.1666 -0.000428832 0)
(13.1931 -0.000479337 0)
(13.2214 -0.000535499 0)
(13.2513 -0.000596377 0)
(13.283 -0.000663466 0)
(13.3165 -0.000736604 0)
(13.3519 -0.000817874 0)
(13.3892 -0.000907003 0)
(13.4286 -0.00100531 0)
(13.4698 -0.00111687 0)
(13.5139 -0.001238 0)
(13.5595 -0.00138136 0)
(13.6095 -0.00153142 0)
(13.6595 -0.00172838 0)
(13.7179 -0.00191472 0)
(13.7717 -0.00221177 0)
(13.8441 -0.00243577 0)
(13.8986 -0.0029594 0)
(13.9988 -0.00326718 0)
(14.0476 -0.00399183 0)
(14.1933 -0.00574105 0)
(14.2714 -0.0046416 0)
(14.4033 -0.018271 0)
(14.9949 -0.0723574 0)
(22.6107 0.0137298 0)
(19.3698 0.00507948 0)
(18.3341 0.00173427 0)
(17.6873 0.00111279 0)
(17.2247 0.000795025 0)
(16.8969 0.000584982 0)
(16.656 0.000451656 0)
(16.4703 0.000362689 0)
(16.3239 0.000297811 0)
(16.2065 0.000249208 0)
(16.1107 0.000212044 0)
(16.0314 0.000182765 0)
(15.965 0.000159204 0)
(15.9089 0.000139909 0)
(15.8612 0.000123932 0)
(15.8202 0.000110474 0)
(15.785 9.91367e-05 0)
(15.7543 8.94006e-05 0)
(15.7276 8.09026e-05 0)
(15.7043 7.36545e-05 0)
(15.6837 6.72822e-05 0)
(15.6656 6.17359e-05 0)
(15.6496 5.68928e-05 0)
(15.6353 5.25508e-05 0)
(15.6225 4.87071e-05 0)
(15.6111 4.53226e-05 0)
(15.6009 4.22813e-05 0)
(15.5917 3.95418e-05 0)
(15.5834 3.70891e-05 0)
(15.5758 3.48541e-05 0)
(15.569 3.28634e-05 0)
(15.5628 3.10181e-05 0)
(15.5571 2.93305e-05 0)
(15.552 2.77057e-05 0)
(15.5473 2.62016e-05 0)
(15.543 2.46955e-05 0)
(15.5392 2.32486e-05 0)
(15.5357 2.17093e-05 0)
(15.5326 2.01293e-05 0)
(15.5297 1.83361e-05 0)
(15.5274 1.6344e-05 0)
(15.5253 1.40173e-05 0)
(15.5237 1.12206e-05 0)
(15.5225 7.89188e-06 0)
(15.5219 3.84755e-06 0)
(15.5218 -1.01439e-06 0)
(15.5223 -7.01057e-06 0)
(15.5235 -1.45192e-05 0)
(15.5256 -2.35288e-05 0)
(15.5286 -3.43056e-05 0)
(15.5327 -4.73571e-05 0)
(15.538 -6.32181e-05 0)
(15.5447 -8.19962e-05 0)
(15.553 -0.000104566 0)
(15.5631 -0.000131396 0)
(15.5752 -0.000163092 0)
(15.5897 -0.000200296 0)
(15.6067 -0.000244256 0)
(15.6267 -0.000295364 0)
(15.6498 -0.000356112 0)
(15.6767 -0.000426776 0)
(15.7075 -0.000509992 0)
(15.7432 -0.000609211 0)
(15.7772 -0.000706349 0)
(15.8066 -0.000791051 0)
(15.8377 -0.000883549 0)
(15.8708 -0.000986931 0)
(15.9058 -0.00109912 0)
(15.9429 -0.00122235 0)
(15.9821 -0.00135708 0)
(16.0235 -0.00150596 0)
(16.067 -0.00167033 0)
(16.1131 -0.00184983 0)
(16.1612 -0.00205597 0)
(16.2127 -0.00227528 0)
(16.2657 -0.00254221 0)
(16.3242 -0.0028093 0)
(16.382 -0.00318091 0)
(16.4504 -0.00350081 0)
(16.5121 -0.00407212 0)
(16.5969 -0.00443116 0)
(16.6589 -0.00544106 0)
(16.7746 -0.00590263 0)
(16.831 -0.0073259 0)
(16.9953 -0.0101992 0)
(17.0828 -0.00827735 0)
(17.2356 -0.0338375 0)
(17.8043 -0.0666847 0)
(24.2684 0.0163693 0)
(21.5395 0.00703269 0)
(20.5673 0.00258519 0)
(19.9162 0.00171234 0)
(19.4311 0.00124428 0)
(19.0813 0.000922625 0)
(18.8218 0.000715593 0)
(18.6205 0.000576441 0)
(18.4611 0.000474293 0)
(18.333 0.000397453 0)
(18.2281 0.00033855 0)
(18.1412 0.00029205 0)
(18.0684 0.000254571 0)
(18.0068 0.000223839 0)
(17.9544 0.000198367 0)
(17.9093 0.000176896 0)
(17.8706 0.000158792 0)
(17.8368 0.000143241 0)
(17.8074 0.000129662 0)
(17.7817 0.000118068 0)
(17.7591 0.000107876 0)
(17.7391 9.89992e-05 0)
(17.7214 9.12438e-05 0)
(17.7057 8.42943e-05 0)
(17.6916 7.81372e-05 0)
(17.679 7.27137e-05 0)
(17.6677 6.78414e-05 0)
(17.6576 6.34506e-05 0)
(17.6484 5.95183e-05 0)
(17.6401 5.59347e-05 0)
(17.6325 5.27391e-05 0)
(17.6257 4.97789e-05 0)
(17.6195 4.70692e-05 0)
(17.6138 4.44609e-05 0)
(17.6086 4.20413e-05 0)
(17.6039 3.96196e-05 0)
(17.5996 3.72856e-05 0)
(17.5957 3.48033e-05 0)
(17.5923 3.22457e-05 0)
(17.5892 2.93447e-05 0)
(17.5866 2.61102e-05 0)
(17.5844 2.23306e-05 0)
(17.5826 1.77832e-05 0)
(17.5813 1.23606e-05 0)
(17.5806 5.76747e-06 0)
(17.5805 -2.18899e-06 0)
(17.5811 -1.1937e-05 0)
(17.5825 -2.41776e-05 0)
(17.5849 -3.89277e-05 0)
(17.5882 -5.6538e-05 0)
(17.5928 -7.78605e-05 0)
(17.5988 -0.000103761 0)
(17.6063 -0.000134464 0)
(17.6156 -0.000171336 0)
(17.627 -0.000215156 0)
(17.6406 -0.000266955 0)
(17.6568 -0.000327733 0)
(17.6758 -0.000399576 0)
(17.6982 -0.000483063 0)
(17.724 -0.000582317 0)
(17.7541 -0.000697662 0)
(17.7885 -0.000833625 0)
(17.8284 -0.000995237 0)
(17.8663 -0.00115372 0)
(17.8992 -0.0012925 0)
(17.9339 -0.00144278 0)
(17.9708 -0.00161119 0)
(18.0099 -0.00179424 0)
(18.0513 -0.00199471 0)
(18.0949 -0.00221443 0)
(18.141 -0.00245599 0)
(18.1893 -0.0027242 0)
(18.2406 -0.00301451 0)
(18.294 -0.00335123 0)
(18.3514 -0.00370326 0)
(18.41 -0.00414144 0)
(18.4749 -0.00456415 0)
(18.5386 -0.00517891 0)
(18.6145 -0.00567091 0)
(18.6819 -0.00662422 0)
(18.7757 -0.00715038 0)
(18.8431 -0.00882025 0)
(18.9695 -0.00947452 0)
(19.0312 -0.0118515 0)
(19.2088 -0.0160143 0)
(19.2947 -0.013629 0)
(19.4896 -0.0506666 0)
(19.8932 -0.065329 0)
(25.5098 0.0185336 0)
(23.2839 0.00905012 0)
(22.4206 0.00355951 0)
(21.792 0.00244479 0)
(21.2997 0.00181204 0)
(20.9365 0.00135617 0)
(20.6639 0.00105757 0)
(20.4506 0.000855064 0)
(20.281 0.000705246 0)
(20.144 0.00059198 0)
(20.0317 0.000504885 0)
(19.9384 0.000435963 0)
(19.8601 0.000380306 0)
(19.7939 0.000334602 0)
(19.7374 0.000296679 0)
(19.6888 0.000264683 0)
(19.6469 0.000237679 0)
(19.6105 0.000214474 0)
(19.5788 0.000194205 0)
(19.551 0.000176878 0)
(19.5265 0.000161648 0)
(19.5049 0.000148373 0)
(19.4858 0.000136768 0)
(19.4687 0.000126375 0)
(19.4535 0.000117159 0)
(19.4399 0.000109037 0)
(19.4276 0.000101743 0)
(19.4166 9.51658e-05 0)
(19.4067 8.92745e-05 0)
(19.3977 8.39047e-05 0)
(19.3895 7.91107e-05 0)
(19.3821 7.46731e-05 0)
(19.3753 7.06074e-05 0)
(19.3691 6.66955e-05 0)
(19.3636 6.30593e-05 0)
(19.3584 5.9423e-05 0)
(19.3538 5.59078e-05 0)
(19.3496 5.21725e-05 0)
(19.3459 4.83106e-05 0)
(19.3426 4.39346e-05 0)
(19.3397 3.90406e-05 0)
(19.3373 3.3321e-05 0)
(19.3354 2.6436e-05 0)
(19.334 1.8213e-05 0)
(19.3333 8.21209e-06 0)
(19.3331 -3.90066e-06 0)
(19.3338 -1.86659e-05 0)
(19.3353 -3.72024e-05 0)
(19.3379 -5.96441e-05 0)
(19.3416 -8.64394e-05 0)
(19.3466 -0.00011883 0)
(19.3531 -0.000158158 0)
(19.3613 -0.000204836 0)
(19.3714 -0.000260848 0)
(19.3838 -0.000327397 0)
(19.3986 -0.000406097 0)
(19.4163 -0.000498406 0)
(19.4369 -0.00060755 0)
(19.4613 -0.000734337 0)
(19.4894 -0.00088505 0)
(19.5221 -0.00106008 0)
(19.5595 -0.00126649 0)
(19.6029 -0.00151113 0)
(19.6441 -0.0017513 0)
(19.6798 -0.00196243 0)
(19.7174 -0.00218945 0)
(19.7575 -0.00244406 0)
(19.7998 -0.0027213 0)
(19.8447 -0.00302407 0)
(19.8919 -0.00335661 0)
(19.9418 -0.00372039 0)
(19.9941 -0.00412621 0)
(20.0495 -0.00456198 0)
(20.1071 -0.00507153 0)
(20.169 -0.00559616 0)
(20.232 -0.00626108 0)
(20.302 -0.00688337 0)
(20.37 -0.00781963 0)
(20.4517 -0.00852762 0)
(20.5234 -0.00998191 0)
(20.6239 -0.0107157 0)
(20.6952 -0.0132253 0)
(20.8288 -0.0141231 0)
(20.8941 -0.0177497 0)
(21.0822 -0.0232011 0)
(21.1579 -0.0214295 0)
(21.4075 -0.0664891 0)
(21.6059 -0.0760705 0)
(26.5006 0.0201322 0)
(24.7404 0.011049 0)
(24.0173 0.00461829 0)
(23.4352 0.00330493 0)
(22.95 0.00250727 0)
(22.5818 0.00189795 0)
(22.3011 0.00148995 0)
(22.0793 0.00121005 0)
(21.9016 0.00100101 0)
(21.7575 0.000841983 0)
(21.6389 0.000719215 0)
(21.5401 0.000621772 0)
(21.4571 0.000542899 0)
(21.3867 0.000478015 0)
(21.3266 0.0004241 0)
(21.2749 0.000378564 0)
(21.2303 0.000340087 0)
(21.1914 0.000307007 0)
(21.1576 0.000278098 0)
(21.1278 0.000253353 0)
(21.1017 0.000231603 0)
(21.0786 0.000212631 0)
(21.0581 0.000196032 0)
(21.0399 0.000181175 0)
(21.0236 0.000167988 0)
(21.009 0.000156361 0)
(20.9959 0.000145921 0)
(20.9841 0.000136504 0)
(20.9735 0.000128065 0)
(20.9638 0.000120373 0)
(20.9551 0.000113497 0)
(20.9471 0.000107136 0)
(20.9399 0.000101304 0)
(20.9332 9.56963e-05 0)
(20.9273 9.04733e-05 0)
(20.9218 8.52563e-05 0)
(20.9168 8.01991e-05 0)
(20.9123 7.4832e-05 0)
(20.9083 6.92662e-05 0)
(20.9047 6.29684e-05 0)
(20.9017 5.59074e-05 0)
(20.8991 4.76558e-05 0)
(20.897 3.77222e-05 0)
(20.8955 2.58429e-05 0)
(20.8947 1.13956e-05 0)
(20.8946 -6.15511e-06 0)
(20.8953 -2.74874e-05 0)
(20.8969 -5.41897e-05 0)
(20.8997 -8.66481e-05 0)
(20.9036 -0.000125495 0)
(20.909 -0.000172336 0)
(20.9159 -0.000229164 0)
(20.9247 -0.000296707 0)
(20.9355 -0.000377685 0)
(20.9487 -0.000473866 0)
(20.9645 -0.000587645 0)
(20.9834 -0.000721056 0)
(21.0054 -0.000878814 0)
(21.0314 -0.00106202 0)
(21.0614 -0.00127973 0)
(21.0964 -0.0015324 0)
(21.1363 -0.00183047 0)
(21.1825 -0.00218271 0)
(21.2264 -0.00252877 0)
(21.2644 -0.00283406 0)
(21.3045 -0.00316045 0)
(21.3471 -0.0035262 0)
(21.3922 -0.00392524 0)
(21.4399 -0.00435981 0)
(21.49 -0.00483795 0)
(21.543 -0.00535853 0)
(21.5984 -0.00594153 0)
(21.6571 -0.00656306 0)
(21.718 -0.00729458 0)
(21.7835 -0.00803782 0)
(21.8498 -0.00899324 0)
(21.9238 -0.00986583 0)
(21.9952 -0.0112115 0)
(22.0812 -0.0121874 0)
(22.156 -0.0142713 0)
(22.2611 -0.0152653 0)
(22.3355 -0.0188026 0)
(22.4737 -0.0200011 0)
(22.5412 -0.0252402 0)
(22.7372 -0.0317767 0)
(22.7987 -0.0323224 0)
(23.0991 -0.0806527 0)
(23.1329 -0.0977619 0)
(27.3297 0.0210351 0)
(25.9888 0.0129474 0)
(25.4244 0.00570924 0)
(24.9101 0.00427787 0)
(24.4467 0.00333536 0)
(24.0821 0.00256005 0)
(23.7985 0.0020263 0)
(23.5716 0.00165478 0)
(23.3881 0.00137403 0)
(23.2384 0.00115874 0)
(23.1147 0.0009917 0)
(23.0113 0.000858616 0)
(22.9241 0.000750573 0)
(22.8501 0.000661491 0)
(22.7867 0.000587336 0)
(22.7322 0.00052462 0)
(22.6851 0.000471551 0)
(22.644 0.000425891 0)
(22.6081 0.000385969 0)
(22.5767 0.000351744 0)
(22.549 0.000321658 0)
(22.5245 0.000295391 0)
(22.5027 0.00027239 0)
(22.4834 0.000251812 0)
(22.4661 0.000233529 0)
(22.4506 0.0002174 0)
(22.4367 0.00020292 0)
(22.4241 0.00018985 0)
(22.4128 0.000178137 0)
(22.4025 0.000167456 0)
(22.3932 0.000157896 0)
(22.3847 0.00014906 0)
(22.377 0.000140952 0)
(22.37 0.000133161 0)
(22.3636 0.000125891 0)
(22.3578 0.000118641 0)
(22.3525 0.000111594 0)
(22.3477 0.000104128 0)
(22.3434 9.63651e-05 0)
(22.3396 8.7597e-05 0)
(22.3364 7.77463e-05 0)
(22.3336 6.62377e-05 0)
(22.3314 5.23882e-05 0)
(22.3298 3.58088e-05 0)
(22.3289 1.56511e-05 0)
(22.3287 -8.89116e-06 0)
(22.3295 -3.86935e-05 0)
(22.3311 -7.58358e-05 0)
(22.334 -0.000121094 0)
(22.3381 -0.000175473 0)
(22.3437 -0.000240884 0)
(22.351 -0.000320159 0)
(22.3603 -0.000414489 0)
(22.3716 -0.000527486 0)
(22.3855 -0.000661652 0)
(22.4022 -0.000820402 0)
(22.422 -0.00100648 0)
(22.4453 -0.00122652 0)
(22.4726 -0.00148199 0)
(22.5042 -0.00178542 0)
(22.5409 -0.0021374 0)
(22.5829 -0.00255261 0)
(22.6315 -0.00304195 0)
(22.6776 -0.0035228 0)
(22.7175 -0.00394843 0)
(22.7596 -0.00440137 0)
(22.8043 -0.00490792 0)
(22.8515 -0.00546157 0)
(22.9014 -0.00606294 0)
(22.9538 -0.00672553 0)
(23.0093 -0.0074437 0)
(23.0671 -0.00825042 0)
(23.1285 -0.00910516 0)
(23.1919 -0.0101159 0)
(23.2601 -0.0111318 0)
(23.3291 -0.0124508 0)
(23.4059 -0.0136341 0)
(23.4799 -0.0154866 0)
(23.5687 -0.0167958 0)
(23.6461 -0.0196465 0)
(23.7539 -0.020971 0)
(23.8308 -0.0257379 0)
(23.9712 -0.0272999 0)
(24.0402 -0.0345777 0)
(24.241 -0.0418689 0)
(24.2898 -0.0466394 0)
(24.6222 -0.0943809 0)
(24.5692 -0.125004 0)
(28.0497 0.0210795 0)
(27.0807 0.0146532 0)
(26.6824 0.00676324 0)
(26.2539 0.00533375 0)
(25.8266 0.00429354 0)
(25.4749 0.00335135 0)
(25.1944 0.00267967 0)
(24.9661 0.00220346 0)
(24.7794 0.00183822 0)
(24.6258 0.00155532 0)
(24.4982 0.00133437 0)
(24.391 0.00115748 0)
(24.3004 0.00101334 0)
(24.2232 0.000894135 0)
(24.157 0.00079468 0)
(24.0999 0.000710419 0)
(24.0505 0.000638992 0)
(24.0073 0.000577473 0)
(23.9697 0.000523649 0)
(23.9366 0.000477423 0)
(23.9074 0.000436774 0)
(23.8816 0.000401252 0)
(23.8587 0.00037011 0)
(23.8382 0.000342262 0)
(23.82 0.000317492 0)
(23.8036 0.000295624 0)
(23.7889 0.000275994 0)
(23.7756 0.000258266 0)
(23.7636 0.000242372 0)
(23.7528 0.000227876 0)
(23.7429 0.000214883 0)
(23.734 0.000202882 0)
(23.7258 0.00019186 0)
(23.7183 0.000181281 0)
(23.7116 0.000171391 0)
(23.7054 0.000161544 0)
(23.6998 0.000151951 0)
(23.6947 0.000141809 0)
(23.6902 0.000131238 0)
(23.6861 0.000119324 0)
(23.6827 0.000105919 0)
(23.6797 9.02643e-05 0)
(23.6773 7.144e-05 0)
(23.6756 4.88875e-05 0)
(23.6746 2.14798e-05 0)
(23.6744 -1.19349e-05 0)
(23.6751 -5.25321e-05 0)
(23.6768 -0.000102895 0)
(23.6798 -0.000164307 0)
(23.684 -0.000238397 0)
(23.6898 -0.000327386 0)
(23.6974 -0.000435134 0)
(23.707 -0.000563413 0)
(23.7188 -0.000716958 0)
(23.7333 -0.000899202 0)
(23.7505 -0.00111487 0)
(23.7712 -0.00136758 0)
(23.7954 -0.0016664 0)
(23.8238 -0.00201324 0)
(23.8566 -0.00242495 0)
(23.8948 -0.00290227 0)
(23.9384 -0.00346526 0)
(23.9889 -0.00412708 0)
(24.0367 -0.00477723 0)
(24.0781 -0.00535448 0)
(24.1218 -0.00596659 0)
(24.1681 -0.00664925 0)
(24.2169 -0.00739646 0)
(24.2686 -0.00820613 0)
(24.3228 -0.00909907 0)
(24.3801 -0.010063 0)
(24.4398 -0.011148 0)
(24.5031 -0.0122921 0)
(24.5684 -0.0136482 0)
(24.6386 -0.0150012 0)
(24.7094 -0.0167662 0)
(24.7881 -0.0183338 0)
(24.864 -0.020799 0)
(24.9544 -0.0225261 0)
(25.0339 -0.0262882 0)
(25.1427 -0.0280366 0)
(25.2217 -0.0342473 0)
(25.3624 -0.0362558 0)
(25.4326 -0.0460174 0)
(25.6342 -0.0537867 0)
(25.6758 -0.0643221 0)
(26.0156 -0.109623 0)
(25.9424 -0.153792 0)
(28.6943 0.0200639 0)
(28.0525 0.0160585 0)
(27.8185 0.00769243 0)
(27.4891 0.00642269 0)
(27.112 0.00536544 0)
(26.7831 0.00427332 0)
(26.5123 0.00345973 0)
(26.287 0.00286931 0)
(26.1 0.00240788 0)
(25.9446 0.00204586 0)
(25.8145 0.00176071 0)
(25.7046 0.00153099 0)
(25.6113 0.00134287 0)
(25.5314 0.00118673 0)
(25.4629 0.00105605 0)
(25.4035 0.000945092 0)
(25.3521 0.000850818 0)
(25.3071 0.000769503 0)
(25.2677 0.000698298 0)
(25.2331 0.000637015 0)
(25.2025 0.000583093 0)
(25.1755 0.000535923 0)
(25.1514 0.000494509 0)
(25.13 0.00045749 0)
(25.1108 0.000424518 0)
(25.0936 0.000395386 0)
(25.0781 0.000369236 0)
(25.0641 0.000345603 0)
(25.0515 0.000324407 0)
(25.04 0.000305068 0)
(25.0297 0.000287708 0)
(25.0202 0.000271684 0)
(25.0116 0.000256957 0)
(25.0037 0.000242837 0)
(24.9966 0.000229611 0)
(24.99 0.000216469 0)
(24.9841 0.00020364 0)
(24.9787 0.000190106 0)
(24.974 0.000175974 0)
(24.9697 0.000160086 0)
(24.966 0.000142189 0)
(24.9628 0.000121302 0)
(24.9603 9.62147e-05 0)
(24.9584 6.61435e-05 0)
(24.9573 2.96189e-05 0)
(24.957 -1.4938e-05 0)
(24.9577 -6.91396e-05 0)
(24.9594 -0.000136111 0)
(24.9624 -0.000217733 0)
(24.9667 -0.000316524 0)
(24.9726 -0.000435117 0)
(24.9803 -0.000578611 0)
(24.9902 -0.000749474 0)
(25.0024 -0.000953847 0)
(25.0172 -0.00119629 0)
(25.035 -0.00148322 0)
(25.0562 -0.00181935 0)
(25.0811 -0.00221672 0)
(25.1104 -0.00267786 0)
(25.1441 -0.00322487 0)
(25.1834 -0.00385868 0)
(25.2283 -0.00460603 0)
(25.2802 -0.00548263 0)
(25.3293 -0.00634307 0)
(25.3718 -0.00710897 0)
(25.4166 -0.00791917 0)
(25.4641 -0.00881986 0)
(25.5142 -0.00980659 0)
(25.5671 -0.0108735 0)
(25.6226 -0.0120507 0)
(25.6812 -0.0133173 0)
(25.7421 -0.0147441 0)
(25.8067 -0.0162437 0)
(25.8733 -0.0180211 0)
(25.9447 -0.0197881 0)
(26.0168 -0.0220911 0)
(26.0965 -0.0241332 0)
(26.1737 -0.0273252 0)
(26.2646 -0.0295785 0)
(26.3456 -0.0344014 0)
(26.4541 -0.0367002 0)
(26.5349 -0.0445694 0)
(26.6738 -0.047156 0)
(26.7457 -0.059792 0)
(26.9435 -0.0680021 0)
(26.9847 -0.0851031 0)
(27.3118 -0.128107 0)
(27.2496 -0.18305 0)
(29.2868 0.0177446 0)
(28.9317 0.0170371 0)
(28.8529 0.00838997 0)
(28.6306 0.00747127 0)
(28.3162 0.00651546 0)
(28.0204 0.00531492 0)
(27.7666 0.00436894 0)
(27.5494 0.00366187 0)
(27.3657 0.00309584 0)
(27.211 0.00264438 0)
(27.0801 0.00228488 0)
(26.9688 0.00199291 0)
(26.8737 0.00175229 0)
(26.792 0.00155159 0)
(26.7215 0.00138297 0)
(26.6604 0.00123936 0)
(26.6072 0.001117 0)
(26.5605 0.00101125 0)
(26.5197 0.000918539 0)
(26.4837 0.000838546 0)
(26.4519 0.000768095 0)
(26.4237 0.000706388 0)
(26.3985 0.000652114 0)
(26.3761 0.00060361 0)
(26.356 0.000560346 0)
(26.338 0.000522082 0)
(26.3218 0.000487729 0)
(26.3071 0.000456657 0)
(26.2939 0.000428776 0)
(26.2819 0.000403328 0)
(26.271 0.000380446 0)
(26.261 0.000359337 0)
(26.252 0.000339921 0)
(26.2437 0.000321327 0)
(26.2362 0.000303879 0)
(26.2293 0.000286578 0)
(26.2231 0.000269658 0)
(26.2174 0.000251854 0)
(26.2123 0.000233235 0)
(26.2078 0.000212358 0)
(26.2039 0.00018883 0)
(26.2005 0.000161388 0)
(26.1978 0.000128478 0)
(26.1958 8.90223e-05 0)
(26.1946 4.11299e-05 0)
(26.1941 -1.72943e-05 0)
(26.1947 -8.84672e-05 0)
(26.1964 -0.000176135 0)
(26.1993 -0.000282862 0)
(26.2037 -0.000412289 0)
(26.2097 -0.000567696 0)
(26.2175 -0.000755628 0)
(26.2275 -0.000979403 0)
(26.2399 -0.00124692 0)
(26.255 -0.001564 0)
(26.2731 -0.00193935 0)
(26.2948 -0.00237887 0)
(26.3201 -0.00289841 0)
(26.3499 -0.00350118 0)
(26.3843 -0.00421558 0)
(26.4244 -0.00504289 0)
(26.47 -0.006018 0)
(26.5229 -0.00715962 0)
(26.5729 -0.00827881 0)
(26.6161 -0.0092769 0)
(26.6617 -0.0103313 0)
(26.7099 -0.0114996 0)
(26.7608 -0.0127796 0)
(26.8145 -0.0141614 0)
(26.8708 -0.0156856 0)
(26.9301 -0.0173214 0)
(26.9918 -0.0191636 0)
(27.0571 -0.0210966 0)
(27.1244 -0.0233813 0)
(27.1963 -0.0256547 0)
(27.2691 -0.0285979 0)
(27.349 -0.0312237 0)
(27.427 -0.0352668 0)
(27.5176 -0.0381785 0)
(27.5995 -0.0442158 0)
(27.7065 -0.0472356 0)
(27.7887 -0.0569598 0)
(27.9242 -0.0603537 0)
(27.9983 -0.076119 0)
(28.1884 -0.0851008 0)
(28.2339 -0.108807 0)
(28.5373 -0.150587 0)
(28.4922 -0.213685 0)
(29.8443 0.0138339 0)
(29.7399 0.0174415 0)
(29.8023 0.00873087 0)
(29.6895 0.00838077 0)
(29.4476 0.0076835 0)
(29.1949 0.00644656 0)
(28.9659 0.00539733 0)
(28.7627 0.00458299 0)
(28.5865 0.00391052 0)
(28.4355 0.00336271 0)
(28.3062 0.00292026 0)
(28.1951 0.00255712 0)
(28.0994 0.0022554 0)
(28.0167 0.00200212 0)
(27.945 0.00178826 0)
(27.8826 0.00160539 0)
(27.828 0.00144902 0)
(27.7801 0.0013135 0)
(27.738 0.0011945 0)
(27.7008 0.00109153 0)
(27.6679 0.0010007 0)
(27.6387 0.000921033 0)
(27.6126 0.000850806 0)
(27.5893 0.000788042 0)
(27.5684 0.000731966 0)
(27.5496 0.000682305 0)
(27.5327 0.000637709 0)
(27.5174 0.000597334 0)
(27.5035 0.000561077 0)
(27.4909 0.000527972 0)
(27.4795 0.000498149 0)
(27.4691 0.000470648 0)
(27.4596 0.000445332 0)
(27.4509 0.00042112 0)
(27.443 0.000398356 0)
(27.4358 0.000375836 0)
(27.4293 0.000353774 0)
(27.4233 0.000330624 0)
(27.418 0.000306386 0)
(27.4132 0.000279286 0)
(27.409 0.000248744 0)
(27.4054 0.000213147 0)
(27.4026 0.000170539 0)
(27.4004 0.00011946 0)
(27.399 5.75026e-05 0)
(27.3984 -1.80427e-05 0)
(27.3989 -0.000110196 0)
(27.4005 -0.000223437 0)
(27.4033 -0.000361142 0)
(27.4076 -0.000528258 0)
(27.4136 -0.000729016 0)
(27.4215 -0.000971691 0)
(27.4316 -0.00126067 0)
(27.444 -0.00160594 0)
(27.4593 -0.00201477 0)
(27.4775 -0.00249888 0)
(27.4994 -0.00306547 0)
(27.525 -0.00373512 0)
(27.5551 -0.00451186 0)
(27.5899 -0.00543154 0)
(27.6304 -0.006496 0)
(27.6765 -0.00774997 0)
(27.7298 -0.00921593 0)
(27.7803 -0.0106509 0)
(27.8238 -0.011932 0)
(27.8698 -0.013285 0)
(27.9184 -0.014779 0)
(27.9697 -0.0164147 0)
(28.0237 -0.0181788 0)
(28.0803 -0.0201226 0)
(28.1399 -0.0222059 0)
(28.2019 -0.0245479 0)
(28.2673 -0.0270049 0)
(28.3348 -0.0298956 0)
(28.4066 -0.0327821 0)
(28.4796 -0.0364816 0)
(28.5591 -0.0398214 0)
(28.6372 -0.04485 0)
(28.7268 -0.0485869 0)
(28.8089 -0.0559879 0)
(28.9137 -0.0599601 0)
(28.9968 -0.0716909 0)
(29.1275 -0.0762548 0)
(29.2041 -0.0952317 0)
(29.3836 -0.105649 0)
(29.4355 -0.135491 0)
(29.7115 -0.177191 0)
(29.6802 -0.246417 0)
(30.3808 0.00800133 0)
(30.4947 0.0170999 0)
(30.6816 0.00857297 0)
(30.6753 0.0090272 0)
(30.5123 0.00878091 0)
(30.3114 0.00761371 0)
(30.1152 0.00651599 0)
(29.9323 0.00562122 0)
(29.7685 0.00485149 0)
(29.6249 0.00420701 0)
(29.4998 0.00367684 0)
(29.3909 0.00323573 0)
(29.2963 0.00286531 0)
(29.2138 0.00255177 0)
(29.1418 0.00228527 0)
(29.0787 0.00205623 0)
(29.0234 0.00185947 0)
(28.9747 0.00168831 0)
(28.9317 0.00153768 0)
(28.8936 0.00140687 0)
(28.8598 0.00129126 0)
(28.8297 0.00118966 0)
(28.8028 0.00109987 0)
(28.7787 0.00101958 0)
(28.757 0.000947714 0)
(28.7376 0.000883966 0)
(28.72 0.000826689 0)
(28.7041 0.000774773 0)
(28.6897 0.000728109 0)
(28.6766 0.00068548 0)
(28.6647 0.000646996 0)
(28.6538 0.000611514 0)
(28.6439 0.000578823 0)
(28.6349 0.000547599 0)
(28.6266 0.000518184 0)
(28.619 0.000489151 0)
(28.6122 0.000460668 0)
(28.6059 0.000430862 0)
(28.6003 0.000399633 0)
(28.5953 0.000364818 0)
(28.5909 0.000325598 0)
(28.5871 0.000279922 0)
(28.584 0.000225373 0)
(28.5816 0.000160003 0)
(28.5801 8.07717e-05 0)
(28.5794 -1.57578e-05 0)
(28.5797 -0.000133638 0)
(28.5811 -0.00027822 0)
(28.5839 -0.000453869 0)
(28.5881 -0.000667031 0)