/*--------------------------------*- C++ -*----------------------------------*\
| =========                 |                                                 |
| \\      /  F ield         | OpenFOAM: The Open Source CFD Toolbox           |
|  \\    /   O peration     | Version:  2306                                  |
|   \\  /    A nd           | Website:  www.openfoam.com                      |
|    \\/     M anipulation  |                                                 |
\*---------------------------------------------------------------------------*/
FoamFile
{
    version     2.0;
    format      ascii;
    arch        "LSB;label=32;scalar=64";
    class       volVectorField;
    location    "1600";
    object      wallShearStress;
}
// * * * * * * * * * * * * * * * * * * * * * * * * * * * * * * * * * * * * * //

dimensions      [0 2 -2 0 0 0 0];

internalField   uniform (0 0 0);

boundaryField
{
    inlet
    {
        type            calculated;
        value           uniform (0 0 0);
    }
    outlet
    {
        type            calculated;
        value           uniform (0 0 0);
    }
    lowerWallStartup
    {
        type            symmetryPlane;
    }
    upperWallStartup
    {
        type            symmetryPlane;
    }
    upperWall
    {
        type            calculated;
        value           nonuniform List<vector> 
218
(
(-10.871 0.00766965 0)
(-7.44586 0.000898024 0)
(-6.74682 0.000228277 0)
(-6.365 0.000133201 0)
(-6.11504 8.96358e-05 0)
(-5.94457 6.40245e-05 0)
(-5.82206 4.84593e-05 0)
(-5.72917 3.83305e-05 0)
(-5.6568 3.11363e-05 0)
(-5.59922 2.58405e-05 0)
(-5.55252 2.1837e-05 0)
(-5.51407 1.87164e-05 0)
(-5.48203 1.62234e-05 0)
(-5.45508 1.42017e-05 0)
(-5.4322 1.2526e-05 0)
(-5.41268 1.11365e-05 0)
(-5.39583 9.95829e-06 0)
(-5.38131 8.94747e-06 0)
(-5.36865 8.08946e-06 0)
(-5.35761 7.33307e-06 0)
(-5.34793 6.69333e-06 0)
(-5.33939 6.12525e-06 0)
(-5.33185 5.62519e-06 0)
(-5.32515 5.18936e-06 0)
(-5.31919 4.80236e-06 0)
(-5.31386 4.45711e-06 0)
(-5.30908 4.15069e-06 0)
(-5.30479 3.87656e-06 0)
(-5.30092 3.63407e-06 0)
(-5.29742 3.41478e-06 0)
(-5.29424 3.21774e-06 0)
(-5.29135 3.04191e-06 0)
(-5.28872 2.8842e-06 0)
(-5.2863 2.74782e-06 0)
(-5.28408 2.62661e-06 0)
(-5.28203 2.52507e-06 0)
(-5.28012 2.44211e-06 0)
(-5.27834 2.37887e-06 0)
(-5.27665 2.34093e-06 0)
(-5.27504 2.32779e-06 0)
(-5.27349 2.35199e-06 0)
(-5.27195 2.41263e-06 0)
(-5.27043 2.52066e-06 0)
(-5.26886 2.69871e-06 0)
(-5.26723 2.92953e-06 0)
(-5.2655 3.25382e-06 0)
(-5.26362 3.69992e-06 0)
(-5.26153 4.23556e-06 0)
(-5.25922 4.94286e-06 0)
(-5.25657 5.90015e-06 0)
(-5.25351 6.93594e-06 0)
(-5.25008 8.15676e-06 0)
(-5.24614 9.6134e-06 0)
(-5.24169 1.1365e-05 0)
(-5.23657 1.34052e-05 0)
(-5.2308 1.57412e-05 0)
(-5.22424 1.84456e-05 0)
(-5.21687 2.14722e-05 0)
(-5.20859 2.48438e-05 0)
(-5.19942 2.86093e-05 0)
(-5.1892 3.26932e-05 0)
(-5.17808 3.71818e-05 0)
(-5.16578 4.20981e-05 0)
(-5.15473 4.62576e-05 0)
(-5.14562 4.93471e-05 0)
(-5.13643 5.2803e-05 0)
(-5.12708 5.62747e-05 0)
(-5.11762 5.96223e-05 0)
(-5.10811 6.29629e-05 0)
(-5.09857 6.61919e-05 0)
(-5.08906 6.94028e-05 0)
(-5.07958 7.24555e-05 0)
(-5.0702 7.55062e-05 0)
(-5.06089 7.83402e-05 0)
(-5.05175 8.12046e-05 0)
(-5.04272 8.37994e-05 0)
(-5.0339 8.64785e-05 0)
(-5.02523 8.88267e-05 0)
(-5.01676 9.1285e-05 0)
(-5.00856 9.33779e-05 0)
(-5.00043 9.57128e-05 0)
(-4.99283 9.7439e-05 0)
(-4.98489 9.98582e-05 0)
(-4.97821 0.000100847 0)
(-4.97003 0.000103705 0)
(-4.96497 0.000105095 0)
(-4.95535 0.000108961 0)
(-4.95334 0.000154767 0)
(-4.9444 0.000215619 -1.24233e-20)
(-4.93716 0.000228793 0)
(-4.93135 0.000234738 1.23116e-20)
(-4.92511 0.00023669 -1.22559e-20)
(-4.91877 0.000236543 0)
(-4.91241 0.000236094 -1.214e-20)
(-4.90597 0.000236639 0)
(-4.89949 0.000236442 0)
(-4.89291 0.000236929 0)
(-4.88631 0.000236732 0)
(-4.87959 0.000237086 1.18278e-20)
(-4.87287 0.000237483 0)
(-4.86599 0.000237126 -1.1694e-20)
(-4.85915 0.000237596 0)
(-4.85216 0.000236993 -1.15551e-20)
(-4.8452 0.000237428 1.14838e-20)
(-4.8381 0.000236941 0)
(-4.83103 0.000237139 1.13374e-20)
(-4.82383 0.000237112 0)
(-4.81663 0.000236296 -1.11862e-20)
(-4.80936 0.000236634 0)
(-4.80207 0.000235877 0)
(-4.7947 0.000236151 0)
(-4.78731 0.000235296 0)
(-4.77986 0.000235466 0)
(-4.77239 0.000234415 0)
(-4.76488 0.000234381 0)
(-4.75734 0.00023393 1.05346e-20)
(-4.74976 0.000232855 -1.04482e-20)
(-4.74217 0.000232846 1.03607e-20)
(-4.73454 0.000231763 -1.02723e-20)
(-4.72689 0.000231686 0)
(-4.71921 0.000230301 -1.00924e-20)
(-4.71153 0.00023011 0)
(-4.70383 0.00022874 -9.90875e-21)
(-4.69612 0.000228347 0)
(-4.6884 0.000227366 0)
(-4.68069 0.000226033 -9.62661e-21)
(-4.67296 0.000225446 0)
(-4.66526 0.00022377 -9.4344e-21)
(-4.65756 0.000223121 0)
(-4.64988 0.000221486 -9.23916e-21)
(-4.6422 0.000220869 0)
(-4.63455 0.000219083 -9.04111e-21)
(-4.6269 0.000218299 0)
(-4.61929 0.000217013 0)
(-4.61169 0.000215152 -8.73938e-21)
(-4.60413 0.00021444 0)
(-4.59658 0.000212538 -8.53549e-21)
(-4.58909 0.0002118 0)
(-4.58161 0.000209577 -8.3297e-21)
(-4.57419 0.00020881 0)
(-4.56678 0.000206754 -8.12229e-21)
(-4.55944 0.000205643 0)
(-4.55212 0.000203996 0)
(-4.54489 0.000202028 -7.80865e-21)
(-4.53767 0.000200921 0)
(-4.53055 0.000198736 -7.59828e-21)
(-4.52343 0.000197419 0)
(-4.51645 0.000195373 -7.3872e-21)
(-4.50944 0.000194004 0)
(-4.5026 0.000192078 0)
(-4.49568 0.000190373 -7.06989e-21)
(-4.48902 0.000189483 -6.96399e-21)
(-4.48215 0.000186113 0)
(-4.47576 0.000186349 -6.75235e-21)
(-4.46887 0.00018232 0)
(-4.4628 0.000182647 -6.54102e-21)
(-4.45589 0.000179035 0)
(-4.45012 0.000178882 -6.33027e-21)
(-4.44323 0.000175741 0)
(-4.43774 0.000174916 -6.12033e-21)
(-4.43092 0.000172744 -6.01597e-21)
(-4.42565 0.000170676 0)
(-4.41896 0.000169359 -5.80766e-21)
(-4.41388 0.000166862 0)
(-4.40735 0.00016575 -5.60069e-21)
(-4.40245 0.000163121 0)
(-4.39611 0.000162094 0)
(-4.39136 0.000159921 -5.29302e-21)
(-4.38522 0.000158087 5.19162e-21)
(-4.38062 0.000156561 -5.09033e-21)
(-4.37466 0.000154638 4.98992e-21)
(-4.37022 0.000152881 0)
(-4.36448 0.000151178 0)
(-4.36018 0.000149407 0)
(-4.35465 0.000147333 4.593e-21)
(-4.35053 0.000145881 0)
(-4.34517 0.000144237 0)
(-4.34128 0.000142181 0)
(-4.336 0.000140744 0)
(-4.33245 0.000138916 0)
(-4.32713 0.000137254 0)
(-4.32411 0.000135781 0)
(-4.31841 0.000133983 -3.82973e-21)
(-4.31639 0.000133953 3.73588e-21)
(-4.30943 9.88728e-05 0)
(-4.30847 0.000100133 0)
(-4.30514 8.85976e-05 -9.20011e-22)
(-4.30114 8.07332e-05 7.81609e-22)
(-4.29692 7.98893e-05 1.3221e-21)
(-4.29214 7.99804e-05 1.11216e-21)
(-4.28678 7.9335e-05 1.85898e-21)
(-4.28085 7.86022e-05 1.54154e-21)
(-4.27432 7.83514e-05 1.26615e-21)
(-4.26722 7.79645e-05 0)
(-4.25956 7.74432e-05 1.6438e-21)
(-4.25144 7.81722e-05 0)
(-4.24294 7.83982e-05 -1.97287e-21)
(-4.23422 8.02458e-05 0)
(-4.22552 8.14368e-05 0)
(-4.21723 8.41733e-05 0)
(-4.20948 8.76018e-05 0)
(-4.20309 9.23639e-05 0)
(-4.19794 9.63694e-05 0)
(-4.19533 0.00010122 -1.63048e-21)
(-4.19486 0.00010451 0)
(-4.1973 0.000106303 5.79448e-21)
(-4.20329 0.000103568 -6.30412e-21)
(-4.21083 9.84426e-05 6.33932e-21)
(-4.22404 7.94403e-05 0)
(-4.23475 6.25236e-05 1.11904e-20)
(-4.25508 5.41082e-06 0)
(-4.2638 -1.31227e-05 0)
(-4.29349 -0.00018619 0)
(-4.29315 -0.000132157 0)
(-4.34261 -0.000743646 0)
(-4.3183 -0.000164088 0)
(-4.43682 -0.00336872 -3.71747e-20)
(-4.09726 -0.00155306 0)
)
;
    }
    lowerWall
    {
        type            calculated;
        value           nonuniform List<vector> 
266
(
(-10.9811 -0.00794031 0)
(-7.49343 -0.000952167 0)
(-6.77854 -0.000242313 0)
(-6.39175 -0.000141062 0)
(-6.13812 -9.51475e-05 0)
(-5.96496 -6.80704e-05 0)
(-5.84039 -5.15838e-05 0)
(-5.74586 -4.08465e-05 0)
(-5.67214 -3.32139e-05 0)
(-5.61343 -2.75903e-05 0)
(-5.56579 -2.33353e-05 0)
(-5.52652 -2.00166e-05 0)
(-5.49379 -1.73674e-05 0)
(-5.46621 -1.52116e-05 0)
(-5.44281 -1.34368e-05 0)
(-5.42276 -1.19481e-05 0)
(-5.40554 -1.07004e-05 0)
(-5.39057 -9.63119e-06 0)
(-5.3776 -8.70113e-06 0)
(-5.36623 -7.91141e-06 0)
(-5.35626 -7.21778e-06 0)
(-5.34746 -6.61585e-06 0)
(-5.33967 -6.09118e-06 0)
(-5.33274 -5.62116e-06 0)
(-5.32658 -5.20627e-06 0)
(-5.32105 -4.84175e-06 0)
(-5.3161 -4.51401e-06 0)
(-5.31164 -4.21932e-06 0)
(-5.30762 -3.95633e-06 0)
(-5.30397 -3.71654e-06 0)
(-5.30068 -3.50399e-06 0)
(-5.29767 -3.30681e-06 0)
(-5.29495 -3.12698e-06 0)
(-5.29245 -2.95425e-06 0)
(-5.29019 -2.79581e-06 0)
(-5.28812 -2.6374e-06 0)
(-5.28626 -2.48732e-06 0)
(-5.28454 -2.32807e-06 0)
(-5.28304 -2.16741e-06 0)
(-5.28166 -1.98558e-06 0)
(-5.2805 -1.7872e-06 0)
(-5.27947 -1.55612e-06 0)
(-5.27868 -1.28089e-06 0)
(-5.27805 -9.55947e-07 0)
(-5.27767 -5.64894e-07 0)
(-5.27752 -9.95996e-08 0)
(-5.27767 4.89901e-07 0)
(-5.27813 1.20947e-06 0)
(-5.27898 2.0653e-06 0)
(-5.28022 3.10415e-06 0)
(-5.28196 4.35252e-06 0)
(-5.28422 5.87354e-06 0)
(-5.28714 7.66872e-06 0)
(-5.29071 9.8322e-06 0)
(-5.29513 1.24084e-05 0)
(-5.3004 1.54429e-05 0)
(-5.30674 1.90158e-05 0)
(-5.31416 2.32248e-05 0)
(-5.32292 2.81418e-05 0)
(-5.33303 3.39679e-05 0)
(-5.34486 4.08055e-05 0)
(-5.35837 4.87863e-05 0)
(-5.37408 5.85008e-05 0)
(-5.38906 6.80541e-05 0)
(-5.40203 7.61273e-05 0)
(-5.41574 8.53812e-05 0)
(-5.43036 9.54265e-05 0)
(-5.44586 0.000106345 0)
(-5.46228 0.000118513 0)
(-5.47964 0.000131665 0)
(-5.49796 0.000146542 0)
(-5.51733 0.000162507 0)
(-5.53774 0.000180731 0)
(-5.55927 0.000200562 0)
(-5.58211 0.000223667 0)
(-5.606 0.000248339 0)
(-5.63185 0.000278728 0)
(-5.65827 0.000310385 0)
(-5.68837 0.000353085 0)
(-5.71721 0.000394748 0)
(-5.75444 0.000459566 0)
(-5.7842 0.000523287 0)
(-5.83655 0.000637119 0)
(-5.86258 0.000700791 0)
(-5.94348 0.00115863 0)
(-5.98142 0.000987637 0)
(-6.08426 0.00215837 0)
(-6.21236 0.0715435 0)
(7.36719 -10.832 0)
(-0.0685528 -0.00449392 0)
(-0.0309984 0.0014365 1.3251e-23)
(-0.00255069 0.00199312 -1.18433e-23)
(-0.00388426 0.00202277 -0)
(-0.00357767 0.00178977 0)
(-0.00413761 0.00164287 0)
(-0.00396055 0.00152817 0)
(-0.00376295 0.00144392 0)
(-0.00363177 0.0013923 -2.38017e-22)
(-0.00351957 0.00137348 2.76409e-22)
(-0.00337956 0.0013846 -6.66402e-22)
(-0.00319766 0.00142319 8.64855e-22)
(-0.00297748 0.00149046 -0)
(-0.00272384 0.00159271 3.32697e-21)
(-0.00243222 0.00174052 -4.9711e-21)
(-0.00207759 0.00194342 -0)
(-0.00159708 0.0021944 0)
(-0.00086553 0.00243648 -0)
(0.000340327 0.00250973 1.66564e-19)
(0.00241626 0.0020399 -3.2028e-19)
(0.00586695 -4.29493e-05 1.08787e-18)
(0.0101974 -0.0057517 -1.15505e-18)
(0.0124778 -0.0146838 0)
(0.0122281 -0.0231073 1.19537e-18)
(0.0112609 -0.0297184 -1.05405e-18)
(0.0104057 -0.0354149 0)
(0.00979176 -0.0398892 0)
(0.0096042 -0.0435017 0)
(0.00989769 -0.0465362 0)
(0.0106523 -0.0491786 0)
(0.0117975 -0.0515433 0)
(0.0132386 -0.0536817 -8.36294e-19)
(0.0148521 -0.0556213 -1.21301e-22)
(0.0165309 -0.0573723 8.0703e-19)
(0.0181295 -0.0589542 0)
(0.0193043 -0.0614274 0)
(0.0183747 -0.0726654 0)
(0.00844788 -0.111562 0)
(-0.0207799 -0.181904 0)
(-0.0644092 -0.242025 1.48738e-19)
(-0.120611 -0.304673 -1.226e-19)
(-0.180814 -0.350449 -0)
(-0.240342 -0.380508 0)
(-0.297443 -0.397777 0)
(-0.351457 -0.405622 -9.62381e-20)
(-0.387831 -0.407311 1.08415e-19)
(-0.407694 -0.477355 0)
(-0.275194 -0.549247 0)
(-0.571559 -0.0216691 -1.30506e-22)
(-0.00102887 0.00577065 0)
(-0.0238696 9.83866e-05 -3.6874e-22)
(-0.00873464 0.000210482 0)
(0.0335284 0.000337264 0)
(0.0996424 -0.00079738 0)
(0.122555 -0.000560619 0)
(0.175358 -0.000274465 0)
(0.235613 -0.000311964 -2.4961e-22)
(0.304555 -0.000351634 0)
(0.381939 -0.000391296 0)
(0.467783 -0.000430254 0)
(0.561611 -0.000467954 0)
(0.662972 -0.000504122 0)
(0.771221 -0.000538532 0)
(0.885669 -0.000570994 0)
(1.00552 -0.000601307 0)
(1.12991 -0.000629237 0)
(1.25791 -0.00065453 0)
(1.38851 -0.000676913 2.50133e-22)
(1.52064 -0.000696106 0)
(1.65318 -0.00071185 2.48485e-22)
(1.78499 -0.000723895 0)
(1.91488 -0.000732036 2.45547e-22)
(2.04167 -0.00073612 0)
(2.16416 -0.000736056 2.41062e-22)
(2.28121 -0.000731814 0)
(2.3917 -0.000723432 0)
(2.49456 -0.000711014 0)
(2.58881 -0.00069473 2.2676e-22)
(2.67353 -0.000674757 2.22022e-22)
(2.74791 -0.000651336 2.16823e-22)
(2.81122 -0.000624732 2.11178e-22)
(2.86284 -0.000595236 2.05104e-22)
(2.90225 -0.000563114 0)
(2.92906 -0.000528648 -0)
(2.94297 -0.000492038 1.84568e-22)
(2.94378 -0.000453646 1.77058e-22)
(2.93143 -0.000413571 1.69276e-22)
(2.90591 -0.000371979 1.61263e-22)
(2.86732 -0.00032899 1.53061e-22)
(2.81585 -0.000284545 1.44713e-22)
(2.75176 -0.000238337 0)
(2.67529 -0.000190471 1.27751e-22)
(2.58689 -0.000140626 1.19221e-22)
(2.48683 -8.81631e-05 1.10714e-22)
(2.37569 -3.31584e-05 1.0227e-22)
(2.25372 2.54719e-05 9.3924e-23)
(2.12178 8.71286e-05 8.57193e-23)
(1.97975 0.000154521 0)
(1.82924 0.000225255 6.98438e-23)
(1.66821 0.000306739 6.2202e-23)
(1.50132 0.000390509 5.48811e-23)
(1.31898 0.000505391 4.76949e-23)
(1.13541 0.00520028 4.10995e-23)
(1.1453 -0.000155007 5.8372e-23)
(0.746719 -0.0038714 -0)
(0.537981 0.00089781 2.25472e-23)
(0.335402 0.00160769 0)
(0.146768 0.000675898 0)
(-0.0965487 0.000530915 0)
(-0.302028 0.000975201 -2.77731e-24)
(-0.495273 0.000859273 -0)
(-0.681529 0.000756648 -0)
(-0.85822 0.000665215 0)
(-1.02713 0.000584121 -0)
(-1.18777 0.000513372 0)
(-1.34088 0.000451691 -0)
(-1.48657 0.000398577 2.26811e-23)
(-1.62528 0.000352893 0)
(-1.75725 0.000313859 0)
(-1.88282 0.000280561 -0)
(-2.00228 0.000252258 3.28877e-23)
(-2.11589 0.000228225 0)
(-2.22394 0.000207852 0)
(-2.32667 0.000190558 -0)
(-2.42435 0.000175876 0)
(-2.51719 0.000163316 -0)
(-2.60544 0.000152651 -0)
(-2.68928 0.000143374 4.43525e-23)
(-2.76899 0.000135617 0)
(-2.84464 0.000128468 -0)
(-2.91663 0.000122855 4.73047e-23)
(-2.98482 0.000116839 -0)
(-3.04989 0.000113203 4.87657e-23)
(-3.11122 0.000107161 0)
(-3.17019 0.000106137 0)
(-3.22506 9.80462e-05 -5.0301e-23)
(-3.27889 0.000101838 -0)
(-3.32735 8.77933e-05 5.09579e-23)
(-3.37747 0.000101215 0)
(-3.41852 7.57785e-05 -0)
(-3.46842 0.000101551 0)
(-3.4967 5.55054e-05 0)
(-3.55371 0.000119591 -0)
(-3.56672 3.50758e-05 5.13045e-23)
(-3.60384 0.000201102 0)
(-3.64574 9.39717e-05 -0)
(-3.66813 0.000151752 6.10006e-21)
(-3.70843 0.000120755 1.05497e-20)
(-3.74102 0.000126899 0)
(-3.78115 0.000121346 0)
(-3.82024 0.000121738 0)
(-3.86248 0.000121368 -0)
(-3.90485 0.000122676 0)
(-3.94809 0.000125355 -1.74086e-20)
(-3.9905 0.000129722 0)
(-4.03195 0.000136017 -2.51647e-20)
(-4.07064 0.000144349 2.12153e-20)
(-4.10697 0.000154405 0)
(-4.13817 0.000166187 0)
(-4.16665 0.00017854 0)
(-4.18739 0.000191363 4.00677e-20)
(-4.20704 0.000203054 -3.26638e-20)
(-4.21571 0.000213384 0)
(-4.22792 0.000221831 4.25094e-20)
(-4.22414 0.000227057 0)
(-4.23245 0.000233313 5.43331e-20)
(-4.21616 0.000233527 0)
(-4.22532 0.000245008 0)
(-4.19619 0.000240743 0)
(-4.20963 0.000271206 0)
(-4.1669 0.000256093 0)
(-4.18356 0.000325115 1.10332e-19)
(-4.12721 0.000275004 -5.86513e-20)
(-4.13498 0.000413667 0)
(-4.07699 0.000282375 2.05272e-20)
(-4.02641 0.000521258 0)
(-4.04677 0.000111146 0)
)
;
    }
    front
    {
        type            empty;
    }
    back
    {
        type            empty;
    }
}


// ************************************************************************* //
