/*--------------------------------*- C++ -*----------------------------------*\
| =========                 |                                                 |
| \\      /  F ield         | OpenFOAM: The Open Source CFD Toolbox           |
|  \\    /   O peration     | Version:  2306                                  |
|   \\  /    A nd           | Website:  www.openfoam.com                      |
|    \\/     M anipulation  |                                                 |
\*---------------------------------------------------------------------------*/
FoamFile
{
    version     2.0;
    format      ascii;
    arch        "LSB;label=32;scalar=64";
    class       volScalarField;
    location    "1700";
    object      cp;
}
// * * * * * * * * * * * * * * * * * * * * * * * * * * * * * * * * * * * * * //

dimensions      [0 0 0 0 0 0 0];

internalField   nonuniform List<scalar> 
20540
(
3.12314
3.12249
3.12314
3.12248
3.12314
3.12248
3.12314
3.12248
3.12314
3.12248
3.12314
3.12248
3.12314
3.12247
3.12314
3.12247
3.12313
3.12246
3.12313
3.12245
3.12313
3.12244
3.12313
3.12243
3.12313
3.12242
3.12313
3.12241
3.12312
3.12239
3.12312
3.12237
3.12312
3.12234
3.12311
3.12231
3.12311
3.12227
3.1231
3.12223
3.12309
3.12217
3.12309
3.12211
3.12308
3.12204
3.12307
3.12196
3.12305
3.12186
3.12304
3.12176
3.12302
3.12164
3.123
3.12152
3.12299
3.12139
3.12297
3.12127
3.12296
3.12119
3.12296
3.12114
3.12296
3.12114
3.12297
3.12118
3.12298
3.12126
3.123
3.12137
3.12302
3.12149
3.12304
3.12161
3.12306
3.12172
3.12307
3.12183
3.12309
3.12192
3.1231
3.122
3.12311
3.12207
3.12312
3.12214
3.12313
3.12219
3.12313
3.12224
3.12314
3.12227
3.12314
3.12231
3.12315
3.12233
3.12315
3.12236
3.12315
3.12238
3.12315
3.12239
3.12316
3.12241
3.12316
3.12242
3.12316
3.12243
3.12316
3.12243
3.12316
3.12244
3.12316
3.12245
3.12316
3.12245
3.12316
3.12246
3.12316
3.12246
3.12316
3.12246
3.12316
3.12246
3.12317
3.12246
3.12317
3.12247
3.11679
3.1051
3.10027
3.09891
3.0987
3.09837
3.09882
3.09948
3.10095
3.10245
3.10467
3.10695
3.1099
3.11293
3.11655
3.12028
3.12454
3.12893
3.1338
3.13881
3.14423
3.1498
3.15572
3.16179
3.16815
3.17465
3.18138
3.18823
3.19527
3.20241
3.20969
3.21706
3.22454
3.23211
3.23979
3.24755
3.25542
3.26339
3.27147
3.27965
3.28795
3.29639
3.30497
3.31374
3.32269
3.33186
3.3414
3.351
3.3612
3.37185
3.38172
3.39427
3.40565
3.41294
3.43223
3.44278
3.42411
3.4594
3.55164
3.54893
3.47884
3.50801
3.64488
3.76162
3.83033
3.82438
3.70277
3.57605
3.57964
3.65643
3.75183
3.84083
3.91742
3.96522
3.97574
3.96816
3.94528
3.88712
3.80679
3.75027
3.72822
3.732
3.77526
3.87915
3.90803
3.92747
3.90253
4.18561
3.11678
3.1051
3.10027
3.09891
3.0987
3.09837
3.09882
3.09948
3.10095
3.10245
3.10467
3.10695
3.1099
3.11293
3.11655
3.12028
3.12454
3.12893
3.1338
3.13881
3.14423
3.1498
3.15572
3.16179
3.16815
3.17465
3.18138
3.18823
3.19527
3.20241
3.20969
3.21706
3.22454
3.23211
3.23979
3.24755
3.25542
3.26339
3.27147
3.27965
3.28795
3.29639
3.30497
3.31374
3.32269
3.33186
3.3414
3.351
3.3612
3.37185
3.38172
3.39427
3.40565
3.41294
3.43223
3.44278
3.42411
3.4594
3.55164
3.54893
3.47885
3.50802
3.64487
3.76161
3.83031
3.82436
3.70278
3.57606
3.57964
3.65642
3.75182
3.84082
3.91741
3.96521
3.97573
3.96815
3.94527
3.88712
3.80682
3.75028
3.72821
3.73201
3.77526
3.87915
3.90804
3.92751
3.90271
4.17842
3.11678
3.1051
3.10027
3.09891
3.0987
3.09837
3.09882
3.09948
3.10095
3.10245
3.10467
3.10695
3.1099
3.11293
3.11655
3.12028
3.12454
3.12893
3.1338
3.13881
3.14423
3.1498
3.15572
3.16179
3.16815
3.17465
3.18138
3.18823
3.19527
3.20241
3.20969
3.21706
3.22454
3.23211
3.23979
3.24755
3.25542
3.26339
3.27147
3.27965
3.28795
3.29639
3.30497
3.31374
3.32269
3.33186
3.3414
3.351
3.3612
3.37185
3.38172
3.39427
3.40565
3.41294
3.43223
3.44279
3.42411
3.4594
3.55164
3.54894
3.47885
3.50802
3.64487
3.7616
3.83029
3.82435
3.70277
3.57604
3.57962
3.6564
3.75181
3.8408
3.91738
3.96519
3.97572
3.96814
3.94526
3.88713
3.80681
3.75025
3.72818
3.732
3.77525
3.87915
3.90799
3.92743
3.90285
4.16686
3.11678
3.1051
3.10027
3.09891
3.0987
3.09837
3.09882
3.09948
3.10095
3.10245
3.10467
3.10695
3.1099
3.11293
3.11655
3.12028
3.12454
3.12893
3.1338
3.13881
3.14423
3.1498
3.15572
3.16179
3.16815
3.17465
3.18138
3.18823
3.19527
3.20241
3.20969
3.21706
3.22454
3.23211
3.23979
3.24755
3.25542
3.26339
3.27147
3.27965
3.28795
3.29639
3.30497
3.31374
3.32269
3.33186
3.3414
3.351
3.3612
3.37185
3.38172
3.39427
3.40565
3.41294
3.43223
3.44279
3.42411
3.4594
3.55164
3.54894
3.47885
3.50802
3.64486
3.76158
3.83025
3.82431
3.70273
3.57596
3.57955
3.65636
3.7518
3.84077
3.91734
3.96515
3.9757
3.96812
3.94523
3.88707
3.80668
3.75011
3.72809
3.73197
3.77522
3.87909
3.90782
3.92708
3.90262
4.15415
3.11678
3.1051
3.10027
3.09891
3.0987
3.09837
3.09882
3.09948
3.10095
3.10245
3.10467
3.10695
3.1099
3.11293
3.11655
3.12028
3.12454
3.12893
3.1338
3.13881
3.14423
3.1498
3.15572
3.16179
3.16815
3.17465
3.18138
3.18823
3.19527
3.20241
3.20969
3.21706
3.22454
3.23211
3.23979
3.24755
3.25542
3.26339
3.27147
3.27965
3.28795
3.29639
3.30497
3.31374
3.32269
3.33186
3.3414
3.351
3.3612
3.37185
3.38172
3.39427
3.40565
3.41294
3.43223
3.44279
3.42411
3.45939
3.55164
3.54894
3.47884
3.50801
3.64484
3.76154
3.83018
3.82423
3.70259
3.57575
3.57937
3.65629
3.75177
3.84072
3.91726
3.96508
3.97567
3.96808
3.94513
3.88683
3.80632
3.74974
3.72786
3.73187
3.77513
3.87886
3.90727
3.9263
3.90205
4.14084
3.11678
3.1051
3.10027
3.09891
3.0987
3.09837
3.09882
3.09948
3.10095
3.10245
3.10467
3.10695
3.1099
3.11293
3.11655
3.12028
3.12454
3.12893
3.1338
3.13881
3.14423
3.1498
3.15572
3.16179
3.16815
3.17465
3.18138
3.18823
3.19527
3.20241
3.20969
3.21706
3.22454
3.23211
3.23979
3.24755
3.25542
3.26339
3.27147
3.27965
3.28795
3.29639
3.30497
3.31374
3.32269
3.33186
3.3414
3.351
3.3612
3.37185
3.38172
3.39427
3.40565
3.41294
3.43223
3.44279
3.42411
3.45938
3.55163
3.54894
3.47882
3.50801
3.64481
3.76146
3.83005
3.82404
3.70223
3.57519
3.57907
3.65618
3.7517
3.84061
3.91712
3.96494
3.9756
3.96797
3.94484
3.88618
3.80553
3.74902
3.72747
3.73165
3.77489
3.87824
3.90595
3.92504
3.90167
4.12703
3.11677
3.1051
3.10027
3.09891
3.0987
3.09837
3.09882
3.09948
3.10095
3.10245
3.10467
3.10695
3.1099
3.11293
3.11655
3.12028
3.12454
3.12893
3.1338
3.13881
3.14423
3.1498
3.15572
3.16179
3.16815
3.17465
3.18138
3.18823
3.19527
3.20241
3.20969
3.21706
3.22454
3.23211
3.23979
3.24755
3.25542
3.26339
3.27147
3.27965
3.28795
3.29639
3.30497
3.31374
3.32269
3.33186
3.3414
3.351
3.3612
3.37185
3.38172
3.39427
3.40565
3.41294
3.43223
3.44279
3.4241
3.45935
3.55162
3.54893
3.47879
3.50799
3.64477
3.76132
3.82982
3.82368
3.70154
3.57399
3.57866
3.65603
3.75156
3.84043
3.91688
3.96469
3.97548
3.9677
3.94423
3.88515
3.80396
3.7478
3.72691
3.73125
3.77443
3.8769
3.90318
3.92282
3.90119
4.11319
3.11677
3.10511
3.10027
3.09891
3.0987
3.09837
3.09883
3.09948
3.10095
3.10245
3.10467
3.10695
3.1099
3.11293
3.11655
3.12028
3.12454
3.12893
3.1338
3.13881
3.14423
3.1498
3.15572
3.16179
3.16815
3.17465
3.18138
3.18823
3.19527
3.20241
3.20969
3.21706
3.22454
3.23211
3.23979
3.24755
3.25542
3.26339
3.27147
3.27965
3.28795
3.29639
3.30497
3.31374
3.32269
3.33186
3.3414
3.351
3.3612
3.37185
3.38172
3.39427
3.40565
3.41294
3.43223
3.44279
3.4241
3.4593
3.5516
3.5489
3.47873
3.50793
3.64472
3.76108
3.82949
3.82309
3.70037
3.57215
3.5782
3.65583
3.75135
3.84013
3.91649
3.96429
3.97525
3.96723
3.94333
3.88348
3.80132
3.74611
3.72613
3.73066
3.77376
3.87457
3.89838
3.91916
3.89833
4.09833
3.11676
3.10511
3.10027
3.09891
3.0987
3.09837
3.09883
3.09948
3.10095
3.10245
3.10467
3.10695
3.1099
3.11293
3.11655
3.12028
3.12454
3.12893
3.1338
3.13881
3.14423
3.1498
3.15572
3.16179
3.16815
3.17465
3.18138
3.18823
3.19527
3.20241
3.20969
3.21706
3.22454
3.23211
3.23979
3.24755
3.25542
3.26339
3.27147
3.27965
3.28795
3.29639
3.30497
3.31374
3.32269
3.33186
3.3414
3.351
3.3612
3.37185
3.38172
3.39427
3.40565
3.41294
3.43222
3.44278
3.42409
3.45921
3.55153
3.54883
3.47861
3.50781
3.64472
3.76068
3.82907
3.82228
3.69852
3.56972
3.57774
3.65558
3.75107
3.8397
3.9159
3.96368
3.97489
3.96659
3.94221
3.88073
3.79751
3.744
3.725
3.72989
3.77273
3.87111
3.89115
3.9139
3.89151
4.07956
3.11676
3.10512
3.10027
3.09891
3.0987
3.09837
3.09883
3.09948
3.10095
3.10245
3.10467
3.10695
3.1099
3.11293
3.11655
3.12028
3.12454
3.12893
3.1338
3.13881
3.14423
3.1498
3.15572
3.16179
3.16815
3.17465
3.18138
3.18823
3.19527
3.20241
3.20969
3.21706
3.22454
3.23211
3.23979
3.24755
3.25542
3.26339
3.27147
3.27965
3.28795
3.29639
3.30497
3.31374
3.32269
3.33186
3.34139
3.351
3.3612
3.37185
3.38172
3.39427
3.40565
3.41294
3.43222
3.44277
3.42411
3.45904
3.55141
3.5487
3.47841
3.50751
3.64472
3.76009
3.82853
3.82127
3.69563
3.5669
3.57723
3.65532
3.75073
3.83909
3.91508
3.96283
3.97438
3.96574
3.94079
3.87634
3.79261
3.74151
3.72344
3.72875
3.77105
3.86624
3.88177
3.90758
3.87945
4.04972
3.11676
3.10513
3.10027
3.09891
3.0987
3.09837
3.09883
3.09948
3.10095
3.10245
3.10467
3.10695
3.1099
3.11293
3.11655
3.12028
3.12454
3.12893
3.1338
3.13881
3.14423
3.1498
3.15572
3.16179
3.16815
3.17465
3.18138
3.18823
3.19527
3.20241
3.20969
3.21706
3.22454
3.23211
3.23979
3.24755
3.25542
3.26339
3.27147
3.27965
3.28795
3.29639
3.30497
3.31374
3.32269
3.33186
3.34139
3.351
3.3612
3.37185
3.38171
3.39427
3.40564
3.41294
3.4322
3.44274
3.42417
3.4588
3.55121
3.54852
3.47816
3.50692
3.64461
3.75933
3.82771
3.81997
3.69158
3.56395
3.57657
3.65514
3.75032
3.83829
3.91397
3.96176
3.97374
3.96481
3.93881
3.87002
3.78686
3.73851
3.72144
3.72717
3.76843
3.85959
3.87157
3.90131
3.86198
3.9969
3.11675
3.10513
3.10028
3.09891
3.09871
3.09837
3.09883
3.09948
3.10095
3.10245
3.10467
3.10696
3.1099
3.11293
3.11655
3.12028
3.12454
3.12893
3.1338
3.13881
3.14423
3.1498
3.15572
3.16179
3.16815
3.17465
3.18138
3.18824
3.19527
3.20241
3.20969
3.21706
3.22454
3.23211
3.23979
3.24755
3.25542
3.26339
3.27147
3.27965
3.28795
3.29639
3.30497
3.31374
3.32269
3.33186
3.34139
3.351
3.36119
3.37184
3.38171
3.39426
3.40563
3.41295
3.43218
3.44266
3.42433
3.45858
3.55085
3.5482
3.47796
3.50606
3.6443
3.75851
3.82648
3.81822
3.68639
3.56099
3.57562
3.65499
3.74985
3.83731
3.91259
3.96053
3.97311
3.96424
3.936
3.86177
3.78054
3.73492
3.719
3.72513
3.76485
3.85074
3.86252
3.89653
3.84094
3.90922
3.11675
3.10515
3.10028
3.09892
3.09871
3.09837
3.09883
3.09948
3.10095
3.10245
3.10467
3.10696
3.1099
3.11293
3.11655
3.12028
3.12454
3.12893
3.1338
3.13881
3.14423
3.1498
3.15572
3.16179
3.16815
3.17465
3.18138
3.18824
3.19527
3.20241
3.20969
3.21706
3.22454
3.23211
3.23979
3.24755
3.25542
3.26339
3.27147
3.27965
3.28795
3.29639
3.30497
3.31374
3.32269
3.33186
3.34139
3.35099
3.36118
3.37183
3.38171
3.39424
3.4056
3.41297
3.43214
3.44251
3.42467
3.45855
3.55024
3.54759
3.47797
3.50528
3.6438
3.75776
3.82465
3.81563
3.67983
3.55833
3.5743
3.65481
3.74934
3.83618
3.91107
3.95924
3.97259
3.96426
3.93196
3.85193
3.77402
3.73073
3.71604
3.72242
3.76034
3.83987
3.85573
3.89491
3.82331
3.79339
3.11674
3.10516
3.10028
3.09892
3.09871
3.09838
3.09883
3.09948
3.10095
3.10245
3.10467
3.10696
3.1099
3.11293
3.11655
3.12028
3.12454
3.12893
3.1338
3.13881
3.14423
3.1498
3.15572
3.16179
3.16815
3.17465
3.18138
3.18824
3.19527
3.20241
3.20969
3.21706
3.22454
3.23211
3.23979
3.24755
3.25542
3.26339
3.27147
3.27965
3.28795
3.29639
3.30497
3.31373
3.32268
3.33185
3.34138
3.35099
3.36117
3.37181
3.3817
3.39421
3.40555
3.413
3.43208
3.44225
3.4253
3.45891
3.54923
3.54654
3.47848
3.50508
3.64321
3.75709
3.82214
3.81156
3.672
3.55656
3.57309
3.65482
3.74894
3.83501
3.90948
3.95828
3.97201
3.96458
3.92611
3.84155
3.76777
3.72605
3.71261
3.71902
3.75516
3.82883
3.84997
3.89855
3.8215
3.69749
3.11673
3.10518
3.10029
3.09892
3.09871
3.09838
3.09883
3.09948
3.10095
3.10245
3.10468
3.10696
3.1099
3.11293
3.11655
3.12028
3.12454
3.12893
3.1338
3.13881
3.14423
3.1498
3.15572
3.16179
3.16815
3.17465
3.18138
3.18824
3.19527
3.20241
3.20969
3.21706
3.22454
3.23211
3.23979
3.24755
3.25542
3.26339
3.27147
3.27965
3.28795
3.29639
3.30496
3.31373
3.32267
3.33184
3.34136
3.35097
3.36115
3.37178
3.38168
3.39415
3.40549
3.41304
3.43195
3.4419
3.42631
3.45977
3.54766
3.54491
3.47969
3.50595
3.64266
3.75626
3.81898
3.80554
3.66341
3.55609
3.57277
3.6554
3.74887
3.83408
3.90815
3.95783
3.9716
3.96464
3.91833
3.83145
3.76217
3.72137
3.70924
3.71553
3.75031
3.81969
3.84593
3.90675
3.84525
3.69637
3.11672
3.1052
3.1003
3.09892
3.09871
3.09838
3.09883
3.09948
3.10095
3.10245
3.10468
3.10696
3.1099
3.11293
3.11655
3.12028
3.12455
3.12893
3.1338
3.13881
3.14423
3.1498
3.15572
3.16179
3.16815
3.17465
3.18138
3.18824
3.19527
3.20241
3.20969
3.21706
3.22454
3.23211
3.23979
3.24755
3.25542
3.26339
3.27146
3.27965
3.28795
3.29638
3.30496
3.31372
3.32266
3.33183
3.34134
3.35095
3.36111
3.37173
3.38166
3.39404
3.40539
3.4131
3.43169
3.44148
3.42782
3.46113
3.54538
3.54267
3.48192
3.50841
3.64228
3.7546
3.81477
3.79726
3.65485
3.55751
3.57448
3.65714
3.74951
3.83356
3.90765
3.9576
3.9717
3.96379
3.90882
3.82143
3.7571
3.71768
3.70693
3.71302
3.74745
3.81431
3.85721
3.90796
3.88569
3.80112
3.11671
3.10522
3.1003
3.09893
3.09872
3.09838
3.09883
3.09948
3.10095
3.10245
3.10468
3.10696
3.1099
3.11293
3.11655
3.12028
3.12455
3.12893
3.1338
3.13881
3.14423
3.1498
3.15573
3.16179
3.16815
3.17465
3.18138
3.18824
3.19527
3.20241
3.20969
3.21706
3.22454
3.23211
3.23979
3.24755
3.25542
3.26339
3.27146
3.27964
3.28794
3.29638
3.30495
3.31371
3.32265
3.3318
3.34131
3.35091
3.36105
3.37165
3.38162
3.39388
3.40527
3.41318
3.43126
3.44111
3.42995
3.46273
3.54218
3.54
3.48561
3.51291
3.64227
3.75114
3.80851
3.78641
3.64756
3.56185
3.57934
3.66068
3.75121
3.8338
3.90773
3.95726
3.97196
3.96102
3.89832
3.81161
3.75193
3.71556
3.70525
3.71232
3.7479
3.81333
3.87231
3.90539
3.93723
3.92859
3.11669
3.10525
3.10031
3.09893
3.09872
3.09838
3.09883
3.09948
3.10095
3.10246
3.10468
3.10696
3.10991
3.11293
3.11655
3.12028
3.12455
3.12894
3.1338
3.13881
3.14424
3.1498
3.15573
3.16179
3.16815
3.17465
3.18138
3.18824
3.19527
3.20241
3.20969
3.21706
3.22454
3.23211
3.23979
3.24755
3.25542
3.26339
3.27146
3.27964
3.28794
3.29637
3.30494
3.31369
3.32263
3.33177
3.34127
3.35087
3.36098
3.37156
3.38156
3.39366
3.40512
3.41328
3.43066
3.44084
3.43264
3.46428
3.53798
3.53736
3.49115
3.51959
3.64219
3.74511
3.79912
3.77303
3.64301
3.57003
3.58831
3.66673
3.7542
3.83488
3.9076
3.95578
3.97086
3.95511
3.88752
3.803
3.74649
3.71307
3.70494
3.71488
3.7518
3.81329
3.8741
3.91488
3.96824
3.97697
3.11667
3.10528
3.10032
3.09894
3.09872
3.09839
3.09883
3.09948
3.10095
3.10246
3.10468
3.10696
3.10991
3.11293
3.11655
3.12028
3.12455
3.12894
3.13381
3.13881
3.14424
3.14981
3.15573
3.16179
3.16815
3.17465
3.18138
3.18824
3.19527
3.20241
3.20969
3.21706
3.22454
3.23211
3.23979
3.24755
3.25542
3.26339
3.27146
3.27964
3.28793
3.29636
3.30492
3.31367
3.3226
3.33174
3.34121
3.35081
3.36088
3.37144
3.38148
3.39339
3.40493
3.41338
3.42994
3.4407
3.4357
3.46571
3.53308
3.53511
3.4984
3.52778
3.64155
3.73586
3.78573
3.75776
3.64248
3.5828
3.60201
3.67562
3.75847
3.836
3.90603
3.95177
3.96576
3.9447
3.87623
3.79645
3.74272
3.71203
3.70705
3.72083
3.75873
3.81618
3.87836
3.92234
3.96532
3.97178
3.11665
3.10532
3.10034
3.09895
3.09873
3.09839
3.09884
3.09949
3.10095
3.10246
3.10468
3.10696
3.10991
3.11293
3.11656
3.12028
3.12455
3.12894
3.13381
3.13881
3.14424
3.14981
3.15573
3.1618
3.16815
3.17465
3.18138
3.18824
3.19527
3.20241
3.20969
3.21706
3.22454
3.23211
3.23979
3.24755
3.25542
3.26338
3.27145
3.27963
3.28792
3.29634
3.3049
3.31364
3.32256
3.33169
3.34114
3.35074
3.36076
3.37128
3.38138
3.39309
3.40468
3.41347
3.42917
3.4406
3.43892
3.46706
3.52777
3.53313
3.5064
3.5364
3.63976
3.72355
3.76839
3.74181
3.64686
3.60089
3.62082
3.6874
3.76339
3.83589
3.90072
3.94319
3.95436
3.92908
3.86392
3.79157
3.74198
3.71491
3.71304
3.73019
3.768
3.82051
3.87704
3.91875
3.95371
3.96862
3.11663
3.10537
3.10035
3.09895
3.09873
3.09839
3.09884
3.09949
3.10096
3.10246
3.10468
3.10696
3.10991
3.11293
3.11656
3.12028
3.12455
3.12894
3.13381
3.13881
3.14424
3.14981
3.15573
3.1618
3.16816
3.17465
3.18138
3.18824
3.19527
3.20241
3.20969
3.21706
3.22454
3.23211
3.23979
3.24755
3.25542
3.26338
3.27145
3.27962
3.28791
3.29633
3.30488
3.31361
3.32252
3.33163
3.34105
3.35064
3.36062
3.3711
3.38123
3.39274
3.40437
3.41353
3.42837
3.44049
3.44212
3.46831
3.52215
3.53108
3.51415
3.54459
3.6364
3.7091
3.74828
3.72652
3.65575
3.62364
3.64361
3.70099
3.7676
3.83249
3.88958
3.92727
3.935
3.90824
3.8504
3.78806
3.74478
3.72294
3.72427
3.74377
3.78011
3.8266
3.87614
3.91567
3.94648
3.96566
3.1166
3.10543
3.10037
3.09896
3.09874
3.0984
3.09884
3.09949
3.10096
3.10246
3.10468
3.10696
3.10991
3.11293
3.11656
3.12028
3.12455
3.12894
3.13381
3.13882
3.14424
3.14981
3.15573
3.1618
3.16816
3.17466
3.18139
3.18824
3.19528
3.20242
3.20969
3.21706
3.22454
3.23211
3.23979
3.24755
3.25542
3.26338
3.27144
3.27961
3.28789
3.2963
3.30485
3.31356
3.32246
3.33155
3.34095
3.35051
3.36044
3.37086
3.38103
3.39233
3.40397
3.41351
3.42758
3.44032
3.44515
3.4694
3.51635
3.52882
3.52106
3.55165
3.63143
3.69366
3.72699
3.71229
3.66566
3.64656
3.66591
3.71322
3.76901
3.82383
3.87116
3.90231
3.90758
3.88348
3.83666
3.78698
3.75256
3.73736
3.74237
3.7633
3.79691
3.83742
3.87946
3.91464
3.94222
3.9602
3.11656
3.10549
3.10039
3.09897
3.09875
3.0984
3.09885
3.0995
3.10096
3.10247
3.10469
3.10697
3.10991
3.11293
3.11656
3.12028
3.12455
3.12894
3.13381
3.13882
3.14424
3.14981
3.15573
3.1618
3.16816
3.17466
3.18139
3.18824
3.19528
3.20242
3.20969
3.21706
3.22454
3.23211
3.23979
3.24755
3.25542
3.26337
3.27143
3.2796
3.28787
3.29628
3.30481
3.31351
3.32238
3.33145
3.34081
3.35035
3.36022
3.37056
3.38076
3.39186
3.40346
3.41339
3.42681
3.44005
3.44778
3.47022
3.51057
3.52622
3.52666
3.55698
3.62472
3.6775
3.70524
3.69824
3.67195
3.66399
3.68272
3.72089
3.76584
3.80964
3.84637
3.87022
3.87452
3.85724
3.825
3.79118
3.7686
3.76147
3.77027
3.79155
3.82153
3.85546
3.88977
3.91962
3.94449
3.96288
3.11652
3.10557
3.10042
3.09899
3.09876
3.09841
3.09885
3.0995
3.10097
3.10247
3.10469
3.10697
3.10992
3.11294
3.11656
3.12029
3.12456
3.12894
3.13381
3.13882
3.14425
3.14981
3.15574
3.1618
3.16816
3.17466
3.18139
3.18825
3.19528
3.20242
3.2097
3.21706
3.22455
3.23212
3.23979
3.24755
3.25541
3.26337
3.27142
3.27958
3.28785
3.29624
3.30476
3.31343
3.32229
3.33132
3.34063
3.35014
3.35994
3.37019
3.3804
3.39131
3.40283
3.41312
3.42603
3.43961
3.4498
3.47064
3.50499
3.52313
3.53046
3.56
3.61616
3.66033
3.6834
3.68365
3.67294
3.6737
3.69176
3.7224
3.75766
3.79153
3.81922
3.83715
3.84206
3.83376
3.81742
3.80101
3.79198
3.79337
3.80527
3.82536
3.85084
3.87849
3.90623
3.93157
3.95436
3.97345
3.11647
3.10566
3.10045
3.099
3.09877
3.09842
3.09886
3.0995
3.10097
3.10247
3.10469
3.10697
3.10992
3.11294
3.11657
3.12029
3.12456
3.12895
3.13382
3.13882
3.14425
3.14982
3.15574
3.16181
3.16817
3.17466
3.1814
3.18825
3.19529
3.20242
3.2097
3.21707
3.22455
3.23212
3.23979
3.24755
3.25541
3.26336
3.27141
3.27956
3.28782
3.29619
3.30469
3.31334
3.32216
3.33116
3.34041
3.34987
3.35958
3.36972
3.37991
3.39064
3.40202
3.41265
3.42518
3.43894
3.45102
3.47046
3.49965
3.51935
3.532
3.56015
3.60582
3.64234
3.66225
3.66846
3.66885
3.67577
3.69296
3.71764
3.74496
3.77087
3.79217
3.80683
3.81376
3.81369
3.81018
3.80762
3.8097
3.81794
3.83227
3.85128
3.87342
3.8968
3.9204
3.94292
3.96439
3.98413
3.11642
3.10575
3.10048
3.09902
3.09878
3.09843
3.09886
3.09951
3.10098
3.10248
3.1047
3.10697
3.10992
3.11294
3.11657
3.12029
3.12456
3.12895
3.13382
3.13883
3.14426
3.14982
3.15575
3.16181
3.16817
3.17467
3.1814
3.18825
3.19529
3.20243
3.20971
3.21707
3.22455
3.23212
3.23979
3.24755
3.2554
3.26335
3.27139
3.27953
3.28777
3.29612
3.3046
3.31321
3.32199
3.33094
3.34011
3.3495
3.35912
3.36912
3.37926
3.38981
3.40102
3.41188
3.42415
3.43789
3.45121
3.46944
3.4944
3.51463
3.53083
3.55699
3.59381
3.62392
3.64191
3.65234
3.65979
3.67049
3.68664
3.70678
3.72815
3.74834
3.76558
3.7789
3.78819
3.79431
3.79929
3.80537
3.81435
3.82691
3.84293
3.8616
3.88208
3.90339
3.92496
3.94618
3.96694
3.98703
3.11635
3.10586
3.10052
3.09903
3.0988
3.09844
3.09887
3.09951
3.10098
3.10248
3.1047
3.10698
3.10993
3.11295
3.11658
3.12029
3.12457
3.12895
3.13383
3.13883
3.14426
3.14982
3.15576
3.16182
3.16818
3.17467
3.18141
3.18826
3.1953
3.20243
3.20971
3.21707
3.22456
3.23212
3.23979
3.24754
3.2554
3.26333
3.27137
3.27949
3.28771
3.29604
3.30448
3.31305
3.32177
3.33065
3.33973
3.34902
3.35852
3.36836
3.37839
3.38876
3.39973
3.41071
3.42276
3.43627
3.45018
3.46728
3.48885
3.50863
3.52655
3.55026
3.57997
3.60494
3.62159
3.63438
3.64561
3.65816
3.67319
3.69006
3.70741
3.72398
3.73895
3.75197
3.76323
3.77337
3.78342
3.7944
3.80711
3.82182
3.83844
3.85658
3.8758
3.89559
3.91561
3.93557
3.95528
3.97465
3.11629
3.10597
3.10057
3.09905
3.09882
3.09845
3.09888
3.09952
3.10099
3.10248
3.10471
3.10698
3.10994
3.11295
3.11659
3.1203
3.12458
3.12895
3.13384
3.13883
3.14427
3.14983
3.15577
3.16182
3.16819
3.17468
3.18142
3.18826
3.19531
3.20244
3.20972
3.21708
3.22456
3.23212
3.23979
3.24754
3.25538
3.26331
3.27133
3.27943
3.28763
3.29592
3.30432
3.31283
3.32148
3.33027
3.33923
3.34839
3.35774
3.36737
3.37722
3.38737
3.39806
3.40898
3.42075
3.43382
3.44768
3.46358
3.48236
3.50088
3.51881
3.53976
3.56383
3.58467
3.6
3.61352
3.62613
3.63906
3.65291
3.66747
3.68218
3.6965
3.71013
3.72298
3.73526
3.74732
3.75962
3.77259
3.78653
3.80153
3.81752
3.83431
3.85167
3.86935
3.88716
3.90492
3.92248
3.93971
3.11622
3.10608
3.10062
3.09907
3.09883
3.09846
3.09889
3.09952
3.101
3.10249
3.10472
3.10698
3.10994
3.11295
3.11659
3.1203
3.12459
3.12896
3.13385
3.13884
3.14428
3.14983
3.15578
3.16182
3.1682
3.17468
3.18143
3.18827
3.19532
3.20244
3.20972
3.21708
3.22456
3.23212
3.23978
3.24752
3.25536
3.26327
3.27127
3.27935
3.28751
3.29576
3.3041
3.31253
3.32108
3.32976
3.33858
3.34756
3.35671
3.36608
3.37568
3.38554
3.39584
3.4065
3.41783
3.4302
3.44341
3.45793
3.47421
3.49078
3.50734
3.52528
3.5447
3.56199
3.57569
3.58861
3.60094
3.61316
3.6256
3.63824
3.65091
3.66343
3.67572
3.68778
3.69974
3.71176
3.72401
3.73664
3.74973
3.7633
3.77729
3.79159
3.8061
3.82067
3.8352
3.84957
3.86371
3.87743
3.11615
3.10619
3.10066
3.09909
3.09885
3.09847
3.0989
3.09953
3.10101
3.10249
3.10473
3.10698
3.10995
3.11295
3.11661
3.1203
3.1246
3.12895
3.13386
3.13883
3.1443
3.14983
3.15579
3.16182
3.16822
3.17468
3.18144
3.18827
3.19532
3.20244
3.20973
3.21707
3.22456
3.23211
3.23977
3.2475
3.25532
3.26322
3.27119
3.27923
3.28735
3.29554
3.3038
3.31214
3.32057
3.32909
3.33772
3.34648
3.35536
3.36441
3.37365
3.38309
3.39288
3.40301
3.41364
3.42501
3.43703
3.44984
3.46361
3.4777
3.49183
3.50645
3.52166
3.53555
3.54715
3.55843
3.56926
3.57984
3.59035
3.60083
3.61126
3.6216
3.63183
3.64197
3.65208
3.6622
3.67239
3.68269
3.6931
3.7036
3.71417
3.72474
3.73526
3.74565
3.75588
3.76588
3.77562
3.78493
3.1161
3.10626
3.10069
3.0991
3.09886
3.09847
3.09891
3.09953
3.10101
3.10249
3.10474
3.10698
3.10996
3.11294
3.11661
3.12029
3.12461
3.12894
3.13387
3.13882
3.14431
3.14982
3.1558
3.16181
3.16822
3.17467
3.18145
3.18825
3.19533
3.20242
3.20973
3.21706
3.22455
3.23208
3.23975
3.24746
3.25527
3.26314
3.27109
3.27909
3.28716
3.29527
3.30345
3.31168
3.31997
3.32832
3.33673
3.34523
3.3538
3.36248
3.37129
3.38023
3.3894
3.3988
3.40853
3.41868
3.42924
3.44018
3.45154
3.46299
3.47433
3.48565
3.49707
3.50771
3.51691
3.52597
3.53462
3.54294
3.55106
3.55902
3.56685
3.57452
3.58206
3.58947
3.59677
3.60397
3.6111
3.61816
3.62514
3.63202
3.6388
3.64543
3.65191
3.65819
3.66428
3.67013
3.67576
3.68102
3.11607
3.10629
3.10071
3.0991
3.09887
3.09847
3.09891
3.09952
3.10102
3.10248
3.10474
3.10697
3.10997
3.11293
3.11662
3.12027
3.12462
3.12893
3.13388
3.1388
3.14431
3.1498
3.15581
3.16179
3.16823
3.17465
3.18145
3.18823
3.19533
3.2024
3.20972
3.21703
3.22454
3.23205
3.23972
3.2474
3.25522
3.26305
3.27099
3.27894
3.28696
3.295
3.3031
3.31121
3.31936
3.32753
3.33574
3.34397
3.35223
3.36053
3.36889
3.3773
3.38581
3.39443
3.40318
3.41211
3.42118
3.43031
3.43947
3.44846
3.45711
3.4654
3.47345
3.48112
3.48797
3.49471
3.50102
3.50696
3.51261
3.51802
3.52321
3.52818
3.53294
3.5375
3.54188
3.54609
3.55013
3.554
3.55771
3.56125
3.56463
3.56783
3.57087
3.57372
3.57641
3.57892
3.58128
3.58337
3.11607
3.10628
3.10071
3.0991
3.09887
3.09846
3.09892
3.09951
3.10103
3.10247
3.10475
3.10695
3.10998
3.11291
3.11663
3.12025
3.12463
3.1289
3.13389
3.13878
3.14432
3.14977
3.15581
3.16176
3.16824
3.17462
3.18146
3.1882
3.19533
3.20237
3.20972
3.217
3.22453
3.232
3.23969
3.24734
3.25516
3.26295
3.27087
3.27877
3.28676
3.29472
3.30273
3.31073
3.31874
3.32673
3.33472
3.34269
3.35064
3.35855
3.36644
3.3743
3.38214
3.38994
3.39771
3.40542
3.41301
3.42041
3.42752
3.4342
3.44029
3.44574
3.45068
3.45554
3.4601
3.46453
3.46851
3.47205
3.47524
3.47812
3.48072
3.48304
3.48509
3.4869
3.48848
3.48985
3.49101
3.49198
3.49277
3.4934
3.49388
3.49421
3.49442
3.49451
3.49451
3.49442
3.49427
3.49397
3.11609
3.10624
3.10069
3.09909
3.09886
3.09845
3.09892
3.0995
3.10103
3.10245
3.10475
3.10694
3.10998
3.11289
3.11664
3.12023
3.12463
3.12888
3.1339
3.13875
3.14433
3.14974
3.15582
3.16172
3.16824
3.17458
3.18146
3.18816
3.19533
3.20233
3.20972
3.21695
3.22452
3.23195
3.23966
3.24727
3.2551
3.26285
3.27076
3.2786
3.28655
3.29443
3.30238
3.31024
3.31813
3.32594
3.33373
3.34142
3.34906
3.3566
3.36404
3.37134
3.37851
3.38551
3.39231
3.39885
3.40506
3.41083
3.41607
3.42062
3.42436
3.4272
3.42929
3.43156
3.43398
3.43624
3.43801
3.4393
3.44019
3.44072
3.44093
3.44082
3.44042
3.43976
3.43885
3.43772
3.43639
3.43489
3.43324
3.43147
3.42959
3.42763
3.42562
3.42357
3.42152
3.41948
3.41747
3.41543
3.11613
3.10617
3.10065
3.09907
3.09885
3.09844
3.09892
3.09948
3.10103
3.10243
3.10476
3.10692
3.10999
3.11287
3.11664
3.1202
3.12464
3.12884
3.13391
3.13871
3.14434
3.14969
3.15583
3.16168
3.16825
3.17453
3.18147
3.18811
3.19534
3.20227
3.20972
3.21689
3.22451
3.23188
3.23964
3.24718
3.25505
3.26272
3.27065
3.27841
3.28636
3.29414
3.30203
3.30976
3.31755
3.32517
3.33277
3.3402
3.34755
3.3547
3.36171
3.36848
3.37502
3.38125
3.38714
3.39259
3.39752
3.40182
3.40536
3.40801
3.40962
3.4101
3.40961
3.40955
3.41001
3.4103
3.41007
3.40932
3.40814
3.40657
3.40465
3.40241
3.39986
3.39705
3.39401
3.39077
3.38737
3.38383
3.3802
3.3765
3.37277
3.36904
3.36534
3.36169
3.35813
3.35468
3.35136
3.34812
3.11619
3.10606
3.10061
3.09905
3.09884
3.09842
3.09891
3.09946
3.10103
3.10241
3.10476
3.10689
3.10999
3.11284
3.11665
3.12017
3.12465
3.1288
3.13391
3.13866
3.14435
3.14964
3.15584
3.16162
3.16826
3.17447
3.18148
3.18805
3.19535
3.2022
3.20973
3.21682
3.22451
3.2318
3.23962
3.24708
3.25501
3.2626
3.27057
3.27823
3.28619
3.29386
3.30174
3.30933
3.31705
3.32448
3.33195
3.33913
3.34626
3.35307
3.35973
3.36603
3.37205
3.37763
3.38278
3.38734
3.39125
3.39436
3.39656
3.39769
3.3976
3.39621
3.39368
3.39175
3.39068
3.3894
3.38759
3.38525
3.38245
3.37926
3.3757
3.37182
3.36764
3.36321
3.35857
3.35376
3.34883
3.34381
3.33875
3.33368
3.32865
3.32369
3.31883
3.3141
3.30955
3.30519
3.30104
3.29705
3.11625
3.10594
3.10056
3.09903
3.09882
3.0984
3.09891
3.09945
3.10103
3.10239
3.10476
3.10687
3.11
3.11281
3.11665
3.12014
3.12465
3.12877
3.13392
3.13862
3.14435
3.1496
3.15585
3.16157
3.16827
3.17441
3.18149
3.18799
3.19536
3.20214
3.20974
3.21674
3.22452
3.23172
3.23962
3.24699
3.25498
3.26248
3.27051
3.27807
3.28608
3.29363
3.30153
3.30899
3.31668
3.32395
3.33134
3.3383
3.34529
3.35182
3.35824
3.36416
3.36982
3.3749
3.37952
3.38342
3.38661
3.38888
3.39013
3.39018
3.3889
3.38617
3.38219
3.37895
3.37679
3.37442
3.37152
3.36807
3.36415
3.35983
3.35515
3.35014
3.34484
3.33931
3.33358
3.32771
3.32175
3.31574
3.30973
3.30376
3.29788
3.29213
3.28653
3.28114
3.27597
3.27106
3.26642
3.262
3.11631
3.10582
3.10051
3.09901
3.0988
3.09838
3.0989
3.09943
3.10103
3.10238
3.10476
3.10685
3.11
3.11279
3.11666
3.12011
3.12466
3.12874
3.13392
3.13859
3.14436
3.14955
3.15586
3.16152
3.16828
3.17436
3.18151
3.18793
3.19538
3.20208
3.20976
3.21668
3.22453
3.23164
3.23963
3.2469
3.25498
3.26237
3.27048
3.27794
3.28601
3.29344
3.30139
3.30871
3.31642
3.32352
3.3309
3.33766
3.34457
3.35085
3.35713
3.36275
3.36817
3.37286
3.37712
3.38053
3.38322
3.38488
3.38547
3.38477
3.38263
3.37896
3.37394
3.36978
3.36686
3.36374
3.36008
3.35586
3.35118
3.34609
3.34063
3.33485
3.32879
3.32249
3.31602
3.30942
3.30275
3.29605
3.28939
3.2828
3.27634
3.27005
3.26395
3.2581
3.25253
3.24725
3.2423
3.23761
3.11637
3.10572
3.10047
3.09899
3.09879
3.09837
3.09889
3.09942
3.10102
3.10236
3.10476
3.10683
3.11
3.11277
3.11666
3.12009
3.12466
3.12871
3.13393
3.13856
3.14437
3.14952
3.15586
3.16149
3.16829
3.17432
3.18152
3.18788
3.1954
3.20203
3.20978
3.21662
3.22455
3.23158
3.23964
3.24682
3.25498
3.26228
3.27047
3.27782
3.28597
3.29328
3.30129
3.30848
3.31624
3.32318
3.33058
3.33715
3.34404
3.35011
3.35632
3.36167
3.36696
3.37132
3.37536
3.37839
3.38075
3.38197
3.38211
3.38088
3.37815
3.37381
3.36806
3.36323
3.35979
3.35615
3.35197
3.34724
3.34204
3.33642
3.33043
3.32412
3.31753
3.31071
3.30372
3.29661
3.28944
3.28227
3.27514
3.26811
3.26124
3.25456
3.24812
3.24195
3.23608
3.23056
3.22538
3.22051
3.11642
3.10562
3.10043
3.09897
3.09877
3.09836
3.09889
3.09941
3.10102
3.10235
3.10476
3.10682
3.11
3.11276
3.11666
3.12007
3.12466
3.12869
3.13393
3.13853
3.14437
3.14949
3.15587
3.16145
3.1683
3.17429
3.18153
3.18785
3.19541
3.20198
3.20979
3.21657
3.22457
3.23152
3.23966
3.24676
3.25499
3.2622
3.27047
3.27772
3.28594
3.29315
3.30123
3.30829
3.31611
3.32291
3.33035
3.33676
3.34366
3.34953
3.35573
3.36085
3.36608
3.37016
3.37409
3.37679
3.37897
3.37985
3.37969
3.37809
3.37494
3.37014
3.36385
3.35856
3.35475
3.35075
3.34623
3.34115
3.3356
3.32962
3.32327
3.31659
3.30963
3.30245
3.2951
3.28763
3.2801
3.27258
3.26511
3.25776
3.25058
3.24362
3.23691
3.2305
3.22442
3.2187
3.21336
3.20836
3.11647
3.10553
3.1004
3.09895
3.09876
3.09835
3.09888
3.0994
3.10102
3.10234
3.10476
3.10681
3.11
3.11275
3.11666
3.12006
3.12467
3.12868
3.13394
3.13851
3.14438
3.14947
3.15588
3.16143
3.16831
3.17426
3.18154
3.18781
3.19542
3.20195
3.20981
3.21653
3.22458
3.23147
3.23967
3.2467
3.255