/*--------------------------------*- C++ -*----------------------------------*\
| =========                 |                                                 |
| \\      /  F ield         | OpenFOAM: The Open Source CFD Toolbox           |
|  \\    /   O peration     | Version:  2306                                  |
|   \\  /    A nd           | Website:  www.openfoam.com                      |
|    \\/     M anipulation  |                                                 |
\*---------------------------------------------------------------------------*/
FoamFile
{
    version     2.0;
    format      ascii;
    arch        "LSB;label=32;scalar=64";
    class       volScalarField;
    location    "1700";
    object      nut;
}
// * * * * * * * * * * * * * * * * * * * * * * * * * * * * * * * * * * * * * //

dimensions      [0 2 -1 0 0 0 0];

internalField   uniform 0;

boundaryField
{
    inlet
    {
        type            calculated;
        value           uniform 0;
    }
    outlet
    {
        type            calculated;
        value           uniform 0;
    }
    lowerWallStartup
    {
        type            symmetryPlane;
    }
    upperWallStartup
    {
        type            symmetryPlane;
    }
    upperWall
    {
        type            nutUBlendedWallFunction;
        value           nonuniform List<scalar> 
218
(
1.18723e-08
4.04843e-09
2.98423e-09
2.50997e-09
2.23441e-09
2.05396e-09
1.91501e-09
1.81388e-09
1.72441e-09
1.66146e-09
1.59705e-09
1.55438e-09
1.50356e-09
1.47353e-09
1.43081e-09
1.40935e-09
1.37146e-09
1.35619e-09
1.32111e-09
1.31063e-09
1.27707e-09
1.27059e-09
1.23763e-09
1.23468e-09
1.20168e-09
1.20207e-09
1.16862e-09
1.17236e-09
1.1382e-09
1.14533e-09
1.11017e-09
1.12057e-09
1.08409e-09
1.09766e-09
1.05961e-09
1.0766e-09
1.03701e-09
1.05821e-09
1.01739e-09
1.044e-09
1.00258e-09
1.0362e-09
9.95248e-10
1.03777e-09
9.98851e-10
1.05252e-09
1.01761e-09
1.08514e-09
1.05691e-09
1.1419e-09
1.12475e-09
1.23206e-09
1.23359e-09
1.3679e-09
1.39979e-09
1.56154e-09
1.63733e-09
1.82951e-09
1.97333e-09
2.20061e-09
2.43905e-09
2.70884e-09
2.99494e-09
3.19863e-09
3.3792e-09
3.575e-09
3.83105e-09
4.10176e-09
4.35529e-09
4.67907e-09
4.9194e-09
5.25871e-09
5.48002e-09
5.81322e-09
6.06251e-09
6.36546e-09
6.68866e-09
6.93465e-09
7.27353e-09
7.45699e-09
7.77525e-09
7.93663e-09
8.24376e-09
8.43098e-09
8.7064e-09
8.88542e-09
9.12392e-09
9.25985e-09
9.54238e-09
9.62278e-09
9.9647e-09
1.00662e-08
1.04245e-08
1.05203e-08
1.0908e-08
1.10168e-08
1.14468e-08
1.15801e-08
1.20391e-08
1.21925e-08
1.26544e-08
1.28141e-08
1.32672e-08
1.34224e-08
1.3874e-08
1.40324e-08
1.45017e-08
1.46834e-08
1.51812e-08
1.53892e-08
1.59025e-08
1.61134e-08
1.66223e-08
1.68124e-08
1.73226e-08
1.75026e-08
1.8048e-08
1.82513e-08
1.88502e-08
1.90846e-08
1.97119e-08
1.99497e-08
2.05754e-08
2.07968e-08
2.14244e-08
2.16471e-08
2.22964e-08
2.25384e-08
2.32075e-08
2.34389e-08
2.41104e-08
2.42952e-08
2.49898e-08
2.51559e-08
2.59202e-08
2.6115e-08
2.69335e-08
2.7133e-08
2.79277e-08
2.80776e-08
2.88029e-08
2.88993e-08
2.95527e-08
2.95933e-08
3.01662e-08
3.01181e-08
3.06254e-08
3.0489e-08
3.09904e-08
3.07947e-08
3.13431e-08
3.11148e-08
3.16985e-08
3.14356e-08
3.19605e-08
3.1589e-08
3.19644e-08
3.14184e-08
3.16589e-08
3.09662e-08
3.10982e-08
3.02748e-08
3.02323e-08
2.92117e-08
2.89716e-08
2.774e-08
2.74219e-08
2.60767e-08
2.57556e-08
2.43468e-08
2.39152e-08
2.23644e-08
2.17374e-08
1.99958e-08
1.92781e-08
1.75033e-08
1.67262e-08
1.53749e-08
1.4878e-08
1.47607e-08
1.48051e-08
1.71183e-08
2.02965e-08
2.3219e-08
3.05484e-08
4.47405e-08
5.6072e-08
5.76499e-08
5.53036e-08
4.36636e-08
8.58247e-08
9.18514e-08
1.74111e-08
2.88089e-08
2.69494e-08
1.87257e-09
8.16161e-09
3.47005e-09
1.71044e-08
6.92966e-08
1.7305e-07
3.29886e-07
2.59927e-07
1.01927e-08
1.1618e-07
8.58404e-08
4.77407e-08
1.99622e-08
1.96425e-09
1.78009e-09
1.16478e-08
1.74463e-09
4.42274e-09
0
0.00504671
0
0
0.0025331
)
;
    }
    lowerWall
    {
        type            nutUBlendedWallFunction;
        value           nonuniform List<scalar> 
266
(
1.28415e-08
4.34479e-09
3.19287e-09
2.67878e-09
2.38175e-09
2.18367e-09
2.03648e-09
1.92257e-09
1.83051e-09
1.75658e-09
1.69285e-09
1.63965e-09
1.5918e-09
1.55105e-09
1.51323e-09
1.4804e-09
1.44916e-09
1.42157e-09
1.39485e-09
1.37089e-09
1.34742e-09
1.32607e-09
1.30502e-09
1.28563e-09
1.26647e-09
1.24865e-09
1.2311e-09
1.21466e-09
1.19852e-09
1.18326e-09
1.1682e-09
1.15367e-09
1.13913e-09
1.12471e-09
1.11005e-09
1.09515e-09
1.07982e-09
1.06388e-09
1.04722e-09
1.02942e-09
1.01028e-09
9.89471e-10
9.6583e-10
9.40366e-10
9.10504e-10
8.75608e-10
8.42404e-10
7.92115e-10
7.49972e-10
7.15582e-10
6.52661e-10
6.52807e-10
6.6477e-10
6.52491e-10
1.18672e-09
6.55585e-10
1.74297e-09
2.71764e-09
3.58217e-10
2.43256e-09
1.54598e-09
7.03106e-09
6.7398e-09
0
4.53092e-09
1.90068e-08
2.07242e-08
0
9.83953e-09
1.17088e-08
9.74216e-09
6.40651e-09
1.74042e-09
3.21638e-09
8.12537e-09
1.11368e-08
1.76783e-08
2.22002e-08
1.58331e-08
0
2.50545e-09
8.8482e-09
1.48595e-08
8.60983e-09
0
0
3.26088e-08
1.49563e-08
7.37252e-05
0
0
0
0
0
0
0
0
1.02609e-06
3.40742e-07
0
4.14539e-07
1.66068e-06
3.07664e-06
2.95755e-06
0
0
0
0
1.65928e-05
3.52816e-05
5.06193e-05
6.31942e-05
7.25878e-05
7.88435e-05
8.32016e-05
8.60904e-05
8.77511e-05
8.84181e-05
8.8267e-05
8.75299e-05
8.63749e-05
8.49737e-05
8.33939e-05
8.172e-05
8.0107e-05
7.86092e-05
7.72201e-05
7.60286e-05
7.49609e-05
7.41249e-05
7.33756e-05
7.28478e-05
7.23581e-05
7.2177e-05
7.18733e-05
7.20103e-05
0
1.77756e-09
3.82806e-10
4.6906e-10
0
2.33485e-09
3.83362e-09
4.27965e-09
3.77755e-09
3.31496e-09
8.51248e-10
1.14427e-09
2.29952e-09
5.56934e-09
9.70579e-09
1.32273e-08
1.39611e-08
1.11014e-08
6.2291e-09
0
6.41367e-09
1.04642e-08
2.11052e-08
0
1.34617e-08
3.52037e-09
4.09967e-10
6.16394e-09
8.47476e-09
9.22735e-09
9.07008e-09
8.79124e-09
8.65091e-09
7.92384e-09
6.4735e-09
4.36765e-09
1.25377e-09
9.84078e-10
8.25892e-10
3.04682e-09
2.87897e-09
0
5.99413e-09
9.26707e-09
0
0
1.49654e-09
7.9251e-09
1.36452e-08
1.4161e-08
9.48521e-09
0
5.85285e-09
0
3.72656e-09
1.16603e-08
8.49986e-09
5.70777e-09
1.8004e-08
9.19726e-09
0
1.93911e-09
6.95786e-09
1.43146e-08
2.13526e-08
2.43272e-08
5.17411e-09
0
6.21563e-09
4.29907e-09
1.98928e-08
0
9.99375e-10
5.56722e-09
1.05791e-08
1.54325e-08
1.87196e-08
2.84854e-08
2.97346e-08
4.05452e-08
5.09672e-08
4.9298e-08
0
4.66874e-08
7.16144e-09
3.18744e-08
5.47345e-08
0
4.48992e-08
5.28639e-08
5.78959e-08
5.22956e-08
2.52528e-08
2.55026e-09
5.28637e-09
3.93844e-09
7.82911e-09
2.47157e-08
4.26575e-08
3.93293e-08
8.02387e-08
1.21432e-07
8.34182e-08
1.97532e-07
3.45428e-07
0
8.47982e-08
8.09501e-08
2.50436e-08
8.8371e-09
3.69885e-08
5.72176e-08
7.94802e-08
8.69935e-08
8.10111e-08
6.05245e-08
3.15576e-08
2.93026e-09
5.26996e-09
2.38443e-08
2.39863e-08
1.69247e-09
3.14414e-08
1.56241e-08
0
1.31557e-08
5.87858e-08
8.40068e-08
4.07967e-08
5.64265e-08
)
;
    }
    front
    {
        type            empty;
    }
    back
    {
        type            empty;
    }
}


// ************************************************************************* //
