/*--------------------------------*- C++ -*----------------------------------*\
| =========                 |                                                 |
| \\      /  F ield         | OpenFOAM: The Open Source CFD Toolbox           |
|  \\    /   O peration     | Version:  2306                                  |
|   \\  /    A nd           | Website:  www.openfoam.com                      |
|    \\/     M anipulation  |                                                 |
\*---------------------------------------------------------------------------*/
FoamFile
{
    version     2.0;
    format      ascii;
    arch        "LSB;label=32;scalar=64";
    class       volScalarField;
    location    "1700";
    object      p;
}
// * * * * * * * * * * * * * * * * * * * * * * * * * * * * * * * * * * * * * //

dimensions      [0 2 -2 0 0 0 0];

internalField   nonuniform List<scalar> 
20540
(
3050.74
3050.11
3050.74
3050.11
3050.74
3050.1
3050.74
3050.1
3050.74
3050.1
3050.74
3050.1
3050.74
3050.09
3050.74
3050.09
3050.74
3050.08
3050.74
3050.07
3050.74
3050.07
3050.74
3050.06
3050.73
3050.04
3050.73
3050.03
3050.73
3050.01
3050.73
3049.99
3050.72
3049.96
3050.72
3049.93
3050.71
3049.9
3050.71
3049.85
3050.7
3049.8
3050.69
3049.74
3050.68
3049.67
3050.67
3049.59
3050.66
3049.5
3050.65
3049.4
3050.63
3049.28
3050.61
3049.16
3050.6
3049.03
3050.58
3048.92
3050.57
3048.84
3050.57
3048.8
3050.57
3048.79
3050.58
3048.83
3050.59
3048.91
3050.61
3049.02
3050.63
3049.13
3050.65
3049.25
3050.66
3049.36
3050.68
3049.46
3050.69
3049.55
3050.71
3049.63
3050.72
3049.7
3050.72
3049.77
3050.73
3049.82
3050.74
3049.86
3050.74
3049.9
3050.75
3049.93
3050.75
3049.96
3050.75
3049.98
3050.76
3050
3050.76
3050.02
3050.76
3050.03
3050.76
3050.04
3050.76
3050.05
3050.77
3050.06
3050.77
3050.06
3050.77
3050.07
3050.77
3050.07
3050.77
3050.08
3050.77
3050.08
3050.77
3050.08
3050.77
3050.08
3050.77
3050.09
3050.77
3050.09
3044.54
3033.12
3028.4
3027.08
3026.87
3026.55
3026.99
3027.63
3029.07
3030.54
3032.71
3034.94
3037.81
3040.77
3044.31
3047.95
3052.12
3056.4
3061.16
3066.05
3071.35
3076.79
3082.57
3088.5
3094.71
3101.06
3107.63
3114.33
3121.2
3128.18
3135.29
3142.49
3149.79
3157.19
3164.69
3172.28
3179.96
3187.75
3195.63
3203.63
3211.74
3219.98
3228.36
3236.93
3245.67
3254.63
3263.94
3273.33
3283.29
3293.69
3303.33
3315.59
3326.71
3333.82
3352.67
3362.98
3344.74
3379.21
3469.32
3466.67
3398.2
3426.7
3560.39
3674.43
3741.54
3735.73
3616.94
3493.15
3496.67
3571.68
3664.86
3751.8
3826.62
3873.31
3883.58
3876.18
3853.83
3797.01
3718.55
3663.34
3641.8
3645.49
3687.75
3789.23
3817.44
3836.44
3812.07
4088.59
3044.54
3033.12
3028.4
3027.08
3026.87
3026.55
3026.99
3027.63
3029.07
3030.54
3032.71
3034.94
3037.81
3040.77
3044.31
3047.95
3052.12
3056.4
3061.16
3066.05
3071.35
3076.79
3082.57
3088.5
3094.71
3101.06
3107.63
3114.33
3121.2
3128.18
3135.29
3142.49
3149.79
3157.19
3164.69
3172.28
3179.96
3187.75
3195.63
3203.63
3211.74
3219.98
3228.36
3236.93
3245.67
3254.63
3263.94
3273.33
3283.29
3293.69
3303.33
3315.59
3326.71
3333.82
3352.67
3362.98
3344.74
3379.21
3469.31
3466.67
3398.21
3426.7
3560.39
3674.42
3741.53
3735.72
3616.95
3493.17
3496.67
3571.67
3664.86
3751.79
3826.6
3873.29
3883.57
3876.17
3853.82
3797.02
3718.58
3663.35
3641.79
3645.5
3687.75
3789.23
3817.45
3836.47
3812.25
4081.57
3044.54
3033.12
3028.4
3027.08
3026.88
3026.55
3026.99
3027.63
3029.07
3030.54
3032.71
3034.94
3037.81
3040.77
3044.31
3047.95
3052.12
3056.4
3061.16
3066.05
3071.35
3076.79
3082.57
3088.5
3094.71
3101.06
3107.63
3114.33
3121.2
3128.18
3135.29
3142.49
3149.79
3157.19
3164.69
3172.28
3179.96
3187.75
3195.63
3203.63
3211.74
3219.98
3228.36
3236.93
3245.67
3254.63
3263.94
3273.33
3283.29
3293.69
3303.33
3315.59
3326.71
3333.82
3352.67
3362.98
3344.74
3379.21
3469.31
3466.67
3398.21
3426.7
3560.38
3674.4
3741.51
3735.7
3616.94
3493.15
3496.64
3571.65
3664.85
3751.77
3826.58
3873.27
3883.56
3876.16
3853.81
3797.02
3718.57
3663.32
3641.76
3645.49
3687.74
3789.23
3817.4
3836.4
3812.38
4070.27
3044.54
3033.12
3028.4
3027.08
3026.88
3026.55
3026.99
3027.63
3029.07
3030.54
3032.71
3034.94
3037.81
3040.77
3044.31
3047.95
3052.12
3056.4
3061.16
3066.05
3071.35
3076.79
3082.57
3088.5
3094.71
3101.06
3107.63
3114.33
3121.2
3128.18
3135.29
3142.49
3149.79
3157.19
3164.69
3172.28
3179.96
3187.75
3195.63
3203.63
3211.74
3219.98
3228.36
3236.93
3245.67
3254.63
3263.94
3273.33
3283.29
3293.69
3303.33
3315.59
3326.71
3333.82
3352.67
3362.98
3344.74
3379.21
3469.31
3466.68
3398.21
3426.7
3560.37
3674.38
3741.47
3735.66
3616.9
3493.07
3496.57
3571.61
3664.83
3751.74
3826.53
3873.24
3883.54
3876.14
3853.78
3796.97
3718.44
3663.19
3641.67
3645.46
3687.71
3789.17
3817.23
3836.05
3812.16
4057.86
3044.53
3033.12
3028.4
3027.08
3026.88
3026.55
3026.99
3027.63
3029.07
3030.54
3032.71
3034.94
3037.81
3040.77
3044.31
3047.95
3052.12
3056.4
3061.16
3066.05
3071.35
3076.79
3082.57
3088.5
3094.71
3101.06
3107.63
3114.33
3121.2
3128.18
3135.29
3142.49
3149.79
3157.19
3164.69
3172.28
3179.96
3187.75
3195.63
3203.63
3211.74
3219.98
3228.36
3236.93
3245.67
3254.63
3263.94
3273.33
3283.29
3293.69
3303.33
3315.59
3326.71
3333.82
3352.67
3362.98
3344.74
3379.2
3469.31
3466.68
3398.2
3426.7
3560.35
3674.35
3741.4
3735.58
3616.76
3492.86
3496.4
3571.54
3664.8
3751.69
3826.46
3873.17
3883.51
3876.1
3853.68
3796.73
3718.09
3662.83
3641.45
3645.37
3687.63
3788.95
3816.7
3835.29
3811.6
4044.85
3044.53
3033.13
3028.4
3027.08
3026.88
3026.55
3026.99
3027.63
3029.07
3030.54
3032.71
3034.94
3037.81
3040.77
3044.31
3047.95
3052.12
3056.4
3061.16
3066.05
3071.35
3076.79
3082.57
3088.5
3094.71
3101.06
3107.63
3114.33
3121.2
3128.18
3135.29
3142.49
3149.79
3157.19
3164.69
3172.28
3179.96
3187.75
3195.63
3203.63
3211.74
3219.98
3228.36
3236.93
3245.67
3254.63
3263.94
3273.33
3283.29
3293.69
3303.33
3315.59
3326.71
3333.82
3352.67
3362.98
3344.74
3379.19
3469.31
3466.67
3398.18
3426.69
3560.32
3674.27
3741.27
3735.4
3616.41
3492.31
3496.11
3571.43
3664.73
3751.59
3826.32
3873.03
3883.45
3875.99
3853.4
3796.1
3717.32
3662.11
3641.07
3645.15
3687.39
3788.34
3815.41
3834.06
3811.23
4031.37
3044.53
3033.13
3028.4
3027.08
3026.88
3026.55
3026.99
3027.63
3029.07
3030.54
3032.71
3034.94
3037.81
3040.77
3044.31
3047.95
3052.12
3056.4
3061.16
3066.05
3071.35
3076.79
3082.57
3088.5
3094.71
3101.06
3107.63
3114.33
3121.2
3128.18
3135.29
3142.49
3149.79
3157.19
3164.69
3172.28
3179.96
3187.75
3195.63
3203.63
3211.74
3219.98
3228.36
3236.93
3245.67
3254.63
3263.94
3273.33
3283.29
3293.69
3303.33
3315.59
3326.71
3333.82
3352.67
3362.98
3344.73
3379.17
3469.3
3466.66
3398.15
3426.67
3560.28
3674.13
3741.04
3735.04
3615.74
3491.15
3495.71
3571.28
3664.6
3751.4
3826.08
3872.79
3883.33
3875.73
3852.8
3795.1
3715.78
3660.93
3640.52
3644.76
3686.94
3787.04
3812.7
3831.89
3810.76
4017.85
3044.52
3033.13
3028.4
3027.08
3026.88
3026.55
3026.99
3027.63
3029.07
3030.54
3032.71
3034.94
3037.81
3040.77
3044.31
3047.95
3052.12
3056.4
3061.16
3066.05
3071.35
3076.79
3082.57
3088.5
3094.71
3101.06
3107.63
3114.33
3121.2
3128.18
3135.29
3142.49
3149.79
3157.19
3164.69
3172.28
3179.96
3187.75
3195.63
3203.63
3211.74
3219.98
3228.36
3236.93
3245.67
3254.63
3263.94
3273.33
3283.29
3293.69
3303.33
3315.59
3326.71
3333.82
3352.67
3362.98
3344.73
3379.12
3469.27
3466.64
3398.1
3426.62
3560.23
3673.9
3740.72
3734.47
3614.6
3489.35
3495.26
3571.09
3664.4
3751.12
3825.7
3872.39
3883.11
3875.27
3851.92
3793.46
3713.2
3659.27
3639.76
3644.18
3686.28
3784.76
3808.01
3828.31
3807.97
4003.33
3044.52
3033.13
3028.4
3027.08
3026.88
3026.55
3026.99
3027.63
3029.07
3030.54
3032.71
3034.94
3037.81
3040.77
3044.31
3047.95
3052.12
3056.4
3061.16
3066.05
3071.35
3076.79
3082.57
3088.5
3094.71
3101.06
3107.63
3114.33
3121.2
3128.18
3135.29
3142.49
3149.79
3157.19
3164.69
3172.28
3179.96
3187.75
3195.63
3203.63
3211.74
3219.98
3228.36
3236.93
3245.67
3254.63
3263.94
3273.33
3283.29
3293.69
3303.33
3315.59
3326.71
3333.83
3352.67
3362.98
3344.72
3379.02
3469.21
3466.57
3397.98
3426.5
3560.23
3673.5
3740.31
3733.68
3612.79
3486.98
3494.8
3570.85
3664.12
3750.7
3825.13
3871.8
3882.75
3874.64
3850.83
3790.77
3709.48
3657.22
3638.65
3643.43
3685.28
3781.37
3800.95
3823.17
3801.3
3985
3044.51
3033.14
3028.41
3027.08
3026.88
3026.55
3026.99
3027.63
3029.07
3030.54
3032.71
3034.94
3037.81
3040.77
3044.31
3047.95
3052.12
3056.4
3061.16
3066.05
3071.35
3076.79
3082.57
3088.5
3094.71
3101.06
3107.64
3114.33
3121.2
3128.18
3135.29
3142.49
3149.79
3157.19
3164.69
3172.28
3179.96
3187.75
3195.63
3203.63
3211.74
3219.98
3228.36
3236.93
3245.67
3254.63
3263.94
3273.33
3283.28
3293.69
3303.33
3315.59
3326.7
3333.83
3352.66
3362.97
3344.74
3378.86
3469.09
3466.44
3397.78
3426.21
3560.24
3672.93
3739.78
3732.69
3609.97
3484.22
3494.3
3570.59
3663.79
3750.1
3824.33
3870.97
3882.25
3873.81
3849.44
3786.49
3704.7
3654.78
3637.13
3642.32
3683.63
3776.62
3791.79
3817
3789.53
3955.85
3044.51
3033.15
3028.41
3027.08
3026.88
3026.55
3026.99
3027.63
3029.07
3030.54
3032.71
3034.94
3037.81
3040.77
3044.31
3047.95
3052.12
3056.4
3061.16
3066.05
3071.35
3076.79
3082.57
3088.5
3094.71
3101.06
3107.64
3114.33
3121.2
3128.18
3135.29
3142.49
3149.79
3157.19
3164.69
3172.28
3179.96
3187.75
3195.63
3203.63
3211.74
3219.98
3228.36
3236.93
3245.67
3254.63
3263.94
3273.33
3283.28
3293.69
3303.33
3315.59
3326.7
3333.83
3352.64
3362.93
3344.79
3378.62
3468.89
3466.27
3397.54
3425.63
3560.12
3672.19
3738.99
3731.42
3606.01
3481.34
3493.67
3570.42
3663.39
3749.32
3823.25
3869.93
3881.63
3872.91
3847.51
3780.31
3699.08
3651.85
3635.17
3640.78
3681.08
3770.13
3781.83
3810.88
3772.46
3904.25
3044.5
3033.16
3028.41
3027.08
3026.88
3026.55
3027
3027.63
3029.07
3030.54
3032.71
3034.94
3037.81
3040.77
3044.31
3047.95
3052.12
3056.4
3061.16
3066.05
3071.35
3076.79
3082.57
3088.5
3094.71
3101.06
3107.64
3114.33
3121.2
3128.18
3135.29
3142.49
3149.79
3157.19
3164.69
3172.28
3179.96
3187.75
3195.63
3203.63
3211.74
3219.98
3228.36
3236.93
3245.67
3254.63
3263.94
3273.32
3283.28
3293.68
3303.32
3315.58
3326.68
3333.84
3352.62
3362.86
3344.95
3378.41
3468.54
3465.95
3397.34
3424.79
3559.82
3671.38
3737.78
3729.71
3600.94
3478.44
3492.74
3570.27
3662.93
3748.37
3821.9
3868.73
3881.02
3872.35
3844.76
3772.26
3692.91
3648.34
3632.79
3638.78
3677.58
3761.48
3772.98
3806.2
3751.91
3818.61
3044.5
3033.17
3028.41
3027.08
3026.88
3026.55
3027
3027.63
3029.07
3030.54
3032.71
3034.94
3037.82
3040.77
3044.31
3047.95
3052.12
3056.4
3061.16
3066.05
3071.35
3076.79
3082.57
3088.5
3094.71
3101.06
3107.64
3114.33
3121.2
3128.18
3135.29
3142.49
3149.79
3157.19
3164.69
3172.28
3179.96
3187.75
3195.63
3203.63
3211.74
3219.98
3228.36
3236.93
3245.67
3254.63
3263.93
3273.32
3283.27
3293.67
3303.32
3315.56
3326.66
3333.86
3352.58
3362.71
3345.29
3378.38
3467.95
3465.35
3397.35
3424.03
3559.34
3670.65
3735.99
3727.18
3594.53
3475.84
3491.44
3570.09
3662.43
3747.25
3820.41
3867.46
3880.5
3872.36
3840.81
3762.64
3686.54
3644.25
3629.9
3636.14
3673.18
3750.86
3766.35
3804.63
3734.68
3705.46
3044.49
3033.18
3028.42
3027.09
3026.88
3026.56
3027
3027.63
3029.07
3030.54
3032.71
3034.94
3037.82
3040.77
3044.31
3047.95
3052.12
3056.4
3061.16
3066.05
3071.35
3076.79
3082.57
3088.5
3094.71
3101.06
3107.64
3114.33
3121.2
3128.18
3135.29
3142.49
3149.79
3157.19
3164.69
3172.28
3179.96
3187.75
3195.63
3203.63
3211.74
3219.98
3228.36
3236.92
3245.66
3254.62
3263.93
3273.31
3283.26
3293.65
3303.31
3315.53
3326.61
3333.88
3352.52
3362.46
3345.9
3378.73
3466.95
3464.33
3397.84
3423.83
3558.76
3670
3733.55
3723.2
3586.89
3474.12
3490.26
3570.1
3662.04
3746.12
3818.86
3866.53
3879.94
3872.68
3835.1
3752.51
3680.44
3639.68
3626.55
3632.81
3668.11
3740.07
3760.73
3808.18
3732.92
3611.78
3044.48
3033.2
3028.42
3027.09
3026.88
3026.56
3027
3027.63
3029.07
3030.54
3032.71
3034.94
3037.82
3040.77
3044.31
3047.95
3052.12
3056.4
3061.16
3066.05
3071.35
3076.79
3082.57
3088.5
3094.71
3101.06
3107.64
3114.33
3121.2
3128.18
3135.29
3142.49
3149.79
3157.19
3164.69
3172.28
3179.96
3187.75
3195.63
3203.63
3211.73
3219.98
3228.35
3236.92
3245.65
3254.61
3263.91
3273.29
3283.24
3293.62
3303.29
3315.47
3326.55
3333.93
3352.39
3362.11
3346.88
3379.57
3465.43
3462.74
3399.03
3424.68
3558.22
3669.19
3730.45
3717.32
3578.5
3473.66
3489.95
3570.67
3661.97
3745.2
3817.56
3866.09
3879.54
3872.74
3827.5
3742.63
3674.96
3635.11
3623.26
3629.4
3663.38
3731.15
3756.78
3816.19
3756.11
3610.69
3044.47
3033.22
3028.43
3027.09
3026.88
3026.56
3027
3027.63
3029.07
3030.54
3032.71
3034.94
3037.82
3040.77
3044.31
3047.95
3052.12
3056.41
3061.16
3066.05
3071.35
3076.79
3082.58
3088.5
3094.71
3101.06
3107.64
3114.33
3121.2
3128.18
3135.29
3142.49
3149.79
3157.19
3164.69
3172.28
3179.96
3187.75
3195.63
3203.62
3211.73
3219.97
3228.35
3236.91
3245.64
3254.6
3263.89
3273.27
3283.2
3293.57
3303.27
3315.37
3326.46
3333.99
3352.15
3361.71
3348.37
3380.9
3463.2
3460.55
3401.21
3427.08
3557.85
3667.57
3726.34
3709.24
3570.13
3475.05
3491.62
3572.36
3662.59
3744.69
3817.07
3865.86
3879.64
3871.91
3818.21
3732.85
3670.01
3631.5
3621
3626.95
3660.59
3725.89
3767.8
3817.37
3795.61
3713.01
3044.46
3033.24
3028.44
3027.1
3026.89
3026.56
3027
3027.64
3029.07
3030.54
3032.71
3034.94
3037.82
3040.77
3044.31
3047.95
3052.12
3056.41
3061.16
3066.05
3071.35
3076.79
3082.58
3088.5
3094.71
3101.06
3107.64
3114.33
3121.2
3128.18
3135.29
3142.49
3149.8
3157.19
3164.69
3172.28
3179.96
3187.74
3195.63
3203.62
3211.73
3219.97
3228.34
3236.9
3245.63
3254.57
3263.86
3273.24
3283.14
3293.5
3303.23
3315.21
3326.34
3334.06
3351.73
3361.34
3350.44
3382.47
3460.07
3457.94
3404.81
3431.48
3557.84
3664.19
3720.23
3698.64
3563.01
3479.28
3496.37
3575.83
3664.26
3744.93
3817.15
3865.53
3879.89
3869.21
3807.95
3723.26
3664.96
3629.43
3619.36
3626.27
3661.02
3724.94
3782.55
3814.87
3845.96
3837.52
3044.45
3033.27
3028.45
3027.1
3026.89
3026.56
3027
3027.64
3029.07
3030.54
3032.71
3034.94
3037.82
3040.77
3044.31
3047.95
3052.12
3056.41
3061.16
3066.05
3071.35
3076.79
3082.58
3088.5
3094.71
3101.06
3107.64
3114.33
3121.2
3128.18
3135.29
3142.49
3149.8
3157.19
3164.69
3172.28
3179.96
3187.74
3195.63
3203.62
3211.72
3219.96
3228.33
3236.88
3245.61
3254.54
3263.82
3273.2
3283.07
3293.41
3303.18
3314.99
3326.19
3334.16
3351.14
3361.09
3353.07
3383.98
3455.97
3455.36
3410.23
3438
3557.77
3658.29
3711.06
3685.57
3558.56
3487.28
3505.13
3581.73
3667.18
3745.99
3817.02
3864.09
3878.81
3863.43
3797.41
3714.85
3659.64
3627.01
3619.06
3628.77
3664.83
3724.9
3784.3
3824.13
3876.26
3884.78
3044.43
3033.3
3028.46
3027.11
3026.89
3026.57
3027
3027.64
3029.07
3030.54
3032.71
3034.94
3037.82
3040.77
3044.31
3047.95
3052.12
3056.41
3061.16
3066.06
3071.35
3076.79
3082.58
3088.5
3094.72
3101.06
3107.64
3114.33
3121.21
3128.18
3135.29
3142.49
3149.8
3157.19
3164.69
3172.27
3179.96
3187.74
3195.62
3203.61
3211.71
3219.95
3228.31
3236.86
3245.58
3254.51
3263.76
3273.14
3282.97
3293.29
3303.1
3314.74
3326
3334.26
3350.43
3360.94
3356.06
3385.38
3451.18
3453.17
3417.31
3446
3557.14
3649.27
3697.98
3670.66
3558.05
3499.76
3518.51
3590.42
3671.35
3747.08
3815.49
3860.17
3873.84
3853.26
3786.38
3708.45
3655.97
3625.99
3621.12
3634.58
3671.6
3727.72
3788.46
3831.42
3873.4
3879.72
3044.41
3033.34
3028.47
3027.11
3026.9
3026.57
3027.01
3027.64
3029.07
3030.54
3032.71
3034.94
3037.82
3040.77
3044.31
3047.95
3052.12
3056.41
3061.16
3066.06
3071.35
3076.79
3082.58
3088.51
3094.72
3101.06
3107.64
3114.33
3121.21
3128.18
3135.29
3142.49
3149.8
3157.19
3164.69
3172.27
3179.96
3187.74
3195.62
3203.61
3211.71
3219.93
3228.3
3236.83
3245.55
3254.46
3263.69
3273.07
3282.86
3293.14
3303
3314.44
3325.76
3334.35
3349.68
3360.85
3359.2
3386.69
3446
3451.23
3425.12
3454.42
3555.39
3637.24
3681.03
3655.08
3562.33
3517.42
3536.89
3601.93
3676.16
3746.97
3810.3
3851.79
3862.7
3838
3774.35
3703.68
3655.24
3628.8
3626.97
3643.72
3680.66
3731.95
3787.17
3827.91
3862.06
3876.63
3044.38
3033.39
3028.49
3027.12
3026.91
3026.57
3027.01
3027.64
3029.08
3030.55
3032.72
3034.94
3037.82
3040.77
3044.32
3047.95
3052.12
3056.41
3061.17
3066.06
3071.36
3076.8
3082.58
3088.51
3094.72
3101.06
3107.64
3114.34
3121.21
3128.18
3135.29
3142.49
3149.8
3157.19
3164.69
3172.27
3179.96
3187.74
3195.62
3203.6
3211.69
3219.92
3228.27
3236.8
3245.5
3254.4
3263.61
3272.97
3282.72
3292.95
3302.85
3314.09
3325.46
3334.4
3348.9
3360.74
3362.34
3387.91
3440.51
3449.23
3432.69
3462.43
3552.11
3623.12
3661.39
3640.14
3571.01
3539.65
3559.15
3615.2
3680.27
3743.65
3799.42
3836.24
3843.78
3817.65
3761.15
3700.25
3657.98
3636.64
3637.94
3656.98
3692.49
3737.9
3786.29
3824.91
3855
3873.73
3044.35
3033.44
3028.5
3027.13
3026.91
3026.58
3027.01
3027.65
3029.08
3030.55
3032.72
3034.94
3037.82
3040.78
3044.32
3047.95
3052.12
3056.41
3061.17
3066.06
3071.36
3076.8
3082.58
3088.51
3094.72
3101.07
3107.64
3114.34
3121.21
3128.18
3135.29
3142.49
3149.8
3157.19
3164.69
3172.27
3179.96
3187.73
3195.61
3203.59
3211.68
3219.9
3228.24
3236.75
3245.45
3254.32
3263.5
3272.85
3282.54
3292.72
3302.66
3313.7
3325.07
3334.39
3348.13
3360.57
3365.29
3388.98
3434.84
3447.02
3439.45
3469.32
3547.26
3608.04
3640.6
3626.24
3580.69
3562.04
3580.94
3627.15
3681.64
3735.19
3781.43
3811.86
3817.01
3793.46
3747.73
3699.2
3665.58
3650.73
3655.63
3676.07
3708.9
3748.47
3789.53
3823.9
3850.84
3868.41
3044.32
3033.51
3028.53
3027.14
3026.92
3026.58
3027.02
3027.65
3029.08
3030.55
3032.72
3034.95
3037.82
3040.78
3044.32
3047.96
3052.13
3056.41
3061.17
3066.06
3071.36
3076.8
3082.58
3088.51
3094.72
3101.07
3107.64
3114.34
3121.21
3128.19
3135.29
3142.49
3149.8
3157.19
3164.69
3172.27
3179.95
3187.73
3195.6
3203.58
3211.66
3219.87
3228.2
3236.7
3245.37
3254.23
3263.37
3272.69
3282.33
3292.43
3302.4
3313.24
3324.57
3334.27
3347.38
3360.31
3367.86
3389.78
3429.19
3444.48
3444.92
3474.53
3540.7
3592.25
3619.35
3612.52
3586.84
3579.06
3597.35
3634.64
3678.55
3721.33
3757.21
3780.5
3784.71
3767.83
3736.34
3703.3
3681.25
3674.27
3682.87
3703.67
3732.95
3766.09
3799.6
3828.76
3853.05
3871.02
3044.28
3033.58
3028.55
3027.15
3026.93
3026.59
3027.02
3027.65
3029.09
3030.55
3032.72
3034.95
3037.83
3040.78
3044.32
3047.96
3052.13
3056.41
3061.17
3066.06
3071.36
3076.8
3082.59
3088.51
3094.73
3101.07
3107.65
3114.34
3121.22
3128.19
3135.3
3142.49
3149.8
3157.19
3164.69
3172.27
3179.95
3187.72
3195.59
3203.56
3211.64
3219.83
3228.15
3236.63
3245.28
3254.1
3263.2
3272.49
3282.05
3292.07
3302.04
3312.7
3323.95
3334.01
3346.62
3359.88
3369.84
3390.19
3423.74
3441.46
3448.63
3477.48
3532.34
3575.48
3598.02
3598.26
3587.8
3588.54
3606.18
3636.11
3670.56
3703.64
3730.69
3748.21
3753.01
3744.89
3728.94
3712.9
3704.08
3705.44
3717.06
3736.69
3761.57
3788.58
3815.68
3840.43
3862.7
3881.35
3044.23
3033.67
3028.58
3027.16
3026.94
3026.6
3027.03
3027.66
3029.09
3030.56
3032.73
3034.95
3037.83
3040.78
3044.33
3047.96
3052.13
3056.42
3061.18
3066.07
3071.37
3076.8
3082.59
3088.52
3094.73
3101.08
3107.65
3114.35
3121.22
3128.19
3135.3
3142.5
3149.8
3157.2
3164.69
3172.27
3179.95
3187.72
3195.58
3203.54
3211.6
3219.78
3228.09
3236.54
3245.15
3253.94
3262.98
3272.22
3281.7
3291.61
3301.57
3312.05
3323.17
3333.54
3345.79
3359.22
3371.02
3390.02
3418.53
3437.77
3450.13
3477.63
3522.24
3557.91
3577.36
3583.43
3583.81
3590.57
3607.36
3631.46
3658.15
3683.47
3704.27
3718.59
3725.36
3725.29
3721.86
3719.36
3721.39
3729.44
3743.44
3762.01
3783.63
3806.47
3829.52
3851.52
3872.49
3891.77
3044.18
3033.76
3028.61
3027.18
3026.95
3026.6
3027.03
3027.66
3029.09
3030.56
3032.73
3034.95
3037.84
3040.78
3044.33
3047.96
3052.14
3056.42
3061.18
3066.07
3071.37
3076.81
3082.6
3088.52
3094.74
3101.08
3107.66
3114.35
3121.22
3128.19
3135.3
3142.5
3149.81
3157.2
3164.69
3172.27
3179.94
3187.71
3195.56
3203.51
3211.56
3219.72
3228
3236.41
3244.99
3253.73
3262.69
3271.86
3281.26
3291.03
3300.93
3311.24
3322.18
3332.79
3344.78
3358.2
3371.21
3389.02
3413.4
3433.16
3448.99
3474.54
3510.51
3539.92
3557.49
3567.68
3574.95
3585.41
3601.19
3620.85
3641.73
3661.46
3678.3
3691.3
3700.38
3706.36
3711.22
3717.16
3725.94
3738.21
3753.85
3772.09
3792.09
3812.91
3833.98
3854.7
3874.99
3894.61
3044.12
3033.86
3028.65
3027.2
3026.97
3026.61
3027.04
3027.67
3029.1
3030.56
3032.74
3034.96
3037.84
3040.79
3044.34
3047.97
3052.14
3056.42
3061.19
3066.07
3071.38
3076.81
3082.61
3088.52
3094.74
3101.08
3107.67
3114.36
3121.23
3128.2
3135.31
3142.5
3149.81
3157.2
3164.69
3172.27
3179.94
3187.69
3195.53
3203.47
3211.5
3219.63
3227.88
3236.25
3244.77
3253.45
3262.32
3271.39
3280.67
3290.28
3300.07
3310.2
3320.92
3331.65
3343.42
3356.62
3370.21
3386.91
3407.98
3427.3
3444.8
3467.96
3496.99
3521.38
3537.64
3550.14
3561.11
3573.37
3588.04
3604.52
3621.47
3637.66
3652.28
3665
3676
3685.9
3695.72
3706.45
3718.86
3733.23
3749.47
3767.19
3785.96
3805.29
3824.85
3844.34
3863.6
3882.52
3044.05
3033.97
3028.7
3027.22
3026.98
3026.62
3027.05
3027.67
3029.11
3030.57
3032.74
3034.96
3037.85
3040.79
3044.34
3047.97
3052.15
3056.43
3061.2
3066.08
3071.39
3076.82
3082.61
3088.53
3094.75
3101.09
3107.68
3114.36
3121.24
3128.2
3135.32
3142.51
3149.81
3157.2
3164.69
3172.26
3179.92
3187.67
3195.5
3203.41
3211.42
3219.52
3227.72
3236.04
3244.48
3253.07
3261.83
3270.78
3279.91
3289.31
3298.94
3308.85
3319.29
3329.96
3341.46
3354.23
3367.76
3383.3
3401.64
3419.73
3437.24
3457.71
3481.22
3501.58
3516.56
3529.75
3542.07
3554.71
3568.23
3582.46
3596.83
3610.82
3624.13
3636.69
3648.68
3660.45
3672.47
3685.14
3698.76
3713.41
3729.03
3745.43
3762.39
3779.66
3797.06
3814.4
3831.56
3848.38
3043.98
3034.08
3028.75
3027.23
3027
3026.64
3027.06
3027.68
3029.12
3030.57
3032.75
3034.96
3037.86
3040.79
3044.35
3047.97
3052.16
3056.43
3061.21
3066.08
3071.4
3076.82
3082.63
3088.53
3094.77
3101.09
3107.69
3114.36
3121.25
3128.21
3135.32
3142.51
3149.82
3157.2
3164.68
3172.24
3179.9
3187.63
3195.44
3203.33
3211.31
3219.36
3227.51
3235.75
3244.1
3252.58
3261.19
3269.97
3278.9
3288.06
3297.43
3307.06
3317.13
3327.53
3338.61
3350.69
3363.59
3377.78
3393.68
3409.87
3426.04
3443.57
3462.53
3479.42
3492.81
3505.43
3517.47
3529.41
3541.56
3553.91
3566.28
3578.51
3590.51
3602.3
3613.98
3625.72
3637.69
3650.02
3662.81
3676.07
3689.73
3703.7
3717.87
3732.1
3746.3
3760.34
3774.15
3787.55
3043.91
3034.19
3028.79
3027.25
3027.02
3026.65
3027.07
3027.68
3029.13
3030.57
3032.76
3034.96
3037.87
3040.79
3044.36
3047.97
3052.17
3056.43
3061.22
3066.07
3071.41
3076.82
3082.64
3088.53
3094.78
3101.09
3107.7
3114.36
3121.26
3128.2
3135.33
3142.5
3149.82
3157.19
3164.67
3172.22
3179.87
3187.57
3195.37
3203.22
3211.15
3219.15
3227.22
3235.36
3243.6
3251.92
3260.35
3268.9
3277.58
3286.42
3295.45
3304.67
3314.24
3324.13
3334.52
3345.61
3357.36
3369.87
3383.32
3397.08
3410.89
3425.17
3440.03
3453.6
3464.92
3475.95
3486.53
3496.86
3507.12
3517.36
3527.55
3537.65
3547.64
3557.55
3567.42
3577.31
3587.27
3597.32
3607.49
3617.75
3628.08
3638.4
3648.67
3658.83
3668.82
3678.59
3688.1
3697.2
3043.87
3034.25
3028.82
3027.26
3027.03
3026.65
3027.08
3027.68
3029.13
3030.57
3032.77
3034.96
3037.87
3040.78
3044.37
3047.96
3052.18
3056.41
3061.23
3066.06
3071.42
3076.8
3082.65
3088.52
3094.78
3101.08
3107.7
3114.35
3121.26
3128.19
3135.33
3142.48
3149.81
3157.16
3164.65
3172.18
3179.82
3187.5
3195.27
3203.08
3210.96
3218.89
3226.88
3234.91
3243.01
3251.17
3259.39
3267.69
3276.06
3284.54
3293.14
3301.88
3310.83
3320.02
3329.52
3339.44
3349.75
3360.44
3371.53
3382.71
3393.79
3404.85
3416
3426.4
3435.39
3444.24
3452.69
3460.81
3468.74
3476.53
3484.17
3491.66
3499.03
3506.26
3513.39
3520.43
3527.4
3534.29
3541.11
3547.83
3554.45
3560.93
3567.26
3573.39
3579.34
3585.06
3590.55
3595.7
3043.84
3034.28
3028.83
3027.26
3027.04
3026.65
3027.08
3027.67
3029.14
3030.56
3032.77
3034.95
3037.88
3040.77
3044.38
3047.94
3052.19
3056.4
3061.24
3066.04
3071.43
3076.78
3082.65
3088.5
3094.79
3101.06
3107.71
3114.33
3121.26
3128.17
3135.32
3142.46
3149.8
3157.13
3164.63
3172.13
3179.76
3187.41
3195.16
3202.93
3210.77
3218.63
3226.53
3234.46
3242.42
3250.4
3258.41
3266.45
3274.53
3282.63
3290.8
3299.01
3307.32
3315.74
3324.3
3333.02
3341.88
3350.8
3359.75
3368.52
3376.97
3385.07
3392.94
3400.43
3407.12
3413.7
3419.87
3425.67
3431.19
3436.47
3441.54
3446.39
3451.04
3455.5
3459.78
3463.89
3467.83
3471.62
3475.24
3478.7
3482
3485.13
3488.09
3490.88
3493.51
3495.97
3498.26
3500.31
3043.84
3034.28
3028.83
3027.26
3027.04
3026.64
3027.08
3027.66
3029.14
3030.55
3032.78
3034.93
3037.89
3040.75
3044.39
3047.93
3052.2
3056.38
3061.25
3066.02
3071.44
3076.76
3082.66
3088.47
3094.8
3101.03
3107.71
3114.3
3121.26
3128.14
3135.32
3142.43
3149.78
3157.09
3164.6
3172.07
3179.71
3187.32
3195.05
3202.77
3210.57
3218.35
3226.18
3233.98
3241.81
3249.62
3257.43
3265.2
3272.97
3280.7
3288.41
3296.08
3303.74
3311.36
3318.95
3326.48
3333.9
3341.12
3348.07
3354.59
3360.55
3365.87
3370.69
3375.44
3379.89
3384.22
3388.11
3391.57
3394.68
3397.5
3400.04
3402.3
3404.31
3406.08
3407.62
3408.95
3410.09
3411.03
3411.81
3412.42
3412.89
3413.21
3413.42
3413.51
3413.51
3413.42
3413.27
3412.98
3043.85
3034.24
3028.81
3027.25
3027.03
3026.63
3027.09
3027.65
3029.15
3030.54
3032.79
3034.92
3037.89
3040.73
3044.39
3047.9
3052.21
3056.35
3061.25
3065.99
3071.44
3076.72
3082.67
3088.44
3094.8
3100.99
3107.72
3114.26
3121.27
3128.1
3135.32
3142.38
3149.77
3157.03
3164.57
3172
3179.65
3187.21
3194.94
3202.6
3210.37
3218.07
3225.83
3233.51
3241.22
3248.84
3256.45
3263.97
3271.43
3278.79
3286.06
3293.19
3300.2
3307.04
3313.68
3320.06
3326.13
3331.77
3336.88
3341.33
3344.99
3347.76
3349.8
3352.02
3354.38
3356.58
3358.31
3359.57
3360.44
3360.97
3361.17
3361.06
3360.68
3360.02
3359.14
3358.03
3356.74
3355.27
3353.66
3351.93
3350.09
3348.18
3346.21
3344.21
3342.21
3340.21
3338.25
3336.26
3043.89
3034.16
3028.78
3027.24
3027.02
3026.62
3027.08
3027.64
3029.15
3030.52
3032.79
3034.9
3037.9
3040.71
3044.4
3047.87
3052.21
3056.32
3061.26
3065.95
3071.45
3076.68
3082.68
3088.39
3094.81
3100.95
3107.73
3114.21
3121.27
3128.04
3135.32
3142.32
3149.76
3156.97
3164.54
3171.91
3179.59
3187.09
3194.84
3202.42
3210.18
3217.78
3225.49
3233.04
3240.65
3248.09
3255.52
3262.77
3269.95
3276.94
3283.79
3290.4
3296.79
3302.87
3308.62
3313.95
3318.77
3322.97
3326.43
3329.01
3330.59
3331.05
3330.58
3330.51
3330.97
3331.25
3331.02
3330.29
3329.14
3327.61
3325.73
3323.54
3321.06
3318.31
3315.34
3312.18
3308.85
3305.4
3301.85
3298.24
3294.59
3290.94
3287.33
3283.76
3280.29
3276.92
3273.68
3270.51
3043.95
3034.06
3028.73
3027.22
3027
3026.6
3027.08
3027.62
3029.15
3030.5
3032.79
3034.87
3037.9
3040.68
3044.41
3047.84
3052.22
3056.28
3061.27
3065.91
3071.46
3076.63
3082.69
3088.34
3094.82
3100.89
3107.73
3114.15
3121.28
3127.98
3135.33
3142.25
3149.76
3156.88
3164.53
3171.82
3179.55
3186.97
3194.76
3202.24
3210.02
3217.51
3225.21
3232.62
3240.16
3247.42
3254.72
3261.73
3268.69
3275.35
3281.85
3288
3293.89
3299.34
3304.36
3308.82
3312.64
3315.68
3317.83
3318.93
3318.85
3317.48
3315.01
3313.13
3312.08
3310.84
3309.07
3306.78
3304.05
3300.93
3297.45
3293.66
3289.58
3285.25
3280.72
3276.02
3271.2
3266.3
3261.36
3256.41
3251.49
3246.64
3241.9
3237.28
3232.84
3228.57
3224.52
3220.62
3044.01
3033.94
3028.68
3027.19
3026.99
3026.58
3027.07
3027.6
3029.15
3030.48
3032.79
3034.85
3037.91
3040.66
3044.41
3047.81
3052.22
3056.24
3061.27
3065.87
3071.47
3076.59
3082.69
3088.28
3094.83
3100.83
3107.75
3114.09
3121.3
3127.91
3135.34
3142.18
3149.77
3156.81
3164.53
3171.72
3179.53
3186.85
3194.7
3202.09
3209.91
3217.29
3225
3232.29
3239.8
3246.9
3254.12
3260.92
3267.74
3274.12
3280.39
3286.18
3291.71
3296.67
3301.18
3305
3308.11
3310.32
3311.54
3311.6
3310.34
3307.68
3303.79
3300.62
3298.52
3296.2
3293.36
3289.99
3286.17
3281.95
3277.37
3272.48
3267.31
3261.9
3256.31
3250.58
3244.75
3238.88
3233.01
3227.18
3221.44
3215.82
3210.35
3205.08
3200.03
3195.24
3190.7
3186.39
3044.07
3033.83
3028.64
3027.17
3026.97
3026.56
3027.07
3027.59
3029.14
3030.46
3032.79
3034.83
3037.91
3040.64
3044.41
3047.79
3052.23
3056.21
3061.28
3065.83
3071.48
3076.55
3082.7
3088.24
3094.84
3100.78
3107.76
3114.04
3121.31
3127.85
3135.36
3142.12
3149.79
3156.73
3164.53
3171.64
3179.53
3186.75
3194.67
3201.95
3209.84
3217.1
3224.86
3232.01
3239.55
3246.48
3253.69
3260.29
3267.04
3273.18
3279.31
3284.8
3290.1
3294.68
3298.84
3302.17
3304.79
3306.42
3306.99
3306.31
3304.22
3300.64
3295.74
3291.67
3288.82
3285.77
3282.19
3278.07
3273.5
3268.53
3263.2
3257.55
3251.62
3245.48
3239.15
3232.71
3226.19
3219.65
3213.14
3206.71
3200.4
3194.25
3188.3
3182.58
3177.13
3171.98
3167.14
3162.56
3044.13
3033.73
3028.6
3027.15
3026.96
3026.55
3027.06
3027.57
3029.14
3030.45
3032.79
3034.82
3037.91
3040.62
3044.41
3047.76
3052.23
3056.19
3061.29
3065.8
3071.48
3076.51
3082.71
3088.2
3094.85
3100.74
3107.77
3113.99
3121.33
3127.8
3135.37
3142.06
3149.8
3156.67
3164.55
3171.56
3179.53
3186.66
3194.66
3201.84
3209.8
3216.94
3224.77
3231.79
3239.37
3246.15
3253.37
3259.8
3266.53
3272.45
3278.52
3283.75
3288.91
3293.17
3297.12
3300.07
3302.38
3303.58
3303.71
3302.51
3299.84
3295.61
3289.98
3285.27
3281.91
3278.35
3274.27
3269.65
3264.57
3259.08
3253.23
3247.07
3240.63
3233.97
3227.14
3220.19
3213.19
3206.18
3199.22
3192.36
3185.64
3179.12
3172.82
3166.8
3161.07
3155.67
3150.62
3145.86
3044.18
3033.63
3028.56
3027.14
3026.94
3026.54
3027.06
3027.56
3029.14
3030.44
3032.79
3034.81
3037.91
3040.6
3044.42
3047.75
3052.23
3056.17
3061.29
3065.78
3071.49
3076.49
3082.72
3088.17
3094.86
3100.71
3107.78
3113.95
3121.34
3127.76
3135.39
3142.01
3149.82
3156.61
3164.56
3171.5
3179.54
3186.58
3194.66
3201.74
3209.77
3216.81
3224.71
3231.6
3239.25
3245.88
3253.15
3259.41
3266.16
3271.89
3277.94
3282.94
3288.05
3292.04
3295.87
3298.52
3300.64
3301.51
3301.35
3299.79
3296.71
3292.02
3285.87
3280.71
3276.98
3273.08
3268.67
3263.71
3258.28
3252.44
3246.24
3239.71
3232.92
3225.9
3218.72
3211.42
3204.07
3196.72
3189.43
3182.25
3175.23
3168.43
3161.88
3155.62
3149.68
3144.1
3138.88
3133.99
3044.23
3033.54
3028.53
3027.12
3026.93
3026.53
3027.05
3027.56
3029.14
3030.43
3032.79
3034.8
3037.91
3040.59
3044.42
3047.74
3052.24
3056.15
3061.29
3065.76
3071.49
3076.47
3082.72
3088.15
3094.87
3100.68
3107.79
3113.92
3121.35
3127.73
3135.41
3141.97
3149.84
3156.57
3164.57
3171.44
3179.55
3186.52
3194.66
3201.66