/*--------------------------------*- C++ -*----------------------------------*\
| =========                 |                                                 |
| \\      /  F ield         | OpenFOAM: The Open Source CFD Toolbox           |
|  \\    /   O peration     | Version:  2306                                  |
|   \\  /    A nd           | Website:  www.openfoam.com                      |
|    \\/     M anipulation  |                                                 |
\*---------------------------------------------------------------------------*/
FoamFile
{
    version     2.0;
    format      ascii;
    arch        "LSB;label=32;scalar=64";
    class       surfaceScalarField;
    location    "1700";
    object      phi;
}
// * * * * * * * * * * * * * * * * * * * * * * * * * * * * * * * * * * * * * //

dimensions      [0 3 -1 0 0 0 0];

oriented        oriented;

internalField   nonuniform List<scalar> 
40747
(
1.75406e-05
-2.65993e-06
7.49525e-06
1.00464e-05
2.11873e-05
-5.845e-06
1.52919e-05
1.33937e-05
2.55278e-05
-9.59446e-06
2.31039e-05
1.77213e-05
3.06424e-05
-1.38902e-05
3.05406e-05
2.32148e-05
3.65933e-05
-1.86101e-05
3.71112e-05
3.00367e-05
4.34179e-05
-2.34684e-05
4.22621e-05
3.8288e-05
5.11433e-05
-2.7963e-05
4.54677e-05
4.79676e-05
5.98478e-05
-3.1376e-05
4.63975e-05
5.89593e-05
6.98135e-05
-3.29154e-05
4.51532e-05
7.11141e-05
8.1776e-05
-3.20941e-05
4.24845e-05
8.45199e-05
9.71087e-05
-2.92779e-05
3.97374e-05
9.99547e-05
0.000117511
-2.59024e-05
3.82216e-05
0.000119153
0.000143981
-2.36409e-05
3.81949e-05
0.000144166
0.000176207
-2.29312e-05
3.86719e-05
0.000175923
0.000213954
-2.28617e-05
3.87181e-05
0.000214144
0.000258708
-2.26568e-05
3.8326e-05
0.000259388
0.000312831
-2.22717e-05
3.7783e-05
0.000313726
0.000378437
-2.18004e-05
3.71465e-05
0.000379503
0.000457813
-2.12365e-05
3.63775e-05
0.000459104
0.000553839
-2.05638e-05
3.54547e-05
0.000555394
0.000670013
-1.97676e-05
3.43559e-05
0.000671878
0.000810561
-1.88319e-05
3.30527e-05
0.000812795
0.0009806
-1.77405e-05
3.15117e-05
0.000983269
0.00118632
-1.64791e-05
2.96945e-05
0.0011895
0.00143521
-1.50365e-05
2.75565e-05
0.001439
0.00173633
-1.34066e-05
2.50454e-05
0.00174084
0.00210064
-1.15901e-05
2.20985e-05
0.00210599
0.00254141
-9.64063e-06
1.8542e-05
0.00254776
0.00307467
-7.65744e-06
1.39916e-05
0.00308219
0.00371981
-5.68816e-06
8.27616e-06
0.00372874
0.0035644
-3.71889e-06
3.36798e-06
0.00357285
0.0035645
-1.74124e-06
-1.33948e-06
0.0035729
0.00356451
2.51335e-07
-6.04035e-06
0.00357291
0.00356442
2.22386e-06
-1.10742e-05
0.00357289
0.00360701
4.26762e-06
-1.65775e-05
0.00361569
0.00300043
6.43646e-06
-2.08808e-05
0.00300779
0.00249585
8.60468e-06
-2.43093e-05
0.0025021
0.00207613
1.06785e-05
-2.70854e-05
0.00208143
0.001727
1.25988e-05
-2.93631e-05
0.00173149
0.00143658
1.43343e-05
-3.12509e-05
0.00144039
0.00119502
1.58743e-05
-3.28271e-05
0.00119824
0.00099408
1.72217e-05
-3.41495e-05
0.000996795
0.000826935
1.83875e-05
-3.52624e-05
0.000829221
0.000687899
1.93878e-05
-3.61993e-05
0.000689821
0.000572243
2.024e-05
-3.69844e-05
0.000573857
0.000476036
2.09616e-05
-3.76415e-05
0.000477387
0.000396008
2.15671e-05
-3.81853e-05
0.00039713
0.000329429
2.20791e-05
-3.86448e-05
0.000330369
0.000274096
2.24587e-05
-3.90315e-05
0.000274881
0.000228183
2.26098e-05
-3.91668e-05
0.000228647
0.000189691
2.28678e-05
-3.87962e-05
0.000189594
0.000156696
2.41881e-05
-3.83141e-05
0.000156442
0.000128636
2.70037e-05
-3.87947e-05
0.000129305
0.000106022
3.03331e-05
-4.07677e-05
0.000108148
8.87301e-05
3.25685e-05
-4.35482e-05
9.16314e-05
7.55384e-05
3.26995e-05
-4.58258e-05
7.79104e-05
6.49668e-05
3.06774e-05
-4.65038e-05
6.5718e-05
5.59688e-05
2.70681e-05
-4.50687e-05
5.45896e-05
4.80237e-05
2.2599e-05
-4.15401e-05
4.45372e-05
4.09407e-05
1.78884e-05
-3.62683e-05
3.57e-05
3.46682e-05
1.33579e-05
-2.97427e-05
2.81646e-05
2.91835e-05
9.24461e-06
-2.246e-05
2.19172e-05
2.4452e-05
5.64913e-06
-1.48548e-05
1.68615e-05
2.04173e-05
2.57993e-06
-7.28242e-06
1.28523e-05
1.7009e-05
9.72659e-06
7.21531e-07
9.3268e-06
3.68618e-07
3.54426e-07
2.93796e-07
7.63216e-08
2.5516e-07
3.95647e-08
2.30779e-07
2.53677e-08
2.13276e-07
1.80253e-08
1.99853e-07
1.42147e-08
1.89035e-07
1.11911e-08
1.80282e-07
9.48422e-09
1.72864e-07
7.7158e-09
1.66578e-07
6.91487e-09
1.61023e-07
5.75451e-09
1.56189e-07
5.31964e-09
1.51799e-07
4.46415e-09
1.47895e-07
4.21135e-09
1.44267e-07
3.54789e-09
1.40979e-07
3.38347e-09
1.37869e-07
2.84492e-09
1.35005e-07
2.71546e-09
1.32261e-07
2.26511e-09
1.29702e-07
2.14362e-09
1.27228e-07
1.76094e-09
1.24894e-07
1.63488e-09
1.22628e-07
1.30589e-09
1.20472e-07
1.16971e-09
1.18377e-07
8.85448e-10
1.16375e-07
7.45027e-10
1.14432e-07
5.09757e-10
1.12564e-07
3.87577e-10
1.10742e-07
2.16663e-10
1.08966e-07
1.34291e-10
1.07206e-07
3.09104e-11
1.05451e-07
-1.66823e-11
1.03676e-07
-7.42415e-11
1.01866e-07
-1.09987e-10
1.00005e-07
-1.44398e-10
9.80696e-08
-1.72106e-10
9.60405e-08
-1.76899e-10
9.38823e-08
-1.68007e-10
9.15534e-08
-1.04014e-10
8.90111e-08
-2.09229e-11
8.61619e-08
1.74122e-10
8.29682e-08
3.814e-10
7.93266e-08
7.16127e-10
7.49952e-08
1.26044e-09
7.02774e-08
1.53607e-09
6.43889e-08
2.56052e-09
5.74448e-08
3.48336e-09
5.10422e-08
2.8422e-09
4.02963e-08
7.004e-09
2.99895e-08
6.40314e-09
2.64895e-08
-7.38889e-10
-2.00115e-10
2.22079e-08
-1.08833e-08
4.69197e-09
2.65329e-08
-4.19692e-08
-5.32138e-08
7.23998e-08
-2.32847e-07
1.73943e-07
-1.30952e-07
-1.10716e-07
1.67336e-07
-3.08263e-07
5.72048e-08
9.20604e-08
-4.20192e-07
4.71789e-07
-6.4519e-07
2.12357e-07
-2.45753e-07
-3.90331e-07
2.05077e-07
-4.45009e-07
9.1129e-07
-7.20441e-07
1.47212e-06
-5.73175e-07
9.07567e-07
5.25066e-07
-3.58973e-07
1.23312e-06
-9.34644e-07
5.93485e-07
-9.08049e-07
-1.02463e-08
-7.11077e-07
-1.30554e-07
-3.89699e-07
-2.63392e-07
7.98017e-08
-4.12842e-07
5.43329e-07
-4.24817e-07
8.27452e-07
-2.91531e-07
1.1146e-06
-2.98741e-07
1.44805e-06
-3.71536e-07
1.4139e-06
-2.66177e-08
6.8864e-07
6.52283e-07
-1.23875e-07
7.01401e-07
-5.72455e-07
3.55046e-07
-9.48848e-07
3.44611e-07
-1.08109e-06
1.38313e-07
-6.16879e-07
-4.36421e-07
-3.90137e-07
-1.95085e-07
-8.56943e-07
5.73454e-07
-7.93581e-07
-2.60591e-08
-3.67347e-06
2.96779e-06
2.64063e-06
2.00858e-05
1.42869e-06
1.57086e-06
1.13842e-06
3.71087e-07
9.88773e-07
1.91979e-07
8.94091e-07
1.23048e-07
8.2612e-07
8.7575e-08
7.73938e-07
6.88325e-08
7.31957e-07
5.43136e-08
6.97865e-07
4.58172e-08
6.69058e-07
3.74237e-08
6.44551e-07
3.33371e-08
6.22977e-07
2.7922e-08
6.04109e-07
2.56537e-08
5.87049e-07
2.17241e-08
5.71793e-07
2.0375e-08
5.57688e-07
1.73679e-08
5.44834e-07
1.64838e-08
5.32747e-07
1.40682e-08
5.21558e-07
1.33912e-08
5.10911e-07
1.13851e-08
5.00927e-07
1.0783e-08
4.9135e-07
9.08469e-09
4.82272e-07
8.49331e-09
4.73522e-07
7.03674e-09
4.65161e-07
6.42534e-09
4.5709e-07
5.16977e-09
4.49347e-07
4.55631e-09
4.41874e-07
3.51637e-09
4.34669e-07
2.98604e-09
4.27682e-07
2.22118e-09
4.20865e-07
1.85637e-09
4.14157e-07
1.37846e-09
4.07484e-07
1.15918e-09
4.00788e-07
8.85066e-10
3.93991e-07
7.27364e-10
3.87042e-07
5.75979e-10
3.79846e-07
4.80645e-10
3.72328e-07
4.91429e-10
3.6434e-07
5.98033e-10
3.5574e-07
9.44215e-10
3.46331e-07
1.43389e-09
3.35799e-07
2.4076e-09
3.24003e-07
3.45333e-09
3.10386e-07
5.26108e-09
2.94573e-07
7.55008e-09
2.76777e-07
9.46357e-09
2.54719e-07
1.43008e-08
2.3055e-07
1.69036e-08
2.02895e-07
1.94543e-08
1.67083e-07
3.12088e-08
1.31785e-07
2.94655e-08
9.84654e-08
1.91271e-08
3.24571e-08
7.42882e-08
4.0472e-09
1.39473e-08
1.10786e-08
-6.31031e-08
-9.86431e-08
1.60029e-07
-6.26885e-07
6.83831e-07
-6.35779e-07
-1.31194e-07
1.49725e-07
-1.12421e-06
4.98036e-07
-3.12058e-07
-1.00081e-06
1.95737e-06
-1.90231e-06
1.08154e-06
-1.29533e-06
-9.73146e-07
1.21166e-07
-1.84613e-06
2.53849e-06
-3.18018e-06
4.66422e-06
-2.73392e-06
4.83875e-06
2.69635e-07
2.24665e-07
5.75002e-06
-2.57429e-06
3.45033e-06
-3.02347e-06
4.88871e-07
-2.28142e-06
-7.11141e-07
-1.32027e-06
-1.07299e-06
8.33599e-08
-1.68613e-06
1.79189e-06
-2.05611e-06
2.9797e-06
-1.49881e-06
3.84029e-06
-1.18958e-06
4.64491e-06
-1.25691e-06
4.70863e-06
-2.28426e-07
3.46994e-06
1.6715e-06
1.18956e-06
2.6329e-06
-1.45572e-06
2.78653e-06
-3.06057e-06
1.89403e-06
-3.01134e-06
1.05106e-07
-1.84001e-06
-1.53906e-06
-6.82109e-07
-1.2597e-06
-3.36645e-06
3.64566e-06
-9.80819e-07
-2.33083e-06
-9.99258e-06
5.64533e-06
5.54037e-06
3.22768e-05
3.16524e-06
3.9538e-06
2.52178e-06
1.02245e-06
2.19095e-06
5.27676e-07
1.98116e-06
3.38165e-07
1.83074e-06
2.40808e-07
1.71531e-06
1.88627e-07
1.62258e-06
1.4908e-07
1.54722e-06
1.25194e-07
1.48369e-06
1.02561e-07
1.42962e-06
9.08275e-08
1.38217e-06
7.64135e-08
1.34065e-06
6.97784e-08
1.30326e-06
5.94511e-08
1.2698e-06
5.54261e-08
1.23901e-06
4.76196e-08
1.21093e-06
4.49585e-08
1.18465e-06
3.87591e-08
1.16031e-06
3.67536e-08
1.13726e-06
3.16549e-08
1.11564e-06
2.9934e-08
1.09499e-06
2.56505e-08
1.07542e-06
2.4028e-08
1.05662e-06
2.03755e-08
1.03867e-06
1.87562e-08
1.02139e-06
1.56196e-08
1.00483e-06
1.40296e-08
9.88888e-07
1.14314e-08
9.73539e-07
1.00638e-08
9.58685e-07
8.14326e-09
9.44219e-07
7.19558e-09
9.30017e-07
5.98873e-09
9.15916e-07
5.42336e-09
9.01801e-07
4.74343e-09
8.87501e-07
4.3722e-09
8.7291e-07
4.0372e-09
8.57825e-07
3.87672e-09
8.4209e-07
4e-09
8.25395e-07
4.40955e-09
8.07429e-07
5.44862e-09
7.87796e-07
6.89514e-09
7.65796e-07
9.62851e-09
7.4114e-07
1.25807e-08
7.12724e-07
1.75317e-08
6.79437e-07
2.38866e-08
6.42247e-07
2.9082e-08
5.95884e-07
4.22862e-08
5.43994e-07
4.96118e-08
4.87365e-07
5.63582e-08
4.08987e-07
8.88072e-08
3.32489e-07
8.38878e-08
2.68957e-07
5.81214e-08
1.10966e-07
2.07033e-07
4.67304e-08
4.2944e-08
9.40405e-08
-1.36043e-07
-2.33189e-07
4.48104e-07
-1.30118e-06
1.71944e-06
-1.02032e-06
-4.65154e-07
5.82111e-07
-2.77968e-06
8.69392e-07
-7.02918e-07
-2.16918e-06
4.97524e-06
-3.56042e-06
2.42408e-06
-1.9402e-06
-2.55661e-06
1.06166e-06
-4.82845e-06
5.89204e-06
-8.06295e-06
9.56069e-06
-6.44531e-06
8.66937e-06
1.06315e-06
-1.9752e-07
1.44679e-05
-5.12398e-06
8.46342e-06
-5.15e-06
5.83614e-07
-3.68182e-06
-1.97055e-06
-1.66717e-06
-2.87569e-06
1.20852e-06
-4.40975e-06
4.28815e-06
-5.06038e-06
6.2637e-06
-3.49596e-06
7.89498e-06
-2.85414e-06
9.51342e-06
-2.95658e-06
9.22538e-06
-1.1468e-07
6.07562e-06
4.41569e-06
7.43449e-07
7.43801e-06
-3.57417e-06
6.92266e-06
-5.31218e-06
3.58069e-06
-4.52627e-06
-6.5953e-07
-2.56551e-06
-3.40008e-06
-9.27138e-07
-2.775e-06
-4.66909e-06
8.05161e-06
-2.78941e-06
-3.9446e-06
-1.90691e-05
6.80252e-06
9.76742e-06
4.57408e-05
5.91698e-06
7.81728e-06
4.71893e-06
2.23392e-06
4.10136e-06
1.15355e-06
3.70879e-06
7.39939e-07
3.42728e-06
5.27152e-07
3.21142e-06
4.12079e-07
3.0381e-06
3.25941e-07
2.89718e-06
2.73091e-07
2.77849e-06
2.24031e-07
2.67753e-06
1.97724e-07
2.58908e-06
1.6667e-07
2.51171e-06
1.51646e-07
2.44217e-06
1.29547e-07
2.38001e-06
1.20328e-07
2.32292e-06
1.0373e-07
2.27093e-06
9.75927e-08
2.22239e-06
8.44981e-08
2.17751e-06
7.98955e-08
2.13509e-06
6.91913e-08
2.09539e-06
6.53064e-08
2.05755e-06
5.63603e-08
2.02176e-06
5.27758e-08
1.98746e-06
4.51827e-08
1.95477e-06
4.16818e-08
1.92338e-06
3.51883e-08
1.89334e-06
3.18057e-08
1.86447e-06
2.64384e-08
1.83673e-06
2.35437e-08
1.80994e-06
1.9565e-08
1.78392e-06
1.75412e-08
1.75844e-06
1.50173e-08
1.73322e-06
1.37914e-08
1.70805e-06
1.23589e-08
1.68264e-06
1.15722e-08
1.6568e-06
1.08874e-08
1.63016e-06
1.05962e-08
1.60243e-06
1.09131e-08
1.57309e-06
1.18611e-08
1.54155e-06
1.41463e-08
1.50712e-06
1.73016e-08
1.46855e-06
2.31812e-08
1.42527e-06
2.96064e-08
1.37546e-06
4.00514e-08
1.31678e-06
5.39273e-08
1.25125e-06
6.49231e-08
1.16971e-06
9.27388e-08
1.07661e-06
1.10189e-07
9.77024e-07
1.22429e-07
8.37351e-07
1.93013e-07
6.95827e-07
1.87403e-07
5.85375e-07
1.25776e-07
2.99806e-07
4.48387e-07
1.62178e-07
1.179e-07
2.34616e-07
-2.54296e-07
-3.37731e-07
9.49296e-07
-2.12307e-06
3.44929e-06
-1.4201e-06
-1.26079e-06
1.25871e-06
-5.5474e-06
1.54489e-06
-1.1751e-06
-3.54243e-06
1.00314e-05
-5.22226e-06
4.03278e-06
-1.88373e-06
-5.84295e-06
3.05004e-06
-9.73919e-06
1.0348e-05
-1.54239e-05
1.57189e-05
-1.1869e-05
1.36073e-05
3.04812e-06
-4.85683e-07
2.84371e-05
-7.82778e-06
1.59257e-05
-7.0158e-06
-1.3832e-07
-4.55006e-06
-4.14439e-06
-1.13061e-06
-6.00766e-06
3.40096e-06
-8.77553e-06
7.87334e-06
-9.45683e-06
1.07437e-05
-6.38919e-06
1.32729e-05
-5.41897e-06
1.55978e-05
-5.37053e-06
1.47266e-05
5.37052e-07
9.0562e-06
9.72608e-06
-1.26536e-07
1.61722e-05
-6.08188e-06
1.27214e-05
-7.39163e-06
4.8379e-06
-5.18187e-06
-2.84147e-06
-2.06929e-06
-6.36916e-06
2.68832e-07
-4.98379e-06
-2.42862e-06
1.14009e-05
-2.42959e-06
-3.30196e-06
-2.79178e-05
6.78298e-06
1.57351e-05
6.0068e-05
1.01556e-05
1.34174e-05
8.13125e-06
4.27995e-06
7.07229e-06
2.22602e-06
6.39657e-06
1.43083e-06
5.91151e-06
1.0202e-06
5.53973e-06
7.96507e-07
5.24117e-06
6.30378e-07
4.99833e-06
5.27557e-07
4.79386e-06
4.33123e-07
4.62007e-06
3.81395e-07
4.46794e-06
3.21777e-07
4.33504e-06
2.92034e-07
4.21569e-06
2.4977e-07
4.10919e-06
2.3135e-07
4.01152e-06
1.99719e-07
3.92276e-06
1.87367e-07
3.84003e-06
1.62514e-07
3.76372e-06
1.53253e-07
3.69174e-06
1.33024e-07
3.62454e-06
1.25273e-07
3.56062e-06
1.08439e-07
3.50033e-06
1.01385e-07
3.44266e-06
8.71592e-08
3.38785e-06
8.03842e-08
3.33531e-06
6.82812e-08
3.28517e-06
6.1835e-08
3.23706e-06
5.18759e-08
3.19095e-06
4.63981e-08
3.14651e-06
3.90104e-08
3.10347e-06
3.51473e-08
3.06146e-06
3.04079e-08
3.02004e-06
2.80068e-08
2.97889e-06
2.52607e-08
2.93752e-06
2.37001e-08
2.89561e-06
2.23655e-08
2.8526e-06
2.17892e-08
2.80799e-06
2.23685e-08
2.76092e-06
2.41413e-08
2.71044e-06
2.8434e-08
2.65544e-06
3.43386e-08
2.59388e-06
4.52959e-08
2.52465e-06
5.75038e-08
2.44522e-06
7.66263e-08
2.35107e-06
1.03126e-07
2.24568e-06
1.2373e-07
2.11547e-06
1.74173e-07
1.96297e-06
2.11535e-07
1.80239e-06
2.30143e-07
1.57809e-06
3.61044e-07
1.33567e-06
3.68863e-07
1.15688e-06
2.34877e-07
7.033e-07
8.29044e-07
4.18389e-07
2.966e-07
4.84801e-07
-3.99954e-07
-2.69696e-07
1.57248e-06
-2.95324e-06
6.03577e-06
-1.74772e-06
-2.61542e-06
2.3905e-06
-9.82026e-06
2.80093e-06
-1.87157e-06
-4.83974e-06
1.76266e-05
-6.44808e-06
5.5225e-06
-2.06917e-07
-1.20059e-05
6.93288e-06
-1.68544e-05
1.63922e-05
-2.49624e-05
2.25133e-05
-1.80475e-05
1.55866e-05
9.84003e-06
-3.16919e-06
4.71345e-05
-1.01813e-05
2.30805e-05
-8.11486e-06
-2.07772e-06
-4.27837e-06
-7.51695e-06
8.60427e-07
-1.07852e-05
7.02126e-06
-1.47771e-05
1.26845e-05
-1.50458e-05
1.64078e-05
-1.01372e-05
2.00618e-05
-9.11249e-06
2.27912e-05
-8.20159e-06
1.83234e-05
4.78492e-06
5.52266e-06
2.23449e-05
-4.65261e-06
2.6114e-05
-8.61325e-06
1.65235e-05
-9.18475e-06
5.35247e-06
-5.20778e-06
-6.78338e-06
-2.69543e-07
-1.11627e-05
4.09964e-06
-9.25063e-06
3.47905e-06
1.24229e-05
-8.44659e-07
1.44388e-06
-3.5484e-05
6.95358e-06
2.3886e-05
7.45074e-05
1.64955e-05
2.08383e-05
1.33265e-05
7.4815e-06
1.16112e-05
3.96182e-06
1.05082e-05
2.55724e-06
9.71429e-06
1.82654e-06
9.10554e-06
1.42503e-06
8.61633e-06
1.12878e-06
8.21813e-06
9.43985e-07
7.88277e-06
7.75709e-07
7.59799e-06
6.81659e-07
7.34883e-06
5.7556e-07
7.13146e-06
5.2108e-07
6.93644e-06
4.46106e-07
6.76275e-06
4.12026e-07
6.60368e-06
3.5608e-07
6.4595e-06
3.33028e-07
6.32534e-06
2.89238e-07
6.20197e-06
2.7192e-07
6.08583e-06
2.36439e-07
5.97775e-06
2.22041e-07
5.87517e-06
1.92651e-07
5.77873e-06
1.79717e-07
5.6867e-06
1.55011e-07
5.59954e-06
1.42803e-07
5.51615e-06
1.2192e-07
5.43681e-06
1.10506e-07
5.36085e-06
9.3431e-08
5.28825e-06
8.38246e-08
5.21847e-06
7.11675e-08
5.15111e-06
6.43421e-08
5.08562e-06
5.61283e-08
5.02137e-06
5.17686e-08
4.95784e-06
4.68949e-08
4.89433e-06
4.4009e-08
4.83035e-06
4.15794e-08
4.76501e-06
4.04836e-08
4.69758e-06
4.14183e-08
4.62674e-06
4.44156e-08
4.55097e-06
5.17937e-08
4.46865e-06
6.19171e-08
4.37667e-06
8.0601e-08
4.27301e-06
1.01993e-07
4.1545e-06
1.33953e-07
4.01313e-06
1.80506e-07
3.85429e-06
2.16366e-07
3.66005e-06
2.99143e-07
3.42528e-06
3.73602e-07
3.18263e-06
3.97573e-07
2.84622e-06
6.17002e-07
2.45324e-06
6.73714e-07
2.18319e-06
4.029e-07
1.51438e-06
1.38934e-06
9.57111e-07
6.90063e-07
9.75027e-07
-5.39934e-07
3.18101e-07
2.02384e-06
-3.36714e-06
9.54777e-06
-1.59032e-06
-4.61558e-06
4.66131e-06
-1.62426e-05
4.98111e-06
-2.54058e-06
-5.48752e-06
2.80807e-05
-6.66145e-06
6.51893e-06
3.77706e-06
-2.23386e-05
1.33612e-05
-2.64174e-05
2.4713e-05
-3.64011e-05
2.93168e-05
-2.27183e-05
1.40487e-05
2.50023e-05
-6.85513e-06
6.79882e-05
-1.15599e-05
2.79634e-05
-8.04627e-06
-5.37538e-06
-2.30191e-06
-1.26081e-05
4.74025e-06
-1.7508e-05
1.23204e-05
-2.22257e-05
1.88188e-05
-2.1476e-05
2.32741e-05
-1.46203e-05
2.83141e-05
-1.41989e-05
2.96737e-05
-9.6892e-06
1.77553e-05
1.65399e-05
7.15742e-07
3.92261e-05
-7.91434e-06
3.45355e-05
-1.09792e-05
1.94135e-05
-1.06795e-05
4.99314e-06
-5.19103e-06
-1.22282e-05
1.89972e-06
-1.81472e-05
8.86041e-06
-1.61386e-05
9.70765e-06
1.19024e-05
-2.29305e-06
1.35382e-05
-4.49429e-05
7.32652e-06
3.46044e-05
8.7922e-05
2.56548e-05
2.98295e-05
2.10638e-05
1.21176e-05
1.84259e-05
6.62847e-06
1.67012e-05
4.31524e-06
1.54519e-05
3.09348e-06
1.44921e-05
2.41338e-06
1.37193e-05
1.91486e-06
1.30894e-05
1.60029e-06
1.25583e-05
1.31715e-06
1.21077e-05
1.15464e-06
1.17136e-05
9.76334e-07
1.13703e-05
8.81213e-07
1.10624e-05
7.55721e-07
1.07889e-05
6.95468e-07
1.05388e-05
6.02198e-07
1.03128e-05
5.61009e-07
1.01029e-05
4.88381e-07
9.91054e-06
4.57366e-07
9.72986e-06
3.98859e-07
9.56239e-06
3.73276e-07
9.40379e-06
3.25105e-07
9.25534e-06
3.0248e-07
9.11402e-06
2.62242e-07
8.98072e-06
2.41326e-07
8.8535e-06
2.07572e-07
8.73291e-06
1.88415e-07
8.61772e-06
1.61005e-07
8.50803e-06
1.4506e-07
8.40287e-06
1.2475e-07
8.30181e-06
1.13333e-07
8.20397e-06
9.99771e-08
8.10852e-06
9.24844e-08
8.01471e-06
8.43538e-08
7.92156e-06
7.93167e-08
7.82833e-06
7.51564e-08
7.73377e-06
7.31984e-08
7.63675e-06
7.45976e-08
7.53543e-06
7.93508e-08
7.4275e-06
9.12526e-08
7.31068e-06
1.07576e-07
7.18053e-06
1.37423e-07
7.03355e-06
1.72775e-07
6.86634e-06
2.22718e-07
6.66549e-06
2.99631e-07
6.43887e-06
3.58727e-07
6.16519e-06
4.84942e-07
5.82254e-06
6.24143e-07
5.47624e-06
6.4878e-07
4.99779e-06
9.93642e-07
4.39467e-06
1.16459e-06
4.01619e-06
6.50734e-07
3.06917e-06
2.19604e-06
2.05725e-06
1.48405e-06
2.22617e-06
-8.66681e-07
1.65158e-06
2.3331e-06
-2.69953e-06
1.35975e-05
-2.10885e-07
-7.41231e-06
8.90439e-06
-2.55469e-05
8.80461e-06
-2.81669e-06
-3.95567e-06
4.08444e-05
-5.22786e-06
7.58655e-06
1.0548e-05
-3.80129e-05
2.28984e-05
-3.8752e-05
3.53071e-05
-4.88966e-05
3.51973e-05
-2.26915e-05
1.10174e-05
4.9084e-05
-9.8455e-06
8.87983e-05
-1.12009e-05
2.95932e-05
-6.51325e-06
-9.74584e-06
1.72237e-06
-2.02619e-05
1.07333e-05
-2.62919e-05
1.93855e-05
-3.07751e-05
2.61652e-05
-2.81946e-05
3.13345e-05
-1.98193e-05
3.75308e-05
-2.04438e-05
3.45042e-05
-6.80274e-06
1.38949e-05
3.70036e-05
-4.0849e-06
5.70423e-05
-1.0119e-05
4.03347e-05
-1.29845e-05
2.20998e-05
-1.15834e-05
3.52774e-06
-5.00945e-06
-1.87551e-05
3.50513e-06
-2.65769e-05
1.28179e-05
-2.53859e-05
1.43633e-05
1.06368e-05
-9.41358e-07
2.89152e-05
-5.39731e-05
8.20272e-06
4.80667e-05
9.88822e-05
3.83178e-05
3.96317e-05
3.2252e-05
1.82412e-05
2.84413e-05
1.04761e-05
2.58666e-05
6.93333e-06
2.39764e-05
5.00684e-06
2.25156e-05
3.91176e-06
2.13345e-05
3.11346e-06
2.03689e-05
2.60073e-06
1.95531e-05
2.14666e-06
1.88609e-05
1.87639e-06
1.82552e-05
1.59071e-06
1.77283e-05
1.4302e-06
1.72561e-05
1.23016e-06
1.68376e-05
1.12692e-06
1.64553e-05
9.79056e-07
1.61111e-05
9.07628e-07
1.57919e-05
7.93273e-07
1.55007e-05
7.39386e-07
1.52278e-05
6.47943e-07
1.4976e-05
6.03921e-07
1.47381e-05
5.29174e-07
1.45164e-05
4.90949e-07
1.4306e-05
4.28959e-07
1.41085e-05
3.94444e-07
1.39204e-05
3.42835e-07
1.3743e-05
3.11926e-07
1.35738e-05
2.70263e-07
1.34134e-05
2.44816e-07
1.32601e-05
2.13875e-07
1.31135e-05
1.95463e-07
1.29721e-05
1.74749e-07
1.28351e-05
1.62303e-07
1.27014e-05
1.49285e-07
1.25696e-05
1.40766e-07
1.24388e-05
1.33848e-07
1.23072e-05
1.30374e-07
1.21731e-05
1.32164e-07
1.20342e-05
1.39147e-07
1.18871e-05
1.57171e-07
1.17287e-05
1.82017e-07
1.15531e-05
2.27015e-07
1.13545e-05
2.8235e-07
1.11299e-05
3.56171e-07
1.08586e-05
4.76405e-07
1.05513e-05
5.69069e-07
1.01847e-05
7.50952e-07
9.71088e-06
9.92907e-07
9.24179e-06
1.00999e-06
8.59224e-06
1.52817e-06
7.72564e-06
1.9045e-06
7.22742e-06
1.00183e-06
5.92107e-06
3.34527e-06
4.27003e-06
2.88946e-06
4.87589e-06
-1.64795e-06
4.11417e-06
2.76805e-06
-1.54673e-07
1.74692e-05
3.66311e-06
-1.15785e-05
1.45953e-05
-3.66788e-05
1.24756e-05
-1.15198e-06
-3.1305e-06
5.646e-05
-9.33162e-07
5.22329e-06
1.96978e-05
-5.85707e-05
3.35913e-05
-5.2632e-05
4.63183e-05
-6.17134e-05
3.93143e-05
-1.57712e-05
7.32386e-06
8.09783e-05
-1.10401e-05
0.000107102
-9.89732e-06
2.8888e-05
-2.8703e-06
-1.64715e-05
7.04266e-06
-2.97772e-05
1.65763e-05
-3.56305e-05
2.59326e-05
-4.00318e-05
3.36021e-05
-3.58027e-05
4.02277e-05
-2.64769e-05
4.61923e-05
-2.64625e-05
3.53891e-05
3.8632e-06
7.59662e-06
6.46532e-05
-8.25394e-06
7.27112e-05
-1.20496e-05
4.38503e-05
-1.44008e-05
2.42758e-05
-1.20274e-05
1.08391e-06
-4.68416e-06
-2.60507e-05
4.49474e-06
-3.56752e-05
1.59552e-05
-3.67796e-05
1.78732e-05
8.96861e-06
-7.24021e-07
4.75774e-05
-6.40803e-05
9.4605e-06
6.40674e-05
0.000106016
5.48526e-05
4.89123e-05
4.77483e-05
2.54154e-05
4.27117e-05
1.55573e-05
3.91071e-05
1.05903e-05
3.63877e-05
7.75424e-06
3.42576e-05
6.08754e-06
3.25199e-05
4.87241e-06
3.10906e-05
4.07245e-06
2.98773e-05
3.37655e-06
2.8846e-05
2.94352e-06
2.79421e-05
2.50506e-06
2.7156e-05
2.24293e-06
2.64514e-05
1.93737e-06
2.5828e-05
1.76573e-06
2.52591e-05
1.54123e-06
2.47485e-05
1.42098e-06
2.42758e-05
1.24867e-06
2.38463e-05
1.15778e-06
2.34445e-05
1.02111e-06
2.30755e-05
9.47601e-07
2.27277e-05
8.3675e-07
2.24053e-05
7.74104e-07
2.21e-05
6.82823e-07
2.18148e-05
6.27592e-07
2.15439e-05
5.52107e-07
2.12893e-05
5.03727e-07
2.10473e-05
4.43022e-07
2.08187e-05
4.03561e-07
2.06007e-05
3.58211e-07
2.03932e-05
3.29269e-07
2.01941e-05
2.98174e-07
2.00023e-05
2.77955e-07
1.98164e-05
2.57604e-07
1.96347e-05
2.43406e-07
1.94559e-05
2.31953e-07
1.92777e-05
2.25618e-07
1.90979e-05
2.27151e-07
1.89132e-05
2.3638e-07
1.87193e-05
2.61832e-07
1.85119e-05
2.97409e-07
1.82835e-05
3.61596e-07
1.80259e-05
4.43437e-07
1.77361e-05
5.47454e-07
1.73856e-05
7.25343e-07
1.69879e-05
8.63106e-07
1.65169e-05
1.11499e-06
1.58973e-05
1.50143e-06
1.52913e-05
1.50265e-06
1.44433e-05
2.25635e-06
1.32943e-05
2.92242e-06
1.26581e-05
1.48693e-06
1.09062e-05
4.93884e-06
8.59294e-06
4.95943e-06
9.45465e-06
-2.68175e-06
7.13833e-06
4.72221e-06
3.09021e-06
2.11674e-05
1.14421e-05
-2.02107e-05
2.19226e-05
-4.7337e-05
1.71943e-05
3.16368e-06
1.37192e-06
7.22929e-05
7.79996e-06
-1.32737e-06
2.99791e-05
-8.06919e-05
4.49984e-05
-6.76383e-05
5.66616e-05
-7.34717e-05
4.08662e-05
-5.09389e-08
3.46319e-06
0.000118282
-1.15433e-05
0.000122034
-9.32214e-06
2.72895e-05
1.51374e-06
-2.7078e-05
1.1961e-05
-3.98688e-05
2.21908e-05
-4.5664e-05
3.22989e-05
-5.00342e-05
4.08805e-05
-4.43184e-05
4.88004e-05
-3.44366e-05
5.22735e-05
-3.00187e-05
3.2323e-05
2.36678e-05
1.37671e-06
9.54409e-05
-1.08072e-05
8.46753e-05
-1.36042e-05
4.63136e-05
-1.54342e-05
2.59184e-05
-1.26687e-05
-1.75574e-06
-4.71968e-06
-3.3945e-05
5.0728e-06
-4.53844e-05
1.83031e-05
-4.99366e-05
1.93706e-05
8.13692e-06
-1.98889e-06
6.89962e-05
-7.74161e-05
1.13898e-05
8.19745e-05
0.000108672
7.49439e-05
5.60231e-05
6.79169e-05
3.25249e-05
6.20919e-05
2.1434e-05
5.75315e-05
1.5211e-05
5.39133e-05
1.14045e-05
5.0999e-05
9.0542e-06
4.85777e-05
7.31799e-06
4.65612e-05
6.13738e-06
4.48332e-05
5.12347e-06
4.33562e-05
4.46126e-06
4.20558e-05
3.81717e-06
4.09226e-05
3.40621e-06
3.9905e-05
2.95789e-06
3.90047e-05
2.68334e-06
3.8183e-05
2.35528e-06
3.74466e-05
2.16027e-06
3.67656e-05
1.91011e-06
3.61484e-05
1.76232e-06
3.55721e-05
1.56539e-06
3.50445e-05
1.44685e-06
3.45483e-05
1.28826e-06
3.409e-05
1.18891e-06
3.36568e-05
1.05914e-06
3.32536e-05
9.73404e-07
3.28714e-05
8.66668e-07
3.25134e-05
7.93045e-07
3.21736e-05
7.07367e-07
3.18535e-05
6.47765e-07
3.15488e-05
5.83193e-07
3.12597e-05
5.3884e-07
3.09831e-05
4.93327e-07
3.07181e-05
4.61305e-07
3.04625e-05
4.30142e-07
3.02147e-05
4.06945e-07
2.99727e-05
3.88164e-07
2.97337e-05
3.76626e-07
2.94949e-05
3.76338e-07
2.92522e-05
3.87019e-07
2.89999e-05
4.20481e-07
2.87327e-05
4.68371e-07
2.84411e-05
5.55443e-07
2.81145e-05
6.69651e-07
2.77497e-05
8.10411e-07
2.73101e-05
1.06029e-06
2.6814e-05
1.25282e-06
2.62252e-05
1.59463e-06
2.54538e-05
2.16018e-06
2.47047e-05
2.13765e-06
2.36241e-05
3.21716e-06
2.22248e-05
4.19211e-06
2.1426e-05
2.13758e-06
1.91182e-05
7.09413e-06
1.64225e-05
7.42806e-06
1.77245e-05
-4.13902e-06
1.17278e-05
1.04272e-05
7.89261e-06
2.4747e-05
2.36717e-05
-3.61888e-05
3.30617e-05
-5.6872e-05
1.80447e-05
1.79052e-05
5.6464e-06
8.46978e-05
1.9808e-05
-1.55874e-05
4.20891e-05
-0.000102923
5.77292e-05
-8.32656e-05
6.57884e-05
-8.16357e-05
4.02969e-05
2.53637e-05
8.21803e-07
0.000157649
-1.04059e-05
0.000133159
-7.35113e-06
2.50393e-05
6.2983e-06
-4.05205e-05
1.74933e-05
-5.07077e-05
2.8322e-05
-5.62821e-05
3.89376e-05
-6.05324e-05
4.8322e-05
-5.36295e-05
5.69824e-05
-4.31454e-05
5.50896e-05
-2.82424e-05
2.59485e-05
5.26462e-05
-3.61854e-06
0.000124816
-1.17935e-05
9.25735e-05
-1.49959e-05
4.9129e-05
-1.6469e-05
2.7186e-05
-1.39623e-05
-4.32954e-06
-5.41457e-06
-4.24272e-05
4.98455e-06
-5.56924e-05
1.9356e-05
-6.42235e-05
1.81438e-05
9.5721e-06
-4.87362e-06
9.20671e-05
-9.64357e-05
1.41591e-05
0.000101117
0.000107651
9.74817e-05
5.97572e-05
9.20969e-05
3.80077e-05
8.66024e-05
2.69884e-05
8.17069e-05
2.0175e-05
7.74831e-05
1.56643e-05
7.38989e-05
1.26967e-05
7.08128e-05
1.04309e-05
6.81792e-05
8.82435e-06
6.58797e-05
7.44372e-06
6.38892e-05
6.49635e-06
6.2119e-05
5.60028e-06
6.05657e-05
4.9922e-06
5.91629e-05
4.3638e-06
5.79175e-05
3.94744e-06
5.67775e-05
3.48692e-06
5.57544e-05
3.18635e-06
5.48074e-05
2.83608e-06
5.39489e-05
2.60708e-06
5.31473e-05
2.33265e-06
5.24138e-05
2.14987e-06
5.17243e-05
1.93001e-06
5.1088e-05
1.77875e-06
5.0487e-05
1.59971e-06
4.99281e-05
1.47141e-06
4.93985e-05
1.32474e-06
4.89028e-05
1.21634e-06
4.8432e-05
1.09866e-06
4.79886e-05
1.01141e-06
4.75664e-05
9.21851e-07
4.71659e-05
8.56072e-07
4.6783e-05
7.91212e-07
4.6417e-05
7.42331e-07
4.60648e-05
6.9596e-07
4.57249e-05
6.59445e-07
4.53946e-05
6.2958e-07
4.50709e-05
6.09525e-07
4.47499e-05
6.04878e-07
4.4427e-05
6.15292e-07
4.40947e-05
6.56466e-07
4.37474e-05
7.17196e-07
4.33724e-05
8.30465e-07
4.29585e-05
9.8131e-07
4.25003e-05
1.16507e-06
4.1953e-05
1.50155e-06
4.13461e-05
1.75231e-06
4.06179e-05
2.21308e-06
3.9684e-05
2.98144e-06
3.87925e-05
2.91568e-06
3.74267e-05
4.46471e-06
3.58301e-05
5.66211e-06
3.48633e-05
2.96079e-06
3.18147e-05
9.99636e-06
2.92104e-05
9.82212e-06
3.11786e-05
-6.24805e-06
2.11424e-05
2.02619e-05
1.80401e-05
2.76544e-05
3.8887e-05
-5.72089e-05
4.55665e-05
-6.3689e-05
2.06377e-05
4.25835e-05
1.04925e-05
9.4843e-05
3.37494e-05
-3.89295e-05
5.64066e-05
-0.000125535
7.22393e-05
-9.9086e-05
7.4815e-05
-8.43452e-05
3.9463e-05
6.06301e-05
1.99425e-06
0.000194996
-3.4174e-06
0.000138434
-1.70464e-07
2.25079e-05
1.27143e-05
-5.31955e-05
2.42122e-05
-6.18313e-05
3.53481e-05
-6.71833e-05
4.61863e-05
-7.12366e-05
5.58913e-05
-6.32519e-05
6.41701e-05
-5.14826e-05
5.45341e-05
-1.8739e-05
1.80242e-05
8.89717e-05
-6.99901e-06
0.000149602
-1.19656e-05
9.71885e-05
-1.62386e-05
5.29645e-05
-1.74707e-05
2.81946e-05
-1.52585e-05
-6.58322e-06
-6.48086e-06
-5.11213e-05
4.07017e-06
-6.61378e-05
1.85599e-05
-7.86095e-05
1.42463e-05
1.40912e-05
-8.51899e-06
0.000114881
-0.000122844
1.7881e-05
0.000121771
0.000105216
0.000121333
6.0316e-05
0.000118694
4.07656e-05
0.00011493
3.08235e-05
0.000110891
2.42929e-05
0.000106926
1.96698e-05
0.000103257
1.64316e-05
9.98857e-05
1.38316e-05
9.68766e-05
1.1892e-05
9.41532e-05
1.01898e-05
9.17352e-05
8.9627e-06
8.95386e-05
7.81078e-06
8.75816e-05
6.98447e-06
8.57903e-05
6.15836e-06
8.41844e-05
5.57331e-06
8.27017e-05
4.96067e-06
8.13624e-05
4.52889e-06
8.01155e-05
4.06063e-06
7.898e-05
3.72814e-06
7.79153e-05
3.36101e-06
7.69377e-05
3.09548e-06
7.60158e-05
2.8018e-06
7.51623e-05
2.58356e-06
7.43538e-05
2.34491e-06
7.35997e-05
2.16194e-06
7.2883e-05
1.96679e-06
7.221e-05
1.81392e-06
7.15689e-05
1.65718e-06
7.0963e-05
1.53456e-06
7.03842e-05
1.41409e-06
6.98336e-05
1.32057e-06
6.93059e-05
1.23113e-06
6.88006e-05
1.15991e-06
6.83141e-05
1.09347e-06
6.78449e-05
1.03873e-06
6.73898e-05
9.93359e-07
6.69455e-05
9.60685e-07
6.65074e-05
9.48258e-07
6.60701e-05
9.55654e-07
6.56249e-05
1.00331e-06
6.51657e-05
1.07593e-06
6.46763e-05
1.21802e-06
6.41456e-05
1.4081e-06
6.35665e-05
1.63923e-06
6.2882e-05
2.07876e-06
6.21431e-05
2.38289e-06
6.12471e-05
2.99886e-06
6.01243e-05
3.99142e-06
5.90915e-05
3.83547e-06
5.73737e-05
6.06542e-06
5.56123e-05
7.29918e-06
5.44738e-05
3.96009e-06
5.04874e-05
1.3844e-05
4.84107e-05
1.17009e-05
4.99711e-05
-7.94036e-06
3.78972e-05
3.21648e-05
3.64534e-05
2.89315e-05
5.90385e-05
-7.99674e-05
6.08806e-05
-6.56842e-05
2.92418e-05
7.39583e-05
2.20557e-05
0.000102022
5.07376e-05
-6.77006e-05
7.41604e-05
-0.000148915
8.87945e-05
-0.00011371
8.37319e-05
-7.94901e-05
3.97371e-05
0.000104525
6.24377e-06
0.000228352
3.1012e-06
0.000141414
1.04623e-05
1.56367e-05
2.16054e-05
-6.41123e-05
3.2991e-05
-7.28136e-05
4.39564e-05
-7.78821e-05
5.44246e-05
-8.155e-05
6.41403e-05
-7.28752e-05
6.9737e-05
-5.71588e-05
5.0278e-05
5.66448e-07
1.00758e-05
0.000128958
-8.6429e-06
0.000168015
-1.16502e-05
9.97458e-05
-1.67895e-05
5.76152e-05
-1.81607e-05
2.9331e-05
-1.59465e-05
-8.79975e-06
-7.93085e-06
-5.90269e-05
1.74287e-06
-7.56816e-05
1.53795e-05
-9.2111e-05
9.63495e-06
2.00325e-05
-1.0052e-05
0.00013462
-0.000155122
2.22077e-05
0.000145972
0.000103634
0.000147017
5.94215e-05
0.000146755
4.11731e-05
0.000145303
3.23616e-05
0.000143133
2.65562e-05
0.000140513
2.23378e-05
0.000137741
1.92784e-05
0.000134906
1.67005e-05
0.00013218
1.46842e-05
0.000129547
1.28477e-05
0.000127102
1.14618e-05
0.000124786
1.01415e-05
0.000122662
9.14699e-06
0.000120663
8.16085e-06
0.000118835
7.42323e-06
0.000117114
6.67241e-06
0.000115536
6.11019e-06
0.000114046
5.527e-06
0.000112673