/*--------------------------------*- C++ -*----------------------------------*\
| =========                 |                                                 |
| \\      /  F ield         | OpenFOAM: The Open Source CFD Toolbox           |
|  \\    /   O peration     | Version:  2306                                  |
|   \\  /    A nd           | Website:  www.openfoam.com                      |
|    \\/     M anipulation  |                                                 |
\*---------------------------------------------------------------------------*/
FoamFile
{
    version     2.0;
    format      ascii;
    arch        "LSB;label=32;scalar=64";
    class       volSymmTensorField;
    location    "1700";
    object      turbulenceProperties:devReff;
}
// * * * * * * * * * * * * * * * * * * * * * * * * * * * * * * * * * * * * * //

dimensions      [0 2 -2 0 0 0 0];

internalField   nonuniform List<symmTensor> 
20540
(
(-0.00126009 -0.0196325 -0 0.00125835 -0 1.73657e-06)
(0.0118229 0.0332153 -0 -0.0117968 -0 -2.61294e-05)
(-0.00124897 -0.0623873 -0 0.00124872 -0 2.48572e-07)
(0.0102018 0.105819 -0 -0.0102179 -0 1.60855e-05)
(-0.00121627 -0.111903 -0 0.00121668 -0 -4.06214e-07)
(0.00844366 0.188209 -0 -0.00845344 -0 9.77599e-06)
(-0.00115225 -0.166822 -0 0.00115267 -0 -4.20241e-07)
(0.00663592 0.273814 -0 -0.00663835 -0 2.43264e-06)
(-0.00104747 -0.223372 -0 0.00104837 -0 -9.03383e-07)
(0.00484216 0.353275 -0 -0.00484376 -0 1.59471e-06)
(-0.000892517 -0.274513 -0 0.000893911 -0 -1.39466e-06)
(0.00313289 0.414347 -0 -0.00313461 -0 1.72539e-06)
(-0.000683549 -0.310016 -0 0.000684671 -0 -1.12229e-06)
(0.00160447 0.442359 -0 -0.00160571 -0 1.24182e-06)
(-0.000429288 -0.318461 -0 0.000428736 -0 5.52401e-07)
(0.000374071 0.422913 -0 -0.000375463 -0 1.39183e-06)
(-0.00015965 -0.291878 -0 0.00015644 -0 3.21005e-06)
(-0.000440469 0.34821 -0 0.000436207 -0 4.26172e-06)
(7.0528e-05 -0.231637 -0 -7.54356e-05 -0 4.9076e-06)
(-0.000766384 0.227406 -0 0.000756365 -0 1.00187e-05)
(0.000197387 -0.151568 -0 -0.00020136 -0 3.97247e-06)
(-0.000648914 0.0944726 -0 0.000635286 -0 1.36282e-05)
(0.000192135 -0.0744801 -0 -0.000193681 -0 1.54568e-06)
(-0.00030081 -0.00231742 -0 0.000292271 -0 8.53941e-06)
(0.000102326 -0.0217662 -0 -0.000102939 -0 6.12699e-07)
(-1.77711e-05 -0.0352417 -0 1.89522e-05 -0 -1.18112e-06)
(2.17894e-05 -0.000179653 -0 -2.35259e-05 -0 1.73646e-06)
(5.07354e-05 -0.0228575 -0 -4.79058e-05 -0 -2.82964e-06)
(-3.80217e-06 0.00190078 -0 9.64712e-07 -0 2.83745e-06)
(-2.04168e-07 -0.00504334 -0 -2.16734e-06 -0 2.37151e-06)
(-6.63431e-07 1.35025e-05 -0 -2.56099e-06 -0 3.22442e-06)
(-3.7387e-05 0.000728787 -0 3.32576e-05 -0 4.12943e-06)
(2.21824e-06 -0.000285843 -0 -5.62992e-06 -0 3.41169e-06)
(-4.31715e-05 0.000386021 -0 4.08661e-05 -0 2.30542e-06)
(2.11008e-06 -5.05645e-05 -0 -5.58595e-06 -0 3.47587e-06)
(-4.23665e-05 -4.20269e-05 -0 4.12132e-05 -0 1.15325e-06)
(1.8286e-06 4.71835e-06 -0 -5.27908e-06 -0 3.45048e-06)
(-4.19882e-05 -5.08847e-05 -0 4.08647e-05 -0 1.12348e-06)
(1.68181e-06 6.03501e-07 -0 -5.13225e-06 -0 3.45043e-06)
(-4.16403e-05 -3.66528e-05 -0 4.03562e-05 -0 1.28406e-06)
(1.53634e-06 -1.14635e-06 -0 -4.99897e-06 -0 3.46263e-06)
(-4.1276e-05 -3.38316e-05 -0 3.98706e-05 -0 1.40536e-06)
(1.34306e-06 -1.79969e-06 -0 -4.78851e-06 -0 3.44545e-06)
(-4.08644e-05 -3.17996e-05 -0 3.93068e-05 -0 1.55766e-06)
(1.10577e-06 -2.23237e-06 -0 -4.51173e-06 -0 3.40596e-06)
(-4.0399e-05 -2.99148e-05 -0 3.86478e-05 -0 1.75114e-06)
(8.43395e-07 -2.44615e-06 -0 -4.21053e-06 -0 3.36713e-06)
(-3.99038e-05 -2.80752e-05 -0 3.79427e-05 -0 1.96108e-06)
(5.49352e-07 -2.4949e-06 -0 -3.87444e-06 -0 3.32509e-06)
(-3.93622e-05 -2.61223e-05 -0 3.71574e-05 -0 2.20472e-06)
(1.52718e-07 -2.41982e-06 -0 -3.36237e-06 -0 3.20965e-06)
(-3.87598e-05 -2.39338e-05 -0 3.62613e-05 -0 2.49853e-06)
(-3.65054e-07 -2.24891e-06 -0 -2.63487e-06 -0 2.99992e-06)
(-3.82886e-05 -2.14265e-05 -0 3.56336e-05 -0 2.65493e-06)
(-8.14545e-07 -1.98849e-06 -0 -2.06439e-06 -0 2.87894e-06)
(-3.82542e-05 -1.85274e-05 -0 3.58789e-05 -0 2.3753e-06)
(-1.0645e-06 -1.6319e-06 -0 -1.90054e-06 -0 2.96503e-06)
(-3.84992e-05 -1.50347e-05 -0 3.66659e-05 -0 1.83328e-06)
(-1.34203e-06 -1.16289e-06 -0 -1.66097e-06 -0 3.00299e-06)
(-3.83844e-05 -1.07103e-05 -0 3.66851e-05 -0 1.69928e-06)
(-1.75655e-06 -6.531e-07 -0 -1.05019e-06 -0 2.80674e-06)
(-3.7674e-05 -6.23979e-06 -0 3.54166e-05 -0 2.25745e-06)
(-2.04582e-06 -2.05063e-07 -0 -5.83385e-07 -0 2.6292e-06)
(-3.70107e-05 -2.0884e-06 -0 3.41343e-05 -0 2.87641e-06)
(-2.00778e-06 2.07012e-07 -0 -6.68922e-07 -0 2.6767e-06)
(-3.71207e-05 2.04561e-06 -0 3.43108e-05 -0 2.80993e-06)
(-1.68077e-06 6.70907e-07 -0 -1.23056e-06 -0 2.91133e-06)
(-3.78831e-05 6.22915e-06 -0 3.56914e-05 -0 2.19176e-06)
(-1.28569e-06 1.18084e-06 -0 -1.8233e-06 -0 3.10898e-06)
(-3.85013e-05 1.06754e-05 -0 3.66868e-05 -0 1.81451e-06)
(-9.84777e-07 1.63851e-06 -0 -2.13679e-06 -0 3.12156e-06)
(-3.84853e-05 1.48657e-05 -0 3.6333e-05 -0 2.15232e-06)
(-6.15535e-07 1.99569e-06 -0 -2.56381e-06 -0 3.17935e-06)
(-3.81474e-05 1.83e-05 -0 3.53031e-05 -0 2.84431e-06)
(-8.04265e-08 2.26101e-06 -0 -3.32395e-06 -0 3.40438e-06)
(-3.8003e-05 2.12159e-05 -0 3.46573e-05 -0 3.34568e-06)
(4.41268e-07 2.44241e-06 -0 -4.07239e-06 -0 3.63113e-06)
(-3.81061e-05 2.37187e-05 -0 3.45155e-05 -0 3.59064e-06)
(8.65509e-07 2.53183e-06 -0 -4.64865e-06 -0 3.78314e-06)
(-3.83033e-05 2.58845e-05 -0 3.45762e-05 -0 3.72713e-06)
(1.22693e-06 2.50983e-06 -0 -5.12514e-06 -0 3.89821e-06)
(-3.85502e-05 2.78051e-05 -0 3.47534e-05 -0 3.79687e-06)
(1.54186e-06 2.33614e-06 -0 -5.53468e-06 -0 3.99282e-06)
(-3.88419e-05 2.95931e-05 -0 3.50375e-05 -0 3.80446e-06)
(1.81861e-06 1.94006e-06 -0 -5.89196e-06 -0 4.07336e-06)
(-3.91594e-05 3.13956e-05 -0 3.53895e-05 -0 3.76991e-06)
(2.0497e-06 1.31711e-06 -0 -6.17881e-06 -0 4.12911e-06)
(-3.94519e-05 3.33338e-05 -0 3.57073e-05 -0 3.74462e-06)
(2.21204e-06 2.99425e-07 -0 -6.34568e-06 -0 4.13364e-06)
(-3.96779e-05 3.54988e-05 -0 3.59085e-05 -0 3.76943e-06)
(2.35359e-06 -3.69237e-06 -0 -6.48629e-06 -0 4.1327e-06)
(-3.99221e-05 4.21997e-05 -0 3.61872e-05 -0 3.73488e-06)
(2.56676e-06 8.08954e-06 -0 -6.74033e-06 -0 4.17357e-06)
(-4.01896e-05 6.52178e-05 -0 3.65459e-05 -0 3.64373e-06)
(2.93551e-06 0.000173436 -0 -7.11179e-06 -0 4.17628e-06)
(-4.08369e-05 -0.000101474 -0 3.66564e-05 -0 4.18046e-06)
(1.96219e-06 0.000343459 -0 -6.0399e-06 -0 4.07771e-06)
(-4.04722e-05 -0.000846982 -0 3.44695e-05 -0 6.00276e-06)
(-2.87044e-06 -0.000802309 -0 -1.01705e-06 -0 3.88749e-06)
(-2.21226e-05 0.000535597 -0 1.54191e-05 -0 6.70357e-06)
(1.94893e-06 -0.00242564 -0 -5.17172e-06 -0 3.22279e-06)
(3.16975e-05 0.0119491 -0 -3.4582e-05 -0 2.88448e-06)
(5.07547e-05 0.00554016 -0 -5.27079e-05 -0 1.9532e-06)
(5.18866e-05 0.0315557 -0 -5.17496e-05 -0 -1.36947e-07)
(0.000143459 0.0382714 -0 -0.000145081 -0 1.62168e-06)
(-0.000102533 0.0306233 -0 9.69284e-05 -0 5.60412e-06)
(0.000209751 0.100239 -0 -0.000213015 -0 3.26479e-06)
(-0.000434561 -0.0253219 -0 0.000420546 -0 1.40145e-05)
(0.000171125 0.178848 -0 -0.000176262 -0 5.13749e-06)
(-0.000728952 -0.136706 -0 0.000713545 -0 1.54068e-05)
(1.07024e-05 0.252705 -0 -1.57588e-05 -0 5.05642e-06)
(-0.000722741 -0.266999 -0 0.000711975 -0 1.0766e-05)
(-0.000229472 0.302829 -0 0.000226448 -0 3.02426e-06)
(-0.000271848 -0.373632 -0 0.000265653 -0 6.19501e-06)
(-0.000490763 0.319815 -0 0.000490007 -0 7.55344e-07)
(0.000626189 -0.432401 -0 -0.000630591 -0 4.40219e-06)
(-0.000728958 0.305014 -0 0.000729421 -0 -4.62644e-07)
(0.0018896 -0.440038 -0 -0.00189404 -0 4.44205e-06)
(-0.000921849 0.266858 -0 0.000922438 -0 -5.89073e-07)
(0.00340962 -0.405719 -0 -0.00341424 -0 4.61472e-06)
(-0.00106416 0.215809 -0 0.00106434 -0 -1.85321e-07)
(0.00508312 -0.342856 -0 -0.00508739 -0 4.27215e-06)
(-0.00116035 0.160797 -0 0.00116014 -0 2.10754e-07)
(0.00682646 -0.264498 -0 -0.00683189 -0 5.43003e-06)
(-0.00121933 0.107843 -0 0.00121917 -0 1.6073e-07)
(0.00857749 -0.181424 -0 -0.00859001 -0 1.2518e-05)
(-0.00124983 0.0601384 -0 0.00124932 -0 5.09422e-07)
(0.0102788 -0.101901 -0 -0.0102964 -0 1.75624e-05)
(-0.0012604 0.0189184 -0 0.00125876 -0 1.64772e-06)
(0.0118489 -0.0319584 -0 -0.0118235 -0 -2.53914e-05)
(0.0159056 -3.39956 -0 -0.0158993 -0 -6.24166e-06)
(0.000649996 -1.46921 -0 -0.000675627 -0 2.56304e-05)
(0.000144221 -1.11181 -0 -0.000150895 -0 6.67377e-06)
(7.74054e-05 -0.942631 -0 -8.10811e-05 -0 3.67566e-06)
(5.1074e-05 -0.840882 -0 -5.37774e-05 -0 2.70339e-06)
(3.78144e-05 -0.771222 -0 -3.97466e-05 -0 1.93214e-06)
(3.0532e-05 -0.718415 -0 -3.23744e-05 -0 1.84246e-06)
(2.52156e-05 -0.676908 -0 -2.65788e-05 -0 1.36325e-06)
(2.16808e-05 -0.642875 -0 -2.31634e-05 -0 1.48259e-06)
(1.86545e-05 -0.61523 -0 -1.97206e-05 -0 1.06618e-06)
(1.68972e-05 -0.591148 -0 -1.81478e-05 -0 1.25063e-06)
(1.50176e-05 -0.570868 -0 -1.58725e-05 -0 8.54981e-07)
(1.40218e-05 -0.552475 -0 -1.50641e-05 -0 1.04228e-06)
(1.26914e-05 -0.536688 -0 -1.3342e-05 -0 6.50517e-07)
(1.21178e-05 -0.521937 -0 -1.29351e-05 -0 8.17211e-07)
(1.1133e-05 -0.509047 -0 -1.15548e-05 -0 4.21863e-07)
(1.08035e-05 -0.496711 -0 -1.13508e-05 -0 5.47226e-07)
(1.00331e-05 -0.485756 -0 -1.01767e-05 -0 1.43586e-07)
(9.83233e-06 -0.475095 -0 -1.00444e-05 -0 2.1203e-07)
(9.19995e-06 -0.465488 -0 -8.99979e-06 -0 -2.0016e-07)
(9.05755e-06 -0.456039 -0 -8.8597e-06 -0 -1.97844e-07)
(8.51952e-06 -0.44741 -0 -7.90284e-06 -0 -6.16684e-07)
(8.39262e-06 -0.438873 -0 -7.70681e-06 -0 -6.85812e-07)
(7.9176e-06 -0.43098 -0 -6.80785e-06 -0 -1.10974e-06)
(7.77086e-06 -0.423157 -0 -6.52064e-06 -0 -1.25023e-06)
(7.32933e-06 -0.415854 -0 -5.65755e-06 -0 -1.67178e-06)
(7.14559e-06 -0.408637 -0 -5.27961e-06 -0 -1.86598e-06)
(6.74297e-06 -0.401852 -0 -4.48053e-06 -0 -2.26245e-06)
(6.56954e-06 -0.39517 -0 -4.09497e-06 -0 -2.47457e-06)
(6.28213e-06 -0.388828 -0 -3.461e-06 -0 -2.82114e-06)
(6.2244e-06 -0.382561 -0 -3.19322e-06 -0 -3.03118e-06)
(6.14621e-06 -0.376498 -0 -2.81037e-06 -0 -3.33584e-06)
(6.27175e-06 -0.370429 -0 -2.69905e-06 -0 -3.5727e-06)
(6.42356e-06 -0.364404 -0 -2.53996e-06 -0 -3.8836e-06)
(6.72214e-06 -0.35828 -0 -2.52186e-06 -0 -4.20028e-06)
(7.08701e-06 -0.35205 -0 -2.52223e-06 -0 -4.56478e-06)
(7.59311e-06 -0.345631 -0 -2.6105e-06 -0 -4.98261e-06)
(8.27094e-06 -0.338937 -0 -2.85861e-06 -0 -5.41232e-06)
(9.19519e-06 -0.331914 -0 -3.28445e-06 -0 -5.91075e-06)
(1.05301e-05 -0.324372 -0 -4.13507e-06 -0 -6.39498e-06)
(1.22093e-05 -0.316199 -0 -5.26757e-06 -0 -6.9417e-06)
(1.4866e-05 -0.30724 -0 -7.39831e-06 -0 -7.46766e-06)
(1.78291e-05 -0.296961 -0 -9.77739e-06 -0 -8.05174e-06)
(2.21854e-05 -0.285698 -0 -1.36488e-05 -0 -8.53663e-06)
(2.87321e-05 -0.272379 -0 -1.94526e-05 -0 -9.27953e-06)
(3.28595e-05 -0.256365 -0 -2.33666e-05 -0 -9.4929e-06)
(4.59777e-05 -0.240613 -0 -3.56704e-05 -0 -1.03073e-05)
(5.61621e-05 -0.216472 -0 -4.48263e-05 -0 -1.13358e-05)
(5.37262e-05 -0.193421 -0 -4.4726e-05 -0 -9.00019e-06)
(0.00010487 -0.173967 -0 -8.9335e-05 -0 -1.55345e-05)
(9.26995e-05 -0.119372 -0 -8.26868e-05 -0 -1.00127e-05)
(3.0842e-05 -0.105375 -0 -2.53142e-05 -0 -5.52771e-06)
(0.000312034 -0.0967945 -0 -0.000271121 -0 -4.09131e-05)
(6.48934e-05 0.0745405 -0 -6.21996e-05 -0 -2.69376e-06)
(-0.000473633 -0.0261517 -0 0.000440921 -0 3.27126e-05)
(0.00102765 -0.172514 -0 -0.000748144 -0 -0.000279506)
(0.00252096 0.503554 -0 -0.00273125 -0 0.000210288)
(-0.00140477 0.951665 -0 0.000904043 -0 0.000500727)
(-0.00439409 -0.0690226 -0 0.00479855 -0 -0.000404464)
(0.000971724 -0.791078 -0 0.00029953 -0 -0.00127125)
(0.00786925 0.410369 -0 -0.0086439 -0 0.000774651)
(0.00379608 1.82921 -0 -0.00429887 -0 0.000502794)
(-0.00614818 1.87721 -0 0.00574239 -0 0.000405795)
(-0.0120634 0.547777 -0 0.0116089 -0 0.000454548)
(-0.0204896 -1.12328 -0 0.0211244 -0 -0.000634773)
(-0.016978 -4.17885 -0 0.0189228 -0 -0.00194485)
(0.0150157 -5.09722 -0 -0.0110982 -0 -0.00391747)
(0.0450164 -1.96522 -0 -0.0516554 -0 0.00663903)
(0.025485 2.20615 -0 -0.0313587 -0 0.00587367)
(0.00174901 2.84892 -0 -0.00435317 -0 0.00260415)
(-0.00649276 2.5673 -0 0.00605961 -0 0.000433147)
(-0.0116759 1.84892 -0 0.0102818 -0 0.00139415)
(-0.0185559 0.641551 -0 0.017442 -0 0.00111386)
(-0.0204485 -1.01248 -0 0.0212111 -0 -0.000762539)
(-0.0147491 -2.34735 -0 0.0161936 -0 -0.00144456)
(-0.0148545 -3.00763 -0 0.0150013 -0 -0.000146852)
(-0.0173895 -4.11674 -0 0.0182643 -0 -0.000874764)
(-4.2205e-05 -4.86577 -0 0.00336508 -0 -0.00332288)
(0.0379512 -4.13893 -0 -0.0354163 -0 -0.00253493)
(0.0505088 -1.55561 -0 -0.0534742 -0 0.00296535)
(0.0371481 0.611189 -0 -0.0455321 -0 0.00838403)
(0.0288604 2.32401 -0 -0.0326699 -0 0.0038095)
(0.00311329 3.40038 -0 -0.00658049 -0 0.00346721)
(-0.0251084 2.09855 -0 0.0285698 -0 -0.00346142)
(-0.0186607 1.52724 -0 0.0143262 -0 0.00433453)
(0.0737204 0.656687 -0 -0.0792332 -0 0.00551284)
(-0.115949 6.16638 -0 0.107067 -0 0.00888157)
(-0.427836 -7.31505 -8.85108e-21 0.680663 -0 -0.252827)
(0.0151777 -2.96812 -0 -0.0151869 -0 9.13902e-06)
(0.00176114 -1.4673 -0 -0.00174951 -0 -1.16355e-05)
(0.000440676 -1.10905 -0 -0.000440076 -0 -6.00374e-07)
(0.000235885 -0.941006 -0 -0.000235831 -0 -5.36118e-08)
(0.000155688 -0.839411 -0 -0.000156157 -0 4.69718e-07)
(0.000115392 -0.769823 -0 -0.00011556 -0 1.68021e-07)
(9.27943e-05 -0.717113 -0 -9.34662e-05 -0 6.71884e-07)
(7.6804e-05 -0.675768 -0 -7.69972e-05 -0 1.93141e-07)
(6.57378e-05 -0.641826 -0 -6.65473e-05 -0 8.09488e-07)
(5.67822e-05 -0.614291 -0 -5.70083e-05 -0 2.26184e-07)
(5.11167e-05 -0.590312 -0 -5.19076e-05 -0 7.90857e-07)
(4.57035e-05 -0.570163 -0 -4.58403e-05 -0 1.36787e-07)
(4.24036e-05 -0.551899 -0 -4.30259e-05 -0 6.22316e-07)
(3.87062e-05 -0.536257 -0 -3.86356e-05 -0 -7.05773e-08)
(3.67293e-05 -0.521657 -0 -3.70508e-05 -0 3.2143e-07)
(3.41109e-05 -0.508931 -0 -3.37073e-05 -0 -4.03545e-07)
(3.29244e-05 -0.496773 -0 -3.27989e-05 -0 -1.25496e-07)
(3.09804e-05 -0.486006 -0 -3.01021e-05 -0 -8.78324e-07)
(3.02461e-05 -0.47555 -0 -2.95159e-05 -0 -7.30216e-07)
(2.87383e-05 -0.466157 -0 -2.72333e-05 -0 -1.50498e-06)
(2.82534e-05 -0.456941 -0 -2.67584e-05 -0 -1.49494e-06)
(2.70432e-05 -0.448551 -0 -2.47574e-05 -0 -2.28578e-06)
(2.66869e-05 -0.440273 -0 -2.42693e-05 -0 -2.41761e-06)
(2.56791e-05 -0.432643 -0 -2.24595e-05 -0 -3.21961e-06)
(2.53528e-05 -0.425103 -0 -2.18665e-05 -0 -3.48629e-06)
(2.44577e-05 -0.418084 -0 -2.0177e-05 -0 -4.2807e-06)
(2.40984e-05 -0.411165 -0 -1.94566e-05 -0 -4.64175e-06)
(2.33068e-05 -0.404677 -0 -1.79241e-05 -0 -5.38272e-06)
(2.3004e-05 -0.398304 -0 -1.7232e-05 -0 -5.77202e-06)
(2.24886e-05 -0.392271 -0 -1.60674e-05 -0 -6.42116e-06)
(2.24941e-05 -0.38633 -0 -1.56772e-05 -0 -6.81688e-06)
(2.25014e-05 -0.380604 -0 -1.50944e-05 -0 -7.40698e-06)
(2.3014e-05 -0.374902 -0 -1.51308e-05 -0 -7.88321e-06)
(2.36494e-05 -0.369268 -0 -1.51316e-05 -0 -8.51773e-06)
(2.4711e-05 -0.363576 -0 -1.55276e-05 -0 -9.18341e-06)
(2.60152e-05 -0.357813 -0 -1.60597e-05 -0 -9.95554e-06)
(2.78004e-05 -0.351905 -0 -1.6945e-05 -0 -1.08553e-05)
(3.01317e-05 -0.345766 -0 -1.83315e-05 -0 -1.18002e-05)
(3.32846e-05 -0.339346 -0 -2.0377e-05 -0 -1.29076e-05)
(3.76659e-05 -0.332464 -0 -2.36136e-05 -0 -1.40523e-05)
(4.32033e-05 -0.325011 -0 -2.78806e-05 -0 -1.53228e-05)
(5.15311e-05 -0.316846 -0 -3.48343e-05 -0 -1.66968e-05)
(6.10758e-05 -0.307469 -0 -4.2822e-05 -0 -1.82538e-05)
(7.44846e-05 -0.297155 -0 -5.50129e-05 -0 -1.94717e-05)
(9.4263e-05 -0.285013 -0 -7.21047e-05 -0 -2.21583e-05)
(0.000108418 -0.270236 -0 -8.58741e-05 -0 -2.25439e-05)
(0.000145252 -0.255722 -0 -0.000120164 -0 -2.50875e-05)
(0.000178352 -0.2337 -0 -0.000146898 -0 -3.14543e-05)
(0.000175944 -0.211652 -0 -0.00015563 -0 -2.0314e-05)
(0.000308925 -0.194017 -0 -0.000266357 -0 -4.25679e-05)
(0.000300552 -0.144066 -0 -0.000256806 -0 -4.37459e-05)
(0.00012822 -0.127006 -0 -0.000139318 -0 1.10973e-05)
(0.000817536 -0.121598 -0 -0.000701077 -0 -0.000116459)
(0.000318924 0.0325526 -0 -0.000213179 -0 -0.000105745)
(-0.00110477 -0.0382807 -0 0.00083562 -0 0.00026915)
(0.00252194 -0.169579 -0 -0.00209293 -0 -0.000429001)
(0.00637378 0.400724 -0 -0.00587665 -0 -0.000497125)
(-0.00338012 0.770416 -0 0.00369209 -0 -0.000311968)
(-0.0108698 -0.081226 -0 0.0104162 -0 0.000453577)
(0.000973152 -0.67799 -0 0.000310341 -0 -0.00128349)
(0.0179244 0.267621 -0 -0.0181534 -0 0.000229026)
(0.00952169 1.38046 -0 -0.00804834 -0 -0.00147335)
(-0.00955902 1.25448 -0 0.0100723 -0 -0.000513332)
(-0.0323525 0.503139 -0 0.0335141 -0 -0.00116154)
(-0.0584473 -1.13897 -0 0.0565931 -0 0.00185421)
(-0.0510383 -3.40576 -0 0.047266 -0 0.00377224)
(0.0179558 -4.28076 -0 -0.0134865 -0 -0.00446923)
(0.109569 -2.27317 -0 -0.114687 -0 0.00511712)
(0.075801 1.67498 -0 -0.0730433 -0 -0.00275777)
(0.00950691 1.95399 -0 -0.0102858 -0 0.000778868)
(-0.0167707 1.67988 -0 0.0177299 -0 -0.000959173)
(-0.0323015 1.08035 -0 0.0316519 -0 0.000649571)
(-0.0501815 0.11898 -0 0.0481644 -0 0.00201716)
(-0.057666 -1.16923 -0 0.0562333 -0 0.00143262)
(-0.0409408 -2.19786 -0 0.0401211 -0 0.000819658)
(-0.0364033 -2.68087 -0 0.0358414 -0 0.000561933)
(-0.0390646 -3.44238 -0 0.0383217 -0 0.000742843)
(-0.00176599 -3.91751 -0 7.46599e-05 -0 0.00169133)
(0.0704325 -3.43121 -0 -0.0698553 -0 -0.000577236)
(0.113726 -1.56124 -0 -0.106843 -0 -0.00688267)
(0.117838 0.764666 -0 -0.117612 -0 -0.000226012)
(0.0809157 1.798 -0 -0.0768967 -0 -0.00401905)
(-0.00898445 2.04177 -0 0.00595656 -0 0.00302789)
(-0.0618938 0.798437 -0 0.0647791 -0 -0.00288537)
(-0.0515739 0.842245 -0 0.0608891 -0 -0.0093152)
(0.152259 0.254115 -0 -0.143519 -0 -0.00874007)
(-0.164077 2.99813 -0 0.0463448 -0 0.117732)
(-0.345724 -2.41188 8.48524e-21 0.38845 -0 -0.0427265)
(0.0142077 -2.52695 -0 -0.0142109 -0 3.25757e-06)
(0.00286373 -1.46024 -0 -0.0028553 -0 -8.42914e-06)
(0.000809672 -1.10566 -0 -0.000810842 -0 1.16978e-06)
(0.000432268 -0.939103 -0 -0.000433354 -0 1.08653e-06)
(0.000285808 -0.837858 -0 -0.000287435 -0 1.62746e-06)
(0.000211818 -0.768464 -0 -0.00021276 -0 9.41844e-07)
(0.000170082 -0.715953 -0 -0.000171775 -0 1.69223e-06)
(0.00014076 -0.674877 -0 -0.000141574 -0 8.13585e-07)
(0.000120313 -0.641105 -0 -0.000122057 -0 1.74351e-06)
(0.000103925 -0.613767 -0 -0.000104667 -0 7.42066e-07)
(9.33314e-05 -0.589973 -0 -9.4956e-05 -0 1.6246e-06)
(8.34487e-05 -0.570049 -0 -8.39816e-05 -0 5.32914e-07)
(7.72272e-05 -0.552007 -0 -7.85353e-05 -0 1.30812e-06)
(7.04948e-05 -0.536615 -0 -7.0651e-05 -0 1.56173e-07)
(6.67191e-05 -0.522274 -0 -6.75138e-05 -0 7.94744e-07)
(6.19548e-05 -0.509831 -0 -6.15413e-05 -0 -4.13516e-07)
(5.96517e-05 -0.497971 -0 -5.97007e-05 -0 4.90012e-08)
(5.61176e-05 -0.487519 -0 -5.4906e-05 -0 -1.21155e-06)
(5.46702e-05 -0.477398 -0 -5.37144e-05 -0 -9.55831e-07)
(5.19314e-05 -0.468349 -0 -4.96721e-05 -0 -2.25926e-06)
(5.09669e-05 -0.459498 -0 -4.87392e-05 -0 -2.22771e-06)
(4.87693e-05 -0.451478 -0 -4.5206e-05 -0 -3.56331e-06)
(4.80629e-05 -0.443589 -0 -4.42972e-05 -0 -3.76563e-06)
(4.62331e-05 -0.436352 -0 -4.11098e-05 -0 -5.12329e-06)
(4.56031e-05 -0.429222 -0 -4.00534e-05 -0 -5.54979e-06)
(4.39815e-05 -0.422613 -0 -3.70862e-05 -0 -6.89524e-06)
(4.33099e-05 -0.416117 -0 -3.58306e-05 -0 -7.47931e-06)
(4.18742e-05 -0.410051 -0 -3.31403e-05 -0 -8.73389e-06)
(4.13039e-05 -0.404109 -0 -3.19368e-05 -0 -9.36712e-06)
(4.03437e-05 -0.398507 -0 -2.98783e-05 -0 -1.04654e-05)
(4.03015e-05 -0.393009 -0 -2.9189e-05 -0 -1.11124e-05)
(4.02432e-05 -0.387734 -0 -2.81378e-05 -0 -1.21054e-05)
(4.10804e-05 -0.382503 -0 -2.81962e-05 -0 -1.28841e-05)
(4.21208e-05 -0.377359 -0 -2.81846e-05 -0 -1.39362e-05)
(4.39291e-05 -0.372188 -0 -2.89119e-05 -0 -1.50171e-05)
(4.61551e-05 -0.366975 -0 -2.98785e-05 -0 -1.62766e-05)
(4.92491e-05 -0.361658 -0 -3.15228e-05 -0 -1.77263e-05)
(5.32892e-05 -0.356152 -0 -3.40393e-05 -0 -1.92499e-05)
(5.87861e-05 -0.35042 -0 -3.77639e-05 -0 -2.10223e-05)
(6.64414e-05 -0.344291 -0 -4.35913e-05 -0 -2.28501e-05)
(7.61064e-05 -0.337666 -0 -5.12318e-05 -0 -2.48745e-05)
(9.07349e-05 -0.330427 -0 -6.3699e-05 -0 -2.70359e-05)
(0.000107495 -0.322093 -0 -7.79712e-05 -0 -2.95237e-05)
(0.000131002 -0.312921 -0 -9.96435e-05 -0 -3.13583e-05)
(0.000166216 -0.30214 -0 -0.00013054 -0 -3.56761e-05)
(0.000190875 -0.288807 -0 -0.000154753 -0 -3.61214e-05)
(0.000256679 -0.275915 -0 -0.000216858 -0 -3.98208e-05)
(0.000315925 -0.255932 -0 -0.000264789 -0 -5.1136e-05)
(0.000312653 -0.235562 -0 -0.000283388 -0 -2.92658e-05)
(0.000549483 -0.220113 -0 -0.000478074 -0 -7.14092e-05)
(0.000538001 -0.17296 -0 -0.00046914 -0 -6.88613e-05)
(0.000245409 -0.157048 -0 -0.000278424 -0 3.30152e-05)
(0.00147263 -0.151841 -0 -0.00125334 -0 -0.000219289)
(0.000562014 -0.00172279 -0 -0.000392122 -0 -0.000169892)
(-0.00169552 -0.0717622 -0 0.00109642 -0 0.000599102)
(0.00444619 -0.175127 -0 -0.00338241 -0 -0.00106377)
(0.0107603 0.374006 -0 -0.0103907 -0 -0.000369544)
(-0.00507199 0.558096 -0 0.00301427 -0 0.00205772)
(-0.0181127 -0.322558 -0 0.0175385 -0 0.000574223)
(0.00276325 -0.636984 -0 0.00111942 -0 -0.00388266)
(0.0312251 0.351159 -0 -0.0326071 -0 0.00138207)
(0.0142328 1.12172 -0 -0.014671 -0 0.000438151)
(-0.0193096 0.551011 -0 0.0190219 -0 0.000287617)
(-0.0535124 -0.360074 -0 0.0521742 -0 0.00133814)
(-0.0947555 -1.56401 -0 0.0940639 -0 0.000691555)
(-0.0781446 -2.84798 -0 0.0796195 -0 -0.00147495)
(0.0376374 -3.09083 -0 -0.0285381 -0 -0.00909933)
(0.187488 -1.2655 -0 -0.200941 -0 0.0134526)
(0.118482 1.64859 -0 -0.121446 -0 0.00296398)
(-0.00266538 1.10326 -0 0.00222104 -0 0.000444347)
(-0.0297952 0.720604 -0 0.0290054 -0 0.000789795)
(-0.0523355 0.174442 -0 0.0479881 -0 0.00434739)
(-0.0817895 -0.664817 -0 0.0784792 -0 0.00331032)
(-0.0894981 -1.46453 -0 0.089838 -0 -0.000339968)
(-0.0620864 -2.02489 -0 0.0638366 -0 -0.00175024)
(-0.0558836 -2.31572 -0 0.0551736 -0 0.000709975)
(-0.0586307 -2.8828 -0 0.0575587 -0 0.00107196)
(0.0063895 -3.0284 -0 -0.00662581 -0 0.000236311)
(0.117185 -2.42975 -0 -0.0969065 -0 -0.0202784)
(0.218791 -0.301829 -0 -0.214084 -0 -0.00470669)
(0.170841 1.47917 -0 -0.172632 -0 0.00179065)
(0.0751218 1.28779 -0 -0.0745956 -0 -0.000526203)
(-0.0435725 0.828074 -0 0.0344293 -0 0.00914321)
(-0.0739679 -0.351032 -0 0.0693726 -0 0.00459528)
(-0.0448785 0.121265 -0 0.0381153 -0 0.00676318)
(0.205686 -0.996952 -0 -0.225696 -0 0.02001)
(-0.22292 -0.582914 -0 0.190568 -0 0.0323516)
(-0.308127 1.01891 -0 0.263207 -0 0.0449201)
(0.0129624 -2.08414 -0 -0.0129614 -0 -1.07456e-06)
(0.00384974 -1.43412 -0 -0.00385072 -0 9.74351e-07)
(0.00124801 -1.09821 -0 -0.00125171 -0 3.70017e-06)
(0.000668178 -0.934537 -0 -0.000670999 -0 2.82123e-06)
(0.000442736 -0.834178 -0 -0.000445915 -0 3.17911e-06)
(0.000328232 -0.765196 -0 -0.000330224 -0 1.99174e-06)
(0.000263246 -0.712946 -0 -0.000266197 -0 2.95156e-06)
(0.000217857 -0.672153 -0 -0.000219454 -0 1.59697e-06)
(0.000186139 -0.638517 -0 -0.000189031 -0 2.89162e-06)
(0.000160761 -0.611317 -0 -0.000162152 -0 1.39124e-06)
(0.000144161 -0.587633 -0 -0.000146802 -0 2.64078e-06)
(0.00012884 -0.567849 -0 -0.000129867 -0 1.02755e-06)
(0.00011903 -0.549936 -0 -0.000121158 -0 2.12788e-06)
(0.000108603 -0.534693 -0 -0.000109046 -0 4.42497e-07)
(0.000102574 -0.520505 -0 -0.000103919 -0 1.34519e-06)
(9.51942e-05 -0.50823 -0 -9.47871e-05 -0 -4.07073e-07)
(9.14439e-05 -0.496556 -0 -9.16838e-05 -0 2.39905e-07)
(8.59774e-05 -0.486302 -0 -8.44036e-05 -0 -1.57383e-06)
(8.35618e-05 -0.4764 -0 -8.23363e-05 -0 -1.22555e-06)
(7.9338e-05 -0.46758 -0 -7.62504e-05 -0 -3.08754e-06)
(7.76873e-05 -0.458982 -0 -7.46272e-05 -0 -3.06012e-06)
(7.43113e-05 -0.451221 -0 -6.93558e-05 -0 -4.95555e-06)
(7.30824e-05 -0.443617 -0 -6.78234e-05 -0 -5.25899e-06)
(7.02874e-05 -0.436669 -0 -6.31142e-05 -0 -7.17319e-06)
(6.92111e-05 -0.429851 -0 -6.14233e-05 -0 -7.78787e-06)
(6.67593e-05 -0.423556 -0 -5.70889e-05 -0 -9.67037e-06)
(6.56623e-05 -0.417391 -0 -5.51671e-05 -0 -1.04952e-05)
(6.35107e-05 -0.411654 -0 -5.12771e-05 -0 -1.22336e-05)
(6.25848e-05 -0.406055 -0 -4.94715e-05 -0 -1.31132e-05)
(6.11238e-05 -0.400796 -0 -4.65035e-05 -0 -1.46203e-05)
(6.09559e-05 -0.395658 -0 -4.54452e-05 -0 -1.55107e-05)
(6.07711e-05 -0.390754 -0 -4.39039e-05 -0 -1.68672e-05)
(6.18527e-05 -0.385926 -0 -4.3912e-05 -0 -1.79406e-05)
(6.32298e-05 -0.381213 -0 -4.38489e-05 -0 -1.93808e-05)
(6.57132e-05 -0.376518 -0 -4.48411e-05 -0 -2.0872e-05)
(6.88143e-05 -0.371821 -0 -4.6219e-05 -0 -2.25954e-05)
(7.31936e-05 -0.367076 -0 -4.86088e-05 -0 -2.45848e-05)
(7.89774e-05 -0.362195 -0 -5.23204e-05 -0 -2.66569e-05)
(8.68969e-05 -0.357151 -0 -5.78281e-05 -0 -2.90688e-05)
(9.80404e-05 -0.35179 -0 -6.65039e-05 -0 -3.15365e-05)
(0.00011211 -0.34601 -0 -7.785e-05 -0 -3.426e-05)
(0.000133505 -0.339724 -0 -9.63362e-05 -0 -3.7169e-05)
(0.000158338 -0.332486 -0 -0.000117865 -0 -4.0473e-05)
(0.000192424 -0.324471 -0 -0.00014949 -0 -4.29336e-05)
(0.0002452 -0.315182 -0 -0.000196465 -0 -4.87354e-05)
(0.000281739 -0.303354 -0 -0.000232572 -0 -4.91669e-05)
(0.000376906 -0.292069 -0 -0.000322361 -0 -5.4545e-05)
(0.000472573 -0.274802 -0 -0.000403377 -0 -6.91956e-05)
(0.000460412 -0.255475 -0 -0.000419834 -0 -4.05784e-05)
(0.00081278 -0.242849 -0 -0.00071513 -0 -9.76502e-05)
(0.000827016 -0.200866 -0 -0.00073321 -0 -9.38063e-05)
(0.00035783 -0.180963 -0 -0.000399054 -0 4.12244e-05)
(0.00218979 -0.181726 -0 -0.00188422 -0 -0.000305576)
(0.000988685 -0.0480483 -0 -0.000758461 -0 -0.000230224)
(-0.00240705 -0.0805293 -0 0.00159278 -0 0.00081427)
(0.00654415 -0.193789 -0 -0.00510156 -0 -0.00144259)
(0.0145582 0.249188 -0 -0.0139638 -0 -0.000594424)
(-0.00959814 0.359269 -0 0.0075897 -0 0.00200844)
(-0.0249604 -0.350998 -0 0.0240279 -0 0.000932568)
(0.00587749 -0.60081 -0 -0.000564241 -0 -0.00531325)
(0.0422952 0.168426 -0 -0.0437328 -0 0.00143764)
(0.0128092 0.685521 -0 -0.0125527 -0 -0.000256585)
(-0.0333384 -0.117915 -0 0.0334681 -0 -0.000129709)
(-0.0735113 -0.904987 -0 0.0728423 -0 0.000668988)
(-0.116811 -1.53279 -0 0.116175 -0 0.000635504)
(-0.089594 -2.01714 -0 0.0880979 -0 0.00149612)
(0.0519925 -1.97866 -0 -0.0398309 -0 -0.0121616)
(0.238445 0.342719 -0 -0.243481 -0 0.00503684)
(0.139514 0.974883 -0 -0.135969 -0 -0.00354539)
(-0.0193165 0.300376 -0 0.0190893 -0 0.000227199)
(-0.0451091 0.0172898 -0 0.0448502 -0 0.00025893)
(-0.0758814 -0.465114 -0 0.0725072 -0 0.00337423)
(-0.106863 -1.01682 -0 0.105023 -0 0.00184016)
(-0.108213 -1.34248 -0 0.108529 -0 -0.000316253)
(-0.074534 -1.59206 -0 0.0750614 -0 -0.000527366)
(-0.0707146 -1.78141 -0 0.0696684 -0 0.00104619)
(-0.0684483 -2.1718 -0 0.0680903 -0 0.000358018)
(0.0140739 -1.95455 -0 -0.0101077 -0 -0.00396617)
(0.199867 -0.323748 -0 -0.198053 -0 -0.00181442)
(0.300611 1.44876 -0 -0.287769 -0 -0.0128414)
(0.184819 0.959183 -0 -0.173316 -0 -0.0115029)
(0.0479078 0.680599 -0 -0.0489962 -0 0.00108844)
(-0.0993823 0.089169 -0 0.0894267 -0 0.00995568)
(-0.107529 -0.834063 -0 0.115738 -0 -0.00820904)
(-0.097458 -0.616545 -0 0.106211 -0 -0.00875308)
(0.138041 -2.17689 -0 -0.170875 -0 0.0328336)
(-0.138955 -2.54274 -0 0.177189 -0 -0.0382337)
(-0.294737 1.17074 -0 0.32848 -0 -0.0337431)
(0.0113951 -1.64865 -0 -0.0113922 -0 -2.97042e-06)
(0.00461401 -1.37394 -0 -0.00461848 -0 4.46641e-06)
(0.00174254 -1.08296 -0 -0.00174709 -0 4.55027e-06)
(0.000946823 -0.926033 -0 -0.000950522 -0 3.69843e-06)
(0.000629721 -0.827924 -0 -0.000634012 -0 4.29104e-06)
(0.00046742 -0.760019 -0 -0.000470161 -0 2.74056e-06)
(0.000374672 -0.708429 -0 -0.000378735 -0 4.06288e-06)
(0.000310147 -0.668173 -0 -0.000312372 -0 2.22538e-06)
(0.000265021 -0.63486 -0 -0.000268998 -0 3.97691e-06)
(0.00022888 -0.60792 -0 -0.000230816 -0 1.93603e-06)
(0.00020501 -0.584451 -0 -0.000208634 -0 3.62412e-06)
(0.000183126 -0.564882 -0 -0.000184554 -0 1.42794e-06)
(0.00016894 -0.547175 -0 -0.000171848 -0 2.90786e-06)
(0.000154033 -0.532138 -0 -0.000154649 -0 6.15472e-07)
(0.00014521 -0.518166 -0 -0.000147031 -0 1.82144e-06)
(0.000134625 -0.506113 -0 -0.000134068 -0 -5.56903e-07)
(0.000129034 -0.494683 -0 -0.000129331 -0 2.97342e-07)
(0.000121169 -0.484677 -0 -0.000119012 -0 -2.15662e-06)
(0.00011748 -0.475055 -0 -0.000115771 -0 -1.70901e-06)
(0.000111388 -0.466515 -0 -0.00010717 -0 -4.21774e-06)
(0.000108799 -0.458229 -0 -0.000104597 -0 -4.20221e-06)
(0.00010392 -0.450782 -0 -9.71769e-05 -0 -6.74327e-06)
(0.00010195 -0.443523 -0 -9.47817e-05 -0 -7.16782e-06)
(9.79091e-05 -0.436919 -0 -8.81904e-05 -0 -9.71862e-06)
(9.6192e-05 -0.430474 -0 -8.56427e-05 -0 -1.05492e-05)
(9.26724e-05 -0.424549 -0 -7.96348e-05 -0 -1.30376e-05)
(9.09824e-05 -0.418777 -0 -7.68525e-05 -0 -1.413e-05)
(8.79196e-05 -0.413427 -0 -7.15167e-05 -0 -1.64029e-05)
(8.64938e-05 -0.40823 -0 -6.89477e-05 -0 -1.7546e-05)
(8.43611e-05 -0.40337 -0 -6.48704e-05 -0 -1.94907e-05)
(8.39243e-05 -0.39865 -0 -6.32936e-05 -0 -2.06307e-05)
(8.34361e-05 -0.394174 -0 -6.10743e-05 -0 -2.23618e-05)
(8.45955e-05 -0.389806 -0 -6.08658e-05 -0 -2.37297e-05)
(8.61145e-05 -0.38558 -0 -6.05569e-05 -0 -2.55576e-05)
(8.90884e-05 -0.38142 -0 -6.16342e-05 -0 -2.74542e-05)
(9.28741e-05 -0.3773 -0 -6.32424e-05 -0 -2.96317e-05)
(9.8368e-05 -0.373191 -0 -6.62199e-05 -0 -3.2148e-05)
(0.000105755 -0.369006 -0 -7.10057e-05 -0 -3.47496e-05)
(0.000115973 -0.364728 -0 -7.81951e-05 -0 -3.77779e-05)
(0.00013059 -0.360221 -0 -8.97325e-05 -0 -4.08578e-05)
(0.00014906 -0.355387 -0 -0.000104809 -0 -4.42508e-05)
(0.000177341 -0.350167 -0 -0.000129466 -0 -4.7875e-05)
(0.000210792 -0.344166 -0 -0.000158822 -0 -5.19693e-05)
(0.000255395 -0.337464 -0 -0.000200369 -0 -5.50261e-05)
(0.00032738 -0.329855 -0 -0.000265074 -0 -6.23065e-05)
(0.000377113 -0.319801 -0 -0.000314396 -0 -6.27169e-05)
(0.000500557 -0.310326 -0 -0.000430816 -0 -6.97407e-05)
(0.000643014 -0.296166 -0 -0.000554894 -0 -8.81197e-05)
(0.000618211 -0.278391 -0 -0.000566532 -0 -5.1679e-05)
(0.00108381 -0.268632 -0 -0.000957653 -0 -0.000126161)
(0.00117296 -0.232877 -0 -0.00105317 -0 -0.000119792)
(0.000482786 -0.209891 -0 -0.000537009 -0 5.42223e-05)
(0.00289857 -0.215177 -0 -0.00249038 -0 -0.000408191)
(0.00166464 -0.102185 -0 -0.00135832 -0 -0.000306323)
(-0.00305089 -0.0958568 -0 0.00191332 -0 0.00113758)
(0.00775771 -0.227892 -0 -0.0055189 -0 -0.00223881)
(0.0179417 0.0787769 -0 -0.0172429 -0 -0.000698738)