/*--------------------------------*- C++ -*----------------------------------*\
| =========                 |                                                 |
| \\      /  F ield         | OpenFOAM: The Open Source CFD Toolbox           |
|  \\    /   O peration     | Version:  2306                                  |
|   \\  /    A nd           | Website:  www.openfoam.com                      |
|    \\/     M anipulation  |                                                 |
\*---------------------------------------------------------------------------*/
FoamFile
{
    version     2.0;
    format      ascii;
    arch        "LSB;label=32;scalar=64";
    class       volVectorField;
    location    "1700";
    object      U;
}
// * * * * * * * * * * * * * * * * * * * * * * * * * * * * * * * * * * * * * //

dimensions      [0 1 -1 0 0 0 0];

internalField   nonuniform List<vector> 
20540
(
(29.9926 -0.00053392 0)
(58.7347 0.00528867 0)
(30.0663 -0.00171337 0)
(58.61 0.0157013 0)
(30.2605 -0.00312214 0)
(58.2802 0.0263487 0)
(30.6405 -0.00476194 0)
(57.6449 0.0367216 0)
(31.2898 -0.0066109 0)
(56.5932 0.046246 0)
(32.3006 -0.00859323 0)
(55.0245 0.0542069 0)
(33.7483 -0.0105501 0)
(52.8912 0.0598322 0)
(35.6455 -0.0122183 0)
(50.2657 0.062483 0)
(37.8843 -0.0132483 0)
(47.4205 0.0619589 0)
(40.2028 -0.0133218 0)
(44.8649 0.0588733 0)
(42.2242 -0.0123959 0)
(43.2182 0.054831 0)
(43.599 -0.0109283 0)
(42.8287 0.0518867 0)
(44.2067 -0.00972737 0)
(43.3699 0.0511229 0)
(44.2743 -0.00927043 0)
(44.0144 0.0516756 0)
(44.2004 -0.00925958 0)
(44.2539 0.0520127 0)
(44.1871 -0.00922216 0)
(44.2355 0.0517274 0)
(44.2021 -0.00907853 0)
(44.2091 0.0511215 0)
(44.2063 -0.00889516 0)
(44.2092 0.0503314 0)
(44.2058 -0.00868399 0)
(44.2115 0.049373 0)
(44.2055 -0.00843485 0)
(44.2127 0.0482352 0)
(44.2054 -0.00813609 0)
(44.2141 0.0468795 0)
(44.2053 -0.00778172 0)
(44.2155 0.0452658 0)
(44.2052 -0.00736781 0)
(44.2172 0.0433549 0)
(44.2052 -0.00688837 0)
(44.219 0.0410989 0)
(44.2052 -0.00633354 0)
(44.221 0.0384395 0)
(44.2053 -0.00570041 0)
(44.2233 0.0353244 0)
(44.2054 -0.00502599 0)
(44.2258 0.0316934 0)
(44.2055 -0.00434793 0)
(44.2284 0.0273424 0)
(44.2056 -0.00358272 0)
(44.2311 0.0218603 0)
(44.2057 -0.00262059 0)
(44.2337 0.0149772 0)
(44.2058 -0.0017121 0)
(44.2354 0.00780404 0)
(44.2059 -0.00103121 0)
(44.2363 0.00132646 0)
(44.206 -0.00040441 0)
(44.2364 -0.00491951 0)
(44.206 0.000330628 0)
(44.2356 -0.011496 0)
(44.206 0.00128725 0)
(44.234 -0.0185979 0)
(44.2059 0.00226681 0)
(44.2316 -0.0252118 0)
(44.2059 0.00310243 0)
(44.2291 -0.0304384 0)
(44.2058 0.00390692 0)
(44.2266 -0.034566 0)
(44.2058 0.00469921 0)
(44.2242 -0.0379339 0)
(44.2058 0.00543218 0)
(44.222 -0.0407204 0)
(44.2057 0.00608997 0)
(44.22 -0.0430398 0)
(44.2058 0.0066712 0)
(44.2182 -0.0449817 0)
(44.2058 0.00717887 0)
(44.2166 -0.0466156 0)
(44.2059 0.007619 0)
(44.2152 -0.0479929 0)
(44.206 0.007995 0)
(44.2138 -0.0491483 0)
(44.2062 0.00830986 0)
(44.2126 -0.0501121 0)
(44.2067 0.00857703 0)
(44.2111 -0.0509273 0)
(44.2059 0.00880715 0)
(44.2083 -0.0516129 0)
(44.1948 0.00900494 0)
(44.2188 -0.0521624 0)
(44.1845 0.00913063 0)
(44.2597 -0.0525219 0)
(44.2315 0.00914311 0)
(44.2009 -0.0524308 0)
(44.2888 0.00929937 0)
(43.7761 -0.0517628 0)
(44.0583 0.0100721 0)
(43.0878 -0.0514661 0)
(43.1986 0.0114447 0)
(42.8194 -0.0529676 0)
(41.6226 0.0127747 0)
(43.6219 -0.0563647 0)
(39.5329 0.013393 0)
(45.5542 -0.0601763 0)
(37.2739 0.0130432 0)
(48.1706 -0.0625516 0)
(35.1681 0.0118641 0)
(50.911 -0.0622827 0)
(33.4188 0.010167 0)
(53.3651 -0.0590306 0)
(32.0963 0.00825529 0)
(55.3311 -0.0530913 0)
(31.1748 0.00634918 0)
(56.7694 -0.0450814 0)
(30.5813 0.00458026 0)
(57.7338 -0.0356997 0)
(30.232 0.00301104 0)
(58.3183 -0.0255802 0)
(30.0522 0.00165802 0)
(58.6234 -0.0152379 0)
(29.9835 0.000517978 0)
(58.7393 -0.00512982 0)
(3.06891 0.00686573 0)
(1.24959 9.45994e-05 0)
(0.946256 1.77624e-05 0)
(0.802043 9.44331e-06 0)
(0.715555 6.53627e-06 0)
(0.656379 4.81082e-06 0)
(0.611534 4.16992e-06 0)
(0.576269 3.34675e-06 0)
(0.547384 3.0555e-06 0)
(0.523922 2.50391e-06 0)
(0.503491 2.44268e-06 0)
(0.486288 2.01349e-06 0)
(0.47069 2.04349e-06 0)
(0.457307 1.64581e-06 0)
(0.444806 1.72216e-06 0)
(0.433886 1.32806e-06 0)
(0.423434 1.41392e-06 0)
(0.414154 1.00773e-06 0)
(0.405117 1.07324e-06 0)
(0.396973 6.50604e-07 0)
(0.388954 6.73271e-07 0)
(0.381628 2.3579e-07 0)
(0.374371 1.98053e-07 0)
(0.367656 -2.53246e-07 0)
(0.360993 -3.64725e-07 0)
(0.354768 -8.2563e-07 0)
(0.348608 -1.00567e-06 0)
(0.342815 -1.45338e-06 0)
(0.337104 -1.6646e-06 0)
(0.331679 -2.05533e-06 0)
(0.326308 -2.25174e-06 0)
(0.3211 -2.55847e-06 0)
(0.315869 -2.73494e-06 0)
(0.310657 -2.98339e-06 0)
(0.305335 -3.18156e-06 0)
(0.299901 -3.42646e-06 0)
(0.294282 -3.67806e-06 0)
(0.288407 -3.94337e-06 0)
(0.282232 -4.23355e-06 0)
(0.275592 -4.47586e-06 0)
(0.268398 -4.78463e-06 0)
(0.260511 -4.88765e-06 0)
(0.251459 -5.15314e-06 0)
(0.241588 -5.13968e-06 0)
(0.229833 -4.73516e-06 0)
(0.215807 -5.31339e-06 0)
(0.202104 -3.15922e-06 0)
(0.180455 -3.71982e-06 0)
(0.161042 -2.16792e-06 0)
(0.143686 6.41597e-07 0)
(0.0937135 4.57514e-06 0)
(0.0870426 -2.68548e-06 0)
(0.0747661 1.77624e-05 0)
(-0.0883016 3.94321e-06 0)
(0.0365505 3.09544e-05 0)
(0.149199 -0.000448577 0)
(-0.538787 0.00149938 0)
(-0.86283 0.00408514 0)
(0.233614 -0.00198282 0)
(0.759229 -0.00269038 0)
(-0.604249 0.00467607 0)
(-1.90245 0.00608287 0)
(-1.81984 -0.000415834 0)
(-0.0148688 0.0042662 0)
(1.33285 -0.00580747 0)
(4.15793 -0.0137175 0)
(4.42844 -0.000568335 0)
(0.628797 0.018979 0)
(-2.58648 0.0214629 0)
(-2.84749 -0.001077 0)
(-2.46161 0.0028622 0)
(-1.76838 0.00650698 0)
(-0.524797 0.000814077 0)
(1.0161 -0.00557049 0)
(2.14311 -0.00751487 0)
(2.73763 -0.00295341 0)
(3.92419 -0.00608661 0)
(4.6667 -0.00758376 0)
(3.60703 0.00376633 0)
(0.465912 0.0353072 0)
(-1.18043 0.0167457 0)
(-2.28093 0.00410568 0)
(-3.44276 0.00998572 0)
(-2.3081 0.0164169 0)
(-1.66103 0.0594906 0)
(-0.532427 0.0555729 0)
(-6.52571 -0.111635 0)
(7.73794 -0.473018 0)
(9.05267 0.0215333 0)
(4.00518 0.00120216 0)
(3.03008 0.000274344 0)
(2.56929 0.000147705 0)
(2.29185 9.81345e-05 0)
(2.10187 7.24312e-05 0)
(1.95783 5.91971e-05 0)
(1.84463 4.8412e-05 0)
(1.75179 4.25761e-05 0)
(1.67636 3.59978e-05 0)
(1.61065 3.34652e-05 0)
(1.55531 2.89698e-05 0)
(1.50512 2.77674e-05 0)
(1.46203 2.42796e-05 0)
(1.42176 2.37363e-05 0)
(1.38657 2.08794e-05 0)
(1.35289 2.06278e-05 0)
(1.32298 1.8157e-05 0)
(1.29388 1.79578e-05 0)
(1.26766 1.57341e-05 0)
(1.24188 1.5448e-05 0)
(1.21834 1.33944e-05 0)
(1.19506 1.29422e-05 0)
(1.17355 1.10044e-05 0)
(1.15224 1.03363e-05 0)
(1.13235 8.48199e-06 0)
(1.11269 7.6256e-06 0)
(1.09422 5.9226e-06 0)
(1.07604 5.05598e-06 0)
(1.05879 3.68771e-06 0)
(1.04176 3.02821e-06 0)
(1.02529 2.1085e-06 0)
(1.00883 1.66826e-06 0)
(0.992512 1.08643e-06 0)
(0.975955 6.97607e-07 0)
(0.959135 3.10235e-07 0)
(0.941829 -4.13917e-09 0)
(0.923802 -2.41396e-08 0)
(0.904901 1.90606e-07 0)
(0.884614 1.17164e-06 0)
(0.862629 2.64496e-06 0)
(0.838526 5.78251e-06 0)
(0.810881 9.47376e-06 0)
(0.780528 1.58156e-05 0)
(0.744737 2.4828e-05 0)
(0.701574 3.24754e-05 0)
(0.659001 5.14405e-05 0)
(0.594545 6.73778e-05 0)
(0.531471 6.9697e-05 0)
(0.479417 0.000137783 0)
(0.334869 0.000130909 0)
(0.290382 4.03975e-05 0)
(0.273013 0.000410722 0)
(-0.173076 0.000106951 0)
(0.0539844 -0.000803849 0)
(0.467287 0.00142252 0)
(-1.23906 0.00370883 0)
(-2.52966 -0.00569912 0)
(-0.0234006 -0.00736989 0)
(2.05197 0.000305513 0)
(-0.809985 0.0120264 0)
(-4.56715 0.00165643 0)
(-4.84734 -0.0095163 0)
(-2.03884 -0.026103 0)
(2.60565 -0.0338269 0)
(10.6614 -0.0225841 0)
(13.7823 0.0141693 0)
(6.61844 0.0864873 0)
(-5.15485 0.0439388 0)
(-7.25269 0.0143651 0)
(-6.66233 -0.014026 0)
(-4.80335 -0.024558 0)
(-1.77398 -0.0316407 0)
(2.57273 -0.0345163 0)
(6.22158 -0.0240245 0)
(7.98174 -0.0248676 0)
(10.7111 -0.0285701 0)
(12.6252 -0.00338223 0)
(11.1772 0.0571779 0)
(5.27741 0.063252 0)
(-0.866376 0.0809687 0)
(-5.96714 0.0635225 0)
(-8.60377 0.00678437 0)
(-5.08896 -0.0799979 0)
(-3.72625 -0.0907265 0)
(-1.81729 0.091881 0)
(-15.246 -0.0492934 0)
(16.8583 -1.18039 0)
(15.2966 0.0383033 0)
(7.33685 0.00380943 0)
(5.54706 0.000962104 0)
(4.7059 0.000515954 0)
(4.19797 0.000343063 0)
(3.85013 0.000253475 0)
(3.58665 0.000206439 0)
(3.37992 0.000169213 0)
(3.21027 0.00014775 0)
(3.07263 0.000125473 0)
(2.95277 0.000115627 0)
(2.85204 0.000100785 0)
(2.76073 9.57841e-05 0)
(2.68253 8.44894e-05 0)
(2.60953 8.19864e-05 0)
(2.54589 7.28685e-05 0)
(2.48508 7.15934e-05 0)
(2.43122 6.37852e-05 0)
(2.3789 6.29113e-05 0)
(2.33187 5.59223e-05 0)
(2.28572 5.4954e-05 0)
(2.24368 4.85145e-05 0)
(2.20218 4.71556e-05 0)
(2.16391 4.10842e-05 0)
(2.12607 3.91369e-05 0)
(2.09083 3.33267e-05 0)
(2.05606 3.08323e-05 0)
(2.02346 2.54842e-05 0)
(1.99141 2.29543e-05 0)
(1.96107 1.86492e-05 0)
(1.93115 1.67648e-05 0)
(1.9023 1.39228e-05 0)
(1.87352 1.28027e-05 0)
(1.84505 1.11848e-05 0)
(1.81623 1.0414e-05 0)
(1.787 9.65376e-06 0)
(1.75699 9.38265e-06 0)
(1.72578 1.00689e-05 0)
(1.69311 1.18034e-05 0)
(1.65807 1.60558e-05 0)
(1.62013 2.2179e-05 0)
(1.57855 3.4069e-05 0)
(1.53081 4.75795e-05 0)
(1.47838 7.11879e-05 0)
(1.41651 0.000102505 0)
(1.34147 0.0001306 0)
(1.26789 0.000201331 0)
(1.15519 0.000243568 0)
(1.04478 0.000290096 0)
(0.954594 0.000480158 0)
(0.697556 0.000461991 0)
(0.621317 0.000329907 0)
(0.585547 0.00126316 0)
(-0.218386 0.000226348 0)
(0.206777 -0.00108055 0)
(0.852776 0.00293819 0)
(-2.21216 0.0132542 0)
(-4.01279 -0.00295701 0)
(0.656449 -0.0234805 0)
(3.56775 -0.00693869 0)
(-1.77677 0.0448855 0)
(-7.61417 0.0219446 0)
(-6.88312 -0.0225498 0)
(-1.87567 -0.0681212 0)
(6.2396 -0.124256 0)
(18.264 -0.110643 0)
(21.9106 0.0168212 0)
(9.69809 0.276924 0)
(-9.65546 0.176384 0)
(-10.7988 0.0208148 0)
(-9.21087 -0.0360432 0)
(-6.03909 -0.0573916 0)
(-0.803118 -0.0971907 0)
(6.00072 -0.123965 0)
(11.2713 -0.0933154 0)
(13.8157 -0.0784856 0)
(18.1373 -0.0867219 0)
(20.791 -0.00479309 0)
(17.6041 0.149911 0)
(6.54814 0.25648 0)
(-4.71977 0.269888 0)
(-9.67332 0.157167 0)
(-11.6312 0.00400543 0)
(-5.3491 -0.117045 0)
(-5.05894 -0.0684556 0)
(-1.41829 0.354074 0)
(-18.2739 0.0374273 0)
(15.2692 -1.30397 0)
(21.6292 0.0570708 0)
(11.3307 0.00847735 0)
(8.57797 0.00236117 0)
(7.28171 0.00126413 0)
(6.49625 0.000840989 0)
(5.95804 0.000621625 0)
(5.5505 0.00050493 0)
(5.2312 0.000414298 0)
(4.96888 0.00036067 0)
(4.75628 0.000306854 0)
(4.57117 0.000281597 0)
(4.41586 0.000246119 0)
(4.27514 0.000232879 0)
(4.15484 0.0002062 0)
(4.04263 0.000199203 0)
(3.94503 0.00017793 0)
(3.85187 0.000174106 0)
(3.76955 0.000156117 0)
(3.68971 0.000153488 0)
(3.61812 0.000137576 0)
(3.54798 0.000134957 0)
(3.48424 0.000120445 0)
(3.42144 0.000117131 0)
(3.36367 0.000103572 0)
(3.30664 9.90974e-05 0)
(3.25365 8.62236e-05 0)
(3.20148 8.0656e-05 0)
(3.15263 6.88786e-05 0)
(3.10471 6.33142e-05 0)
(3.05942 5.38882e-05 0)
(3.01488 4.98141e-05 0)
(2.97202 4.36808e-05 0)
(2.9294 4.14042e-05 0)
(2.88736 3.81171e-05 0)
(2.84496 3.68369e-05 0)
(2.80209 3.5723e-05 0)
(2.75824 3.59341e-05 0)
(2.71272 3.84942e-05 0)
(2.6652 4.37539e-05 0)
(2.61434 5.5038e-05 0)
(2.55929 7.0967e-05 0)
(2.49907 0.000100585 0)
(2.42985 0.000134595 0)
(2.35372 0.000191822 0)
(2.26416 0.000269183 0)
(2.15441 0.000337846 0)
(2.0475 0.00050643 0)
(1.88335 0.000617455 0)
(1.71827 0.000721694 0)
(1.58931 0.00118332 0)
(1.20925 0.00116127 0)
(1.08398 0.000835384 0)
(1.04186 0.00307308 0)
(-0.154093 0.000692506 0)
(0.416268 -0.00211223 0)
(1.3487 0.0074753 0)
(-3.09016 0.0292409 0)
(-5.28519 -0.00890241 0)
(1.60655 -0.0506018 0)
(5.23392 -0.0119188 0)
(-2.5371 0.0985231 0)
(-10.0916 0.0389151 0)
(-7.4475 -0.0582569 0)
(-0.0932451 -0.156967 0)
(10.4385 -0.27141 0)
(24.7151 -0.226929 0)
(29.0566 0.0670227 0)
(12.9244 0.635611 0)
(-13.2662 0.357987 0)
(-12.5681 0.00813083 0)
(-10.0863 -0.0869331 0)
(-5.50164 -0.137578 0)
(1.67697 -0.224426 0)
(9.9015 -0.263528 0)
(16.2887 -0.189697 0)
(19.4833 -0.163266 0)
(24.9932 -0.171576 0)
(27.5482 0.0157679 0)
(23.1744 0.248271 0)
(6.66627 0.598009 0)
(-8.18354 0.520587 0)
(-12.2584 0.247394 0)
(-12.5105 -0.0621085 0)
(-3.10313 -0.250209 0)
(-4.13009 -0.18154 0)
(3.57419 0.71199 0)
(-11.3419 -0.502194 0)
(9.7541 -1.75423 0)
(27.8231 0.077445 0)
(16.0328 0.0156328 0)
(12.2119 0.00484144 0)
(10.3782 0.0025987 0)
(9.26128 0.00173134 0)
(8.49479 0.00128049 0)
(7.9142 0.00103844 0)
(7.45989 0.000852548 0)
(7.08608 0.000741012 0)
(6.78334 0.000631022 0)
(6.51973 0.000577541 0)
(6.29892 0.000505376 0)
(6.0989 0.000476813 0)
(5.9282 0.000422883 0)
(5.7691 0.000407282 0)
(5.63099 0.000364537 0)
(5.49936 0.000355632 0)
(5.3833 0.000319732 0)
(5.27093 0.000313513 0)
(5.17042 0.000281978 0)
(5.07214 0.000276052 0)
(4.98306 0.000247484 0)
(4.89548 0.000240433 0)
(4.81512 0.000213917 0)
(4.73597 0.000204836 0)
(4.6626 0.000179844 0)
(4.59051 0.000168865 0)
(4.52317 0.000146157 0)
(4.45724 0.000135338 0)
(4.39506 0.000117233 0)
(4.33406 0.00010933 0)
(4.27555 9.75469e-05 0)
(4.21757 9.31286e-05 0)
(4.16062 8.68641e-05 0)
(4.10343 8.45416e-05 0)
(4.04584 8.27072e-05 0)
(3.9872 8.3666e-05 0)
(3.92654 8.94083e-05 0)
(3.86345 0.000100693 0)
(3.7961 0.000124106 0)
(3.72331 0.000156832 0)
(3.64386 0.00021678 0)
(3.5525 0.000286568 0)
(3.45176 0.000400064 0)
(3.33395 0.000558574 0)
(3.18756 0.00069674 0)
(3.04596 0.00102752 0)
(2.82926 0.00127592 0)
(2.60183 0.00146016 0)
(2.43585 0.00238508 0)
(1.92553 0.0024406 0)
(1.72725 0.0016873 0)
(1.6979 0.00613069 0)
(0.0875744 0.00188435 0)
(0.698122 -0.00345183 0)
(2.03678 0.0141484 0)
(-3.6844 0.0543387 0)
(-6.1336 -0.0202613 0)
(2.79051 -0.0945571 0)
(7.21099 -0.0216791 0)
(-2.73737 0.183775 0)
(-11.6502 0.0592554 0)
(-5.97884 -0.126734 0)
(3.76944 -0.289379 0)
(15.5495 -0.477428 0)
(30.3146 -0.374103 0)
(33.5503 0.0982605 0)
(6.73825 1.02773 0)
(-15.3668 0.578449 0)
(-12.4157 -0.0392194 0)
(-9.13914 -0.173584 0)
(-3.05681 -0.27036 0)
(5.43915 -0.413467 0)
(14.106 -0.456479 0)
(20.7999 -0.324345 0)
(24.4687 -0.288793 0)
(31.1315 -0.294056 0)
(32.3543 0.0113081 0)
(18.5695 0.781545 0)
(-3.11616 1.09866 0)
(-10.3572 0.755148 0)
(-13.6341 0.304716 0)
(-12.0205 -0.246276 0)
(-0.270988 -0.501093 0)
(-1.1972 -0.42686 0)
(12.0226 0.956101 0)
(-2.70786 -0.565427 0)
(6.37706 -2.4135 0)
(33.5884 0.0985929 0)
(21.3937 0.0255652 0)
(16.5249 0.00888421 0)
(14.0793 0.00482109 0)
(12.5744 0.00322082 0)
(11.538 0.00238494 0)
(10.7518 0.00193224 0)
(10.1371 0.00158736 0)
(9.63029 0.00137851 0)
(9.21995 0.00117474 0)
(8.86257 0.001073 0)
(8.56363 0.000939565 0)
(8.29295 0.0008844 0)
(8.06229 0.000785062 0)
(7.84756 0.000754089 0)
(7.66152 0.000675629 0)
(7.48452 0.000657263 0)
(7.32881 0.000591671 0)
(7.1784 0.000578562 0)
(7.0442 0.000521256 0)
(6.91333 0.000509046 0)
(6.79502 0.000457429 0)
(6.67904 0.000443559 0)
(6.5729 0.000395959 0)
(6.46868 0.000378866 0)
(6.37232 0.000334371 0)
(6.2779 0.000314359 0)
(6.18991 0.00027428 0)
(6.10398 0.000254891 0)
(6.02314 0.000223072 0)
(5.94409 0.000208876 0)
(5.86852 0.000188043 0)
(5.79399 0.000179878 0)
(5.7211 0.000168623 0)
(5.64835 0.000164267 0)
(5.57544 0.000161015 0)
(5.50163 0.000162924 0)
(5.42564 0.000173599 0)
(5.34698 0.000194327 0)
(5.26333 0.000237074 0)
(5.17313 0.00029646 0)
(5.07497 0.000404287 0)
(4.96213 0.000532371 0)
(4.83727 0.000732561 0)
(4.69243 0.0010238 0)
(4.50952 0.00127456 0)
(4.33368 0.001849 0)
(4.06669 0.00235622 0)
(3.77173 0.002637 0)
(3.57206 0.00427465 0)
(2.93179 0.004646 0)
(2.63695 0.00303401 0)
(2.63469 0.0108041 0)
(0.617058 0.00467255 0)
(1.12791 -0.00495049 0)
(3.03655 0.0192647 0)
(-3.5987 0.0905001 0)
(-6.0686 -0.0334125 0)
(4.3869 -0.159881 0)
(9.73649 -0.0325671 0)
(-1.89198 0.308905 0)
(-12.0342 0.111253 0)
(-2.50809 -0.242745 0)
(9.1549 -0.48237 0)
(21.5405 -0.739315 0)
(35.6021 -0.529621 0)
(31.5335 0.434195 0)
(-0.465801 1.54762 0)
(-15.5029 0.71848 0)
(-10.7453 -0.120334 0)
(-6.56499 -0.316534 0)
(0.962045 -0.474506 0)
(9.89588 -0.659851 0)
(18.3714 -0.690883 0)
(24.4928 -0.488588 0)
(28.6468 -0.475152 0)
(36.2502 -0.420775 0)
(31.9605 0.446888 0)
(9.06154 1.49651 0)
(-7.39195 1.53385 0)
(-11.3401 0.947864 0)
(-13.9356 0.292898 0)
(-10.902 -0.583835 0)
(1.22311 -0.908701 0)
(2.17155 -0.84088 0)
(17.9807 0.879177 0)
(0.218354 0.995168 0)
(3.60759 -2.97403 0)
(38.5775 0.119138 0)
(27.2048 0.038213 0)
(21.5336 0.0150079 0)
(18.4512 0.00833682 0)
(16.5122 0.00559985 0)
(15.1663 0.00415657 0)
(14.1419 0.00336591 0)
(13.3403 0.00276838 0)
(12.6776 0.00240241 0)
(12.1407 0.00204969 0)
(11.673 0.00186804 0)
(11.282 0.0016374 0)
(10.9283 0.00153712 0)
(10.6272 0.00136616 0)
(10.3474 0.00130811 0)
(10.1053 0.00117363 0)
(9.87567 0.0011378 0)
(9.67401 0.00102599 0)
(9.47987 0.000999833 0)
(9.30705 0.00090278 0)
(9.13913 0.000878899 0)
(8.98772 0.000792091 0)
(8.83986 0.000766205 0)
(8.70492 0.00068678 0)
(8.57294 0.000656404 0)
(8.45124 0.000582896 0)
(8.33243 0.000548659 0)
(8.22198 0.000483145 0)
(8.11447 0.000450678 0)
(8.01361 0.000398975 0)
(7.91536 0.000375202 0)
(7.82178 0.00034118 0)
(7.73001 0.000327137 0)
(7.64072 0.00030848 0)
(7.55223 0.00030092 0)
(7.46408 0.000295675 0)
(7.37552 0.000299257 0)
(7.28485 0.00031782 0)
(7.19159 0.000353299 0)
(7.09293 0.000425978 0)
(6.98689 0.000526366 0)
(6.87195 0.000706403 0)
(6.74003 0.000925948 0)
(6.5935 0.00125289 0)
(6.42509 0.00175125 0)
(6.20906 0.00217804 0)
(6.00201 0.00309509 0)
(5.69134 0.00406482 0)
(5.33015 0.00444266 0)
(5.1004 0.00711838 0)
(4.34248 0.00830016 0)
(3.9404 0.00507216 0)
(3.9597 0.0176598 0)
(1.5838 0.010603 0)
(1.89269 -0.00708264 0)
(4.44449 0.0234551 0)
(-2.77303 0.134171 0)
(-4.52015 -0.0556388 0)
(6.59395 -0.253658 0)
(12.8226 -0.0228673 0)
(0.795701 0.501695 0)
(-10.5294 0.0572763 0)
(2.33648 -0.446103 0)
(15.3615 -0.73555 0)
(28.0353 -1.03369 0)
(39.6253 -0.607279 0)
(26.6058 0.954166 0)
(-6.45593 2.15026 0)
(-13.053 0.796793 0)
(-8.00198 -0.218632 0)
(-2.8089 -0.532711 0)
(5.79461 -0.750797 0)
(14.4886 -0.953462 0)
(22.2265 -0.938343 0)
(27.1512 -0.675854 0)
(32.016 -0.729705 0)
(39.1329 -0.464837 0)
(26.5447 1.18411 0)
(0.197064 2.35173 0)
(-8.14881 1.89155 0)
(-11.606 1.14042 0)
(-13.1905 0.230853 0)
(-9.16816 -0.94 0)
(1.83057 -1.43916 0)
(3.92563 -1.375 0)
(20.377 0.775364 0)
(3.98667 1.55871 0)
(1.78433 -3.68002 0)
(42.4167 0.137179 0)
(33.0437 0.0528671 0)
(27.1113 0.0235641 0)
(23.493 0.0136117 0)
(21.117 0.00924307 0)
(19.4395 0.00689352 0)
(18.1527 0.00558396 0)
(17.1421 0.00460289 0)
(16.3032 0.0039914 0)
(15.6217 0.00341265 0)
(15.0277 0.00310162 0)
(14.531 0.00272403 0)
(14.0821 0.00254819 0)
(13.6999 0.00227003 0)
(13.3457 0.00216457 0)
(13.0395 0.00194717 0)
(12.75 0.00187932 0)
(12.4962 0.00170002 0)
(12.2529 0.00164947 0)
(12.0367 0.00149524 0)
(11.8276 0.00145013 0)
(11.6395 0.00131346 0)
(11.4567 0.00126699 0)
(11.2903 0.00114315 0)
(11.1283 0.00109156 0)
(10.9794 0.000978247 0)
(10.8346 0.000922598 0)
(10.7003 0.000822759 0)
(10.5702 0.000771296 0)
(10.4483 0.000693012 0)
(10.3302 0.000655385 0)
(10.2182 0.000603641 0)
(10.1089 0.000580915 0)
(10.0033 0.000552205 0)
(9.89943 0.000540062 0)
(9.79672 0.0005325 0)
(9.69442 0.000539151 0)
(9.59047 0.00056998 0)
(9.48438 0.000627709 0)
(9.37294 0.000744667 0)
(9.25376 0.000905452 0)
(9.12525 0.00118907 0)
(8.97827 0.00154546 0)
(8.81454 0.00204872 0)
(8.628 0.00285375 0)
(8.38603 0.00354382 0)
(8.15371 0.00491733 0)
(7.80992 0.0066519 0)
(7.39429 0.0071043 0)
(7.13665 0.0112412 0)
(6.28768 0.014024 0)
(5.79501 0.00800681 0)
(5.79843 0.0276066 0)
(3.1638 0.0217478 0)
(3.27315 -0.0121491 0)
(6.30284 0.0303299 0)
(-1.3213 0.185795 0)
(-1.12756 -0.0940215 0)
(9.70448 -0.378582 0)
(15.3323 -0.0216871 0)
(0.554093 0.639369 0)
(-7.2846 0.177049 0)
(8.05756 -0.677486 0)
(20.4165 -1.04519 0)
(32.2216 -1.33141 0)
(41.22 -0.563857 0)
(19.8823 1.71162 0)
(-9.17299 2.7265 0)
(-9.84823 0.831036 0)
(-4.71515 -0.390952 0)
(1.65681 -0.821474 0)
(9.19451 -1.06153 0)
(16.726 -1.27193 0)
(23.8664 -1.20319 0)
(28.5729 -0.907964 0)
(34.2472 -1.00012 0)
(38.187 -0.130434 0)
(17.7211 2.33613 0)
(-5.50173 3.16059 0)
(-7.83901 2.10448 0)
(-11.3677 1.20703 0)
(-11.7587 0.150027 0)
(-7.15471 -1.30914 0)
(1.77525 -1.96661 0)
(4.38783 -2.07062 0)
(20.7594 0.587917 0)
(4.96074 2.70425 0)
(0.393847 -4.25254 0)
(44.7905 0.15056 0)
(38.2764 0.0679051 0)
(32.8774 0.0343567 0)
(29.0424 0.0209907 0)
(26.3319 0.014549 0)
(24.3521 0.0109513 0)
(22.8075 0.00889086 0)
(21.5826 0.0073579 0)
(20.5588 0.00637821 0)
(19.7218 0.00547251 0)
(18.9912 0.00495844 0)
(18.3782 0.0043687 0)
(17.825 0.00406938 0)
(17.353 0.00363833 0)
(16.917 0.00345182 0)
(16.5395 0.00311788 0)
(16.1845 0.00299304 0)
(15.8729 0.00272056 0)
(15.5761 0.00262605 0)
(15.3123 0.00239436 0)
(15.0589 0.00231196 0)
(14.831 0.00210898 0)
(14.611 0.00202827 0)
(14.4108 0.00184641 0)
(14.2173 0.0017618 0)
(14.0395 0.00159737 0)
(13.8677 0.00151031 0)
(13.7085 0.00136703 0)
(13.555 0.00128862 0)
(13.4115 0.00117683 0)
(13.2731 0.00111945 0)
(13.1422 0.00104496 0)
(13.0154 0.00100933 0)
(12.8935 0.000967205 0)
(12.7746 0.000948026 0)
(12.658 0.000937263 0)
(12.543 0.000948037 0)
(12.4271 0.000995791 0)
(12.31 0.00108418 0)
(12.1881 0.00126185 0)
(12.0587 0.00150575 0)
(11.92 0.0019288 0)
(11.7625 0.00247663 0)
(11.587 0.00321257 0)
(11.3883 0.00444214 0)
(11.1301 0.00550192 0)
(10.8808 0.00745895 0)
(10.5154 0.0103301 0)
(10.0687 0.0108266 0)
(9.78376 0.0169489 0)
(8.87815 0.0222808 0)
(8.34941 0.0120399 0)
(8.2695 0.041668 0)
(5.51856 0.0394443 0)
(5.59187 -0.02095 0)
(8.48981 0.0383925 0)
(-1.21599 0.218845 0)
(3.82239 -0.18197 0)
(13.6316 -0.535628 0)
(17.0267 -0.0458375 0)
(1.18813 0.854991 0)
(-0.780429 0.150229 0)
(12.8798 -0.994326 0)
(23.7884 -1.37818 0)
(34.554 -1.63164 0)
(39.4612 -0.240257 0)
(13.3353 2.64713 0)
(-9.88486 3.17101 0)
(-7.79931 0.871007 0)
(-1.61715 -0.671886 0)
(4.35976 -1.13036 0)
(10.9884 -1.38674 0)
(17.7159 -1.61601 0)
(24.0868 -1.50703 0)
(28.6615 -1.20785 0)
(34.3652 -1.20431 0)
(33.4748 0.544257 0)
(8.95895 3.71739 0)
(-7.081 3.82295 0)
(-7.41253 2.27688 0)
(-10.4338 1.34463 0)
(-10.3981 -0.00469722 0)
(-5.71657 -1.7703 0)
(1.45626 -2.53405 0)
(4.17807 -2.90695 0)
(19.8853 0.437626 0)
(3.16784 4.17578 0)
(-0.287693 -5.12085 0)
(45.6023 0.157573 0)
(42.1847 0.0808234 0)
(38.1394 0.046164 0)
(34.6476 0.0302799 0)
(31.8874 0.0217178 0)
(29.7436 0.016631 0)
(28.0131 0.0135912 0)
(26.6115 0.0113254 0)
(25.4239 0.00982994 0)
(24.441 0.00847906 0)
(23.5789 0.00766367 0)
(22.85 0.00678261 0)
(22.1924 0.00629141 0)
(21.6281 0.00565194 0)
(21.1086 0.0053341 0)
(20.6568 0.00484324 0)
(20.2341 0.00462294 0)
(19.862 0.00422714 0)
(19.5098 0.00405825 0)
(19.1959 0.00372604 0)
(18.8966 0.00358167 0)
(18.6268 0.00329428 0)
(18.3684 0.00315902 0)
(18.1329 0.0029046 0)
(17.9068 0.00277017 0)
(17.6989 0.00254286 0)
(17.4992 0.00241074 0)
(17.314 0.00221469 0)
(17.1363 0.00209871 0)
(16.9701 0.00194618 0)
(16.8106 0.00186099 0)
(16.6599 0.00175797 0)
(16.5147 0.00170316 0)
(16.3757 0.00164289 0)
(16.2412 0.0016122 0)
(16.1102 0.0015957 0)
(15.9821 0.00160992 0)
(15.8543 0.00167785 0)
(15.7263 0.00180429 0)
(15.5945 0.00205852 0)
(15.456 0.0024085 0)
(15.309 0.00300781 0)
(15.1432 0.00380362 0)
(14.9603 0.00483264 0)
(14.7533 0.00660991 0)
(14.4873 0.00814837 0)
(14.2298 0.0108415 0)
(13.8499 0.0152091 0)
(13.4008 0.0157378 0)
(13.0916 0.0245027 0)
(12.1537 0.0330912 0)
(11.6744 0.0174589 0)
(11.4417 0.0605483 0)
(8.69242 0.0634548 0)
(9.04813 -0.0355406 0)
(11.3598 0.0766674 0)
(-0.914699 0.24612 0)
(9.02862 -0.377767 0)
(18.3025 -0.656106 0)
(17.6924 0.141967 0)
(-0.880881 1.04705 0)
(6.03542 -0.147336 0)
(16.7835 -1.33759 0)
(26.3701 -1.73371 0)
(35.5973 -1.86676 0)
(35.3598 0.29821 0)
(7.83491 3.65403 0)
(-8.44948 3.54377 0)
(-5.48651 1.02516 0)
(0.87326 -1.01562 0)
(6.38448 -1.46599 0)
(12.2254 -1.74276 0)
(18.0821 -1.98015 0)
(23.5924 -1.8536 0)
(27.9649 -1.53669 0)
(32.9196 -1.32004 0)
(26.2989 1.63898 0)
(2.04024 5.1133 0)
(-6.08422 4.29054 0)
(-7.0145 2.40324 0)
(-9.27056 1.38356 0)
(-9.39575 -0.229153 0)
(-4.90741 -2.27605 0)
(0.895008 -3.14968 0)
(3.40095 -3.81932 0)
(18.0174 0.477046 0)
(-0.598883 5.75204 0)
(-0.329085 -6.374 0)
(45.1743 0.158083 0)
(44.2826 0.0890028 0)
(42.0459 0.0565808 0)
(39.5186 0.0401719 0)
(37.1768 0.0302568 0)
(35.1682 0.0238546 0)
(33.4418 0.0197842 0)
(31.9842 0.0166849 0)
(30.7154 0.0145542 0)
(29.6407 0.0126551 0)
(28.6866 0.0114352 0)
(27.8681 0.0101826 0)
(27.1267 0.00941837 0)
(26.4836 0.00851051 0)
(25.8919 0.00799748 0)
(25.3728 0.00730489 0)
(24.8891 0.00693832 0)
(24.46 0.00638549 0)
(24.0563 0.00610138 0)
(23.6942 0.00564303 0)
(23.3512 0.0054037 0)
(23.0403 0.00501215 0)
(22.7444 0.00479565 0)
(22.4735 0.0044532 0)
(22.215 0.00424754 0)
(21.9762 0.00394517 0)
(21.748 0.00375127 0)
(21.5356 0.00349309 0)
(21.3325 0.00332701 0)
(21.1419 0.00312666 0)
(20.9594 0.00300439 0)
(20.7867 0.00286706 0)
(20.6209 0.00278575 0)
(20.4622 0.00270215 0)
(20.3093 0.00265428 0)
(20.1611 0.00262844 0)
(20.017 0.00264415 0)
(19.8744 0.00273411 0)
(19.7329 0.00290484 0)
(19.5886 0.0032502 0)
(19.4387 0.00372769 0)
(19.2816 0.00454096 0)
(19.1063 0.00563627 0)
(18.9163 0.00702286 0)
(18.7011 0.00947158 0)
(18.4301 0.0115699 0)
(18.1712 0.0152164 0)
(17.7777 0.021346 0)
(17.3457 0.0218799 0)
(17.0242 0.0342764 0)
(16.0539 0.0459864 0)
(15.7019 0.0246413 0)
(15.292 0.0851457 0)
(12.5586 0.0908358 0)
(13.5241 -0.058274 0)
(14.8531 0.177767 0)
(2.21521 0.290165 0)
(13.8013 -0.598483 0)
(22.3164 -0.764272 0)
(18.1119 0.394685 0)
(-1.8499 1.18348 0)
(10.8552 -0.474618 0)
(20.0424 -1.67531 0)
(28.2505 -2.08997 0)
(35.9764 -2.01976 0)
(30.6885 1.06653 0)
(4.35032 4.70445 0)
(-4.74141 3.81887 0)
(-0.397423 0.689132 0)
(3.46816 -1.43912 0)
(8.18575 -1.82596 0)
(13.1478 -2.10692 0)
(18.1445 -2.37223 0)
(22.7419 -2.20031 0)
(26.5879 -1.90463 0)
(30.0759 -1.06556 0)
(18.5842 3.0837 0)
(-2.19619 6.37007 0)
(-4.39095 4.57854 0)
(-6.58398 2.56934 0)
(-8.09398 1.47886 0)
(-8.42825 -0.30713 0)
(-4.23177 -2.80529 0)
(0.258585 -3.80679 0)
(2.1808 -4.7331 0)
(15.4214 0.738831 0)
(-4.92456 7.46767 0)
(0.255036 -8.39455 0)
(44.2909 0.154465 0)
(44.7257 0.0913969 0)
(44.0682 0.0629681 0)
(42.8021 0.0481915 0)
(41.3147 0.0384482 0)
(39.8341 0.0315938 0)
(38.4222 0.0269042 0)
(37.1393 0.0231547 0)
(35.9634 0.0204377 0)
(34.9253 0.0179938 0)
(33.9787 0.0163273 0)
(33.1449 0.0146654 0)
(32.3796 0.0135686 0)
(31.7028 0.0123505 0)
(31.0765 0.0115846 0)
(30.5188 0.0106533 0)
(29.9984 0.0100898 0)
(29.5311 0.00934984 0)
(29.092 0.00890786 0)
(28.694 0.00829971 0)
(28.3178 0.00793056 0)
(27.9736 0.00741665 0)
(27.6469 0.00709114 0)
(27.3453 0.00664686 0)
(27.0581 0.00634847 0)
(26.7908 0.00596088 0)
(26.5357 0.00568936 0)
(26.2965 0.00536209 0)
(26.0678 0.00513514 0)
(25.8519 0.00488268 0)
(25.645 0.00471646 0)
(25.4482 0.00454204 0)
(25.2592 0.00442953 0)
(25.078 0.00432018 0)
(24.9035 0.00425187 0)
(24.7344 0.00421528 0)
(24.5705 0.00423237 0)
(24.4092 0.0043476 0)
(24.2499 0.00456998 0)
(24.0893 0.00502243 0)
(23.9241 0.00564748 0)
(23.7536 0.00671698 0)
(23.5656 0.00815757 0)
(23.3664 0.00996686 0)
(23.142 0.0132281 0)
(22.8643 0.0159097 0)
(22.6079 0.0208129 0)
(22.201 0.0289192 0)
(21.7894 0.0292252 0)
(21.4741 0.0469105 0)
(20.4603 0.060481 0)
(20.2721 0.0336291 0)
(19.6926 0.11781 0)
(16.9788 0.11515 0)
(18.6753 -0.0806372 0)
(18.4027 0.296235 0)
(7.9711 0.34129 0)
(18.8178 -0.848368 0)
(26.0116 -0.822374 0)
(18.4121 0.764408 0)
(1.15834 1.30723 0)
(14.956 -0.805252 0)
(22.9596 -2.01142 0)
(29.9291 -2.44682 0)
(35.5336 -1.96959 0)
(26.0804 2.09292 0)
(3.04701 5.63327 0)
(-1.10591 3.8323 0)
(3.25378 0.392806 0)
(6.16701 -1.83027 0)
(9.98178 -2.19021 0)
(14.082 -2.478 0)
(18.1116 -2.74213 0)
(21.7459 -2.57611 0)
(25.1042 -2.17084 0)
(25.792 -0.412096 0)
(11.5005 4.82826 0)
(-3.89947 7.34773 0)
(-2.94736 4.73299 0)
(-5.88088 2.78622 0)
(-6.82235 1.53311 0)
(-7.26912 -0.435133 0)
(-3.61618 -3.28718 0)
(-0.438218 -4.48177 0)
(0.468912 -5.56606 0)
(12.5491 1.1932 0)
(-7.71736 8.91651 0)
(1.35583 -11.1061 0)
(43.802 0.150767 0)
(44.3926 0.0899946 0)
(44.532 0.0646206 0)
(44.2379 0.0522174 0)
(43.6543 0.0438769 0)
(42.9144 0.0377181 0)
(42.0816 0.0332757 0)
(41.2301 0.0294869 0)
(40.3771 0.026576 0)
(39.5697 0.0238497 0)
(38.7945 0.0218841 0)
(38.0797 0.0199142 0)
(37.403 0.0185267 0)
(36.785 0.0170326 0)
(36.2021 0.0160129 0)
(35.6702 0.0148504 0)
(35.1682 0.0140733 0)
(34.7083 0.0131438 0)
(34.273 0.0125236 0)
(33.8717 0.011761 0)
(33.4906 0.0112434 0)
(33.1369 0.0106033 0)
(32.7997 0.010154 0)
(32.4844 0.00960597 0)
(32.183 0.00920466 0)
(31.8992 0.00873206 0)
(31.6273 0.0083772 0)
(31.3698 0.0079832 0)
(31.1226 0.00769374 0)
(30.8872 0.00739329 0)
(30.6608 0.00718439 0)
(30.444 0.00697767 0)
(30.2351 0.00683649 0)
(30.034 0.0067056 0)
(29.84 0.00661954 0)
(29.6519 0.00657594 0)
(29.4696 0.00659848 0)
(29.2908 0.0067455 0)
(29.115 0.00702829 0)
(28.9392 0.00760599 0)
(28.7602 0.00839604 0)
(28.5781 0.00976552 0)
(28.3798 0.0115959 0)
(28.1735 0.0138809 0)
(27.9447 0.0181213 0)
(27.6629 0.0213627 0)
(27.4156 0.0278617 0)
(27.0019 0.0382104 0)
(26.6162 0.0377947 0)
(26.3176 0.0630132 0)
(25.2696 0.0764694 0)
(25.2646 0.0443066 0)
(24.4701 0.16135 0)
(21.9329 0.130935 0)
(24.1592 -0.0895561 0)
(22.1004 0.430337 0)
(14.5896 0.356205 0)
(24.048 -1.10918 0)
(29.5113 -0.807162 0)
(18.946 1.19837 0)
(7.17473 1.41035 0)
(19.2621 -1.18748 0)
(25.8872 -2.35851 0)
(31.3062 -2.72241 0)
(34.8421 -1.82495 0)
(22.1737 3.2775 0)
(4.08086 6.43526 0)
(1.98662 3.96949 0)
(6.30126 0.234386 0)
(8.90416 -2.15524 0)
(11.8869 -2.5379 0)
(15.1784 -2.83465 0)
(18.2169 -3.0955 0)
(21.0596 -2.93444 0)
(23.4298 -2.30354 0)
(21.0616 0.627094 0)
(6.50924 6.57168 0)
(-3.48135 7.99377 0)
(-1.9268 4.82711 0)
(-4.95122 3.05258 0)
(-5.55914 1.57024 0)
(-6.07687 -0.603048 0)
(-2.88978 -3.73009 0)
(-1.17995 -5.0413 0)
(-1.79974 -6.32329 0)
(9.89474 1.57185 0)
(-8.2209 10.2098 0)
(3.0346 -13.9762 0)
(43.9361 0.149507 0)
(44.2228 0.088486 0)
(44.4457 0.0638611 0)
(44.5187 0.0527635 0)
(44.4532 0.0456792 0)
(44.2725 0.0405856 0)
(43.9861 0.0369626 0)
(43.6272 0.0337498 0)
(43.2103 0.031199 0)