/*--------------------------------*- C++ -*----------------------------------*\
| =========                 |                                                 |
| \\      /  F ield         | OpenFOAM: The Open Source CFD Toolbox           |
|  \\    /   O peration     | Version:  2306                                  |
|   \\  /    A nd           | Website:  www.openfoam.com                      |
|    \\/     M anipulation  |                                                 |
\*---------------------------------------------------------------------------*/
FoamFile
{
    version     2.0;
    format      ascii;
    arch        "LSB;label=32;scalar=64";
    class       volVectorField;
    location    "1700";
    object      wallShearStress;
}
// * * * * * * * * * * * * * * * * * * * * * * * * * * * * * * * * * * * * * //

dimensions      [0 2 -2 0 0 0 0];

internalField   uniform (0 0 0);

boundaryField
{
    inlet
    {
        type            calculated;
        value           uniform (0 0 0);
    }
    outlet
    {
        type            calculated;
        value           uniform (0 0 0);
    }
    lowerWallStartup
    {
        type            symmetryPlane;
    }
    upperWallStartup
    {
        type            symmetryPlane;
    }
    upperWall
    {
        type            calculated;
        value           nonuniform List<vector> 
218
(
(-3.61509 0.0160937 0)
(-1.4697 0.000341016 0)
(-1.1124 6.91289e-05 0)
(-0.94298 3.49546e-05 0)
(-0.840878 2.29531e-05 0)
(-0.772316 1.66022e-05 0)
(-0.718486 1.24493e-05 0)
(-0.678692 1.07548e-05 0)
(-0.643016 7.51187e-06 0)
(-0.617632 7.40798e-06 0)
(-0.591401 4.79102e-06 0)
(-0.573871 5.42921e-06 0)
(-0.552826 3.14472e-06 0)
(-0.540303 3.98934e-06 0)
(-0.522367 2.05707e-06 0)
(-0.513302 2.8053e-06 0)
(-0.497199 1.30789e-06 0)
(-0.490675 1.73647e-06 0)
(-0.47561 7.23688e-07 0)
(-0.471091 7.26216e-07 0)
(-0.456532 1.62832e-07 0)
(-0.453708 -2.41465e-07 0)
(-0.439279 -4.87961e-07 0)
(-0.437982 -1.17439e-06 0)
(-0.423405 -1.30504e-06 0)
(-0.423579 -2.10806e-06 0)
(-0.408675 -2.30597e-06 0)
(-0.41035 -3.12508e-06 0)
(-0.395002 -3.39113e-06 0)
(-0.398217 -4.30498e-06 0)
(-0.382292 -4.36284e-06 0)
(-0.387022 -5.64326e-06 0)
(-0.37036 -5.13281e-06 0)
(-0.376581 -7.04841e-06 0)
(-0.359066 -5.9481e-06 0)
(-0.366918 -8.41924e-06 0)
(-0.348553 -7.37179e-06 0)
(-0.358418 -9.73232e-06 0)
(-0.339346 -1.00886e-05 0)
(-0.351815 -1.12082e-05 0)
(-0.332353 -1.47848e-05 0)
(-0.348173 -1.36267e-05 0)
(-0.328876 -2.19515e-05 0)
(-0.34891 -1.84882e-05 0)
(-0.330594 -3.15472e-05 0)
(-0.355787 -2.7402e-05 0)
(-0.339474 -4.29879e-05 0)
(-0.370856 -4.10169e-05 0)
(-0.357844 -5.65383e-05 0)
(-0.396696 -5.95276e-05 0)
(-0.38895 -7.46619e-05 0)
(-0.436865 -8.53912e-05 0)
(-0.43755 -0.000100112 0)
(-0.495732 -0.000122748 0)
(-0.509299 -0.000133983 0)
(-0.576879 -0.000165321 0)
(-0.607882 -0.000168493 0)
(-0.684938 -0.000218345 0)
(-0.741234 -0.000216103 0)
(-0.828199 -0.000283453 0)
(-0.917023 -0.000293446 0)
(-1.01495 -0.000308782 0)
(-1.11616 -0.000287185 0)
(-1.18671 -0.000278441 0)
(-1.24837 -0.000438387 0)
(-1.31423 -0.000511301 0)
(-1.39899 -0.000640367 0)
(-1.487 -0.000692757 0)
(-1.56803 -0.0007255 0)
(-1.66981 -0.000891223 0)
(-1.74402 -0.000764351 0)
(-1.84742 -0.00107535 0)
(-1.91368 -0.000872015 0)
(-2.01237 -0.00114328 0)
(-2.08509 -0.00106273 0)
(-2.17241 -0.00115924 0)
(-2.26437 -0.00126182 0)
(-2.33344 -0.00111843 0)
(-2.42766 -0.00135788 0)
(-2.47804 -0.00116111 0)
(-2.56479 -0.00133435 0)
(-2.60837 -0.00132884 0)
(-2.69064 -0.00141242 0)
(-2.74032 -0.0013109 0)
(-2.81299 -0.00158867 0)
(-2.8597 -0.00119297 0)
(-2.9218 -0.00164883 0)
(-2.95683 -0.0014933 0)
(-3.03644 -0.00198039 4.84123e-19)
(-3.07104 -0.00192135 0)
(-3.17306 -0.00230153 -4.82468e-19)
(-3.21364 -0.00210743 4.81754e-19)
(-3.32028 -0.00242222 0)
(-3.36007 -0.00229652 4.79892e-19)
(-3.47456 -0.00253282 0)
(-3.51841 -0.00251534 0)
(-3.64397 -0.002586 0)
(-3.69477 -0.00265272 0)
(-3.82793 -0.00256544 -4.73963e-19)
(-3.88455 -0.00265962 0)
(-4.01878 -0.00250578 4.71022e-19)
(-4.07778 -0.00260184 0)
(-4.21026 -0.00246019 4.67784e-19)
(-4.269 -0.00257151 -4.66252e-19)
(-4.40166 -0.00245828 0)
(-4.46205 -0.00264122 -4.62684e-19)
(-4.59971 -0.00252339 0)
(-4.66679 -0.00278798 4.58876e-19)
(-4.81214 -0.00260657 0)
(-4.88664 -0.00290604 0)
(-5.03643 -0.00264403 0)
(-5.11261 -0.00292646 0)
(-5.26206 -0.002636 0)
(-5.3342 -0.00292549 0)
(-5.48481 -0.00263017 0)
(-5.55558 -0.0030311 -4.4089e-19)
(-5.71567 -0.00265666 4.38242e-19)
(-5.79332 -0.00321642 -4.3591e-19)
(-5.9673 -0.00268073 4.33059e-19)
(-6.05367 -0.00332509 0)
(-6.2354 -0.00262729 4.27417e-19)
(-6.32386 -0.0032773 0)
(-6.5062 -0.00251231 4.2138e-19)
(-6.59206 -0.00318883 0)
(-6.77593 -0.0024367 0)
(-6.86351 -0.00319088 4.12015e-19)
(-7.05384 -0.00243525 0)
(-7.14749 -0.00328049 4.0525e-19)
(-7.34383 -0.00242697 0)
(-7.43646 -0.00328497 3.98145e-19)
(-7.63474 -0.00232018 0)
(-7.71783 -0.00320639 3.90784e-19)
(-7.92314 -0.00217131 0)
(-8.00341 -0.00322438 0)
(-8.22692 -0.00208928 3.79094e-19)
(-8.3158 -0.00331765 0)
(-8.55378 -0.00203339 3.7062e-19)
(-8.6456 -0.00328386 0)
(-8.8796 -0.0018985 3.61362e-19)
(-8.96149 -0.00310126 0)
(-9.18091 -0.00175628 3.51572e-19)
(-9.25192 -0.00295524 0)
(-9.45623 -0.00167715 0)
(-9.51566 -0.00281503 3.36577e-19)
(-9.70295 -0.00153495 0)
(-9.74269 -0.00260949 3.2673e-19)
(-9.91645 -0.00129297 0)
(-9.9362 -0.00239824 3.17334e-19)
(-10.1107 -0.00101564 0)
(-10.1172 -0.00220439 0)
(-10.3053 -0.000691558 3.03809e-19)
(-10.3048 -0.0019701 2.99303e-19)
(-10.5039 -0.000333119 0)
(-10.4958 -0.00160493 2.89887e-19)
(-10.6829 8.84629e-05 0)
(-10.6484 -0.00104718 2.80018e-19)
(-10.8005 0.000623098 0)
(-10.722 -0.000416057 2.70083e-19)
(-10.8418 0.00112795 0)
(-10.7243 9.6639e-05 2.60395e-19)
(-10.8174 0.00154796 2.56023e-19)
(-10.663 0.000606108 0)
(-10.7109 0.00206696 2.4711e-19)
(-10.4993 0.0012412 0)
(-10.4933 0.00275218 2.39232e-19)
(-10.2161 0.00185276 0)
(-10.1855 0.00348123 0)
(-9.86501 0.00234028 2.2938e-19)
(-9.82926 0.00417721 -2.27304e-19)
(-9.47652 0.00292713 2.24034e-19)
(-9.40317 0.00480743 -2.2245e-19)
(-8.99077 0.00372337 0)
(-8.84995 0.00544163 0)
(-8.35435 0.00454605 0)
(-8.17189 0.00631411 -2.1668e-19)
(-7.63376 0.00531012 0)
(-7.41512 0.00790571 0)
(-6.98794 0.00512194 0)
(-6.85334 0.00832112 0)
(-6.84931 0.00350187 0)
(-6.90829 0.00750756 0)
(-7.76925 -0.00113521 0)
(-8.90034 -0.00175962 2.27688e-19)
(-9.91083 -0.00122375 -2.2686e-19)
(-12.2322 -0.012717 0)
(-16.2443 -0.026724 0)
(-19.1702 -0.0181747 6.06139e-20)
(-19.6092 -0.00186814 -5.10691e-20)
(-19.0893 0.00235469 -8.57443e-20)
(-16.1352 -0.0182692 -7.05241e-20)
(-26.3074 -0.0888623 -1.12468e-19)
(-27.7161 0.0793049 -2.84697e-20)
(-8.36891 0.136775 4.06835e-20)
(12.2162 0.142291 0)
(11.6139 -0.0655447 -1.25792e-20)
(1.50194 0.00787707 0)
(5.15242 0.0836922 3.8565e-21)
(3.10933 0.0486562 0)
(-8.80452 -0.134015 0)
(-24.2105 -0.0767732 0)
(-46.7734 -0.136337 0)
(-74.3761 -0.164838 0)
(-64.3108 -0.0202493 0)
(-6.74663 0.142867 9.08682e-18)
(38.5549 0.246389 0)
(32.1149 0.168702 -8.34656e-18)
(21.8871 0.142436 3.96085e-18)
(12.0274 0.0917682 -1.59286e-18)
(3.0107 0.0548569 0)
(-2.62974 -0.043075 1.30442e-19)
(-9.67945 -0.117145 0)
(-1.97031 0.0116215 0)
(7.04952 0.162426 0)
(1.52354 0.172574 0)
(3.6295 5.91596 0)
(-1.29452 -0.150944 0)
(-0.474768 -0.0965808 -5.51807e-19)
(-1.01976 -0.102484 0)
)
;
    }
    lowerWall
    {
        type            calculated;
        value           nonuniform List<vector> 
266
(
(-3.61497 -0.0160915 0)
(-1.47113 -0.000356675 0)
(-1.11394 -7.37384e-05 0)
(-0.944137 -3.94026e-05 0)
(-0.842311 -2.63848e-05 0)
(-0.772642 -1.9513e-05 0)
(-0.719848 -1.61091e-05 0)
(-0.678332 -1.32044e-05 0)
(-0.644327 -1.1529e-05 0)
(-0.616707 -9.79321e-06 0)
(-0.592655 -9.04975e-06 0)
(-0.572403 -7.88144e-06 0)
(-0.554042 -7.5341e-06 0)
(-0.538288 -6.59704e-06 0)
(-0.523572 -6.47007e-06 0)
(-0.510717 -5.655e-06 0)
(-0.498413 -5.63813e-06 0)
(-0.487489 -4.87835e-06 0)
(-0.476851 -4.89143e-06 0)
(-0.467263 -4.15472e-06 0)
(-0.457825 -4.14204e-06 0)
(-0.449201 -3.41571e-06 0)
(-0.440658 -3.33722e-06 0)
(-0.432754 -2.61191e-06 0)
(-0.42491 -2.43487e-06 0)
(-0.417582 -1.70486e-06 0)
(-0.410331 -1.42578e-06 0)
(-0.403512 -7.21087e-07 0)
(-0.39679 -4.02496e-07 0)
(-0.390404 1.90988e-07 0)
(-0.384081 4.48458e-07 0)
(-0.377951 8.54352e-07 0)
(-0.371793 1.01049e-06 0)
(-0.365658 1.24616e-06 0)
(-0.359394 1.35207e-06 0)
(-0.352998 1.49326e-06 0)
(-0.346383 1.58012e-06 0)
(-0.339468 1.6273e-06 0)
(-0.332199 1.60844e-06 0)
(-0.324383 1.38232e-06 0)
(-0.315915 1.12487e-06 0)
(-0.306632 2.25589e-07 0)
(-0.295976 -5.40252e-07 0)
(-0.284358 -2.17518e-06 0)
(-0.270521 -5.24003e-06 0)
(-0.254012 -5.77956e-06 0)
(-0.237882 -1.38047e-05 0)
(-0.2124 -1.66627e-05 0)
(-0.18955 -1.75075e-05 0)
(-0.169121 -4.11434e-05 0)
(-0.110302 -4.14188e-05 0)
(-0.10245 -7.90926e-06 0)
(-0.0880007 -0.000145529 0)
(0.103932 -2.87183e-05 0)
(-0.0430214 0.000120215 0)
(-0.175611 0.000268238 0)
(0.634199 -0.00312353 0)
(1.0157 -0.00577659 0)
(-0.274953 0.00444159 0)
(-0.893733 0.00347486 0)
(0.711239 -0.00970392 0)
(2.24013 -0.0106483 0)
(2.14281 0.00283845 0)
(0.0175151 -0.00252223 0)
(-1.56913 0.0157364 0)
(-4.89971 0.0265701 0)
(-5.21913 -0.00542638 0)
(-0.740131 -0.0425759 0)
(3.04617 -0.0402438 0)
(3.35396 0.00197665 0)
(2.89901 -0.00218433 0)
(2.08218 -0.00585702 0)
(0.617779 0.00527966 0)
(-1.19613 0.0153068 0)
(-2.52368 0.0162363 0)
(-3.2244 0.00954409 0)
(-4.62384 0.0150736 0)
(-5.5004 0.0108229 0)
(-4.24986 -0.0194255 0)
(-0.548421 -0.071255 0)
(1.38971 -0.0358726 0)
(2.68612 -0.0148017 0)
(4.05579 -0.0155673 0)
(2.71774 -0.0185573 0)
(1.95473 -0.0856926 0)
(0.627832 -0.109946 0)
(7.70038 0.21725 0)
(-9.44886 0.801404 0)
(-0.273769 -11.5822 0)
(-0.142272 -1.39326 0)
(-0.164242 -0.80323 -1.10512e-20)
(-0.223479 -0.0972224 1.19753e-20)
(-0.204889 0.396297 0)
(-0.175565 0.519385 0)
(-0.138075 0.375633 0)
(-0.104844 0.218117 0)
(-0.0810941 0.187591 0)
(-0.0548471 0.215957 2.36578e-19)
(-0.02062 0.186456 -1.78103e-19)
(0.00407152 0.158167 2.76722e-19)
(0.0169965 0.155282 -2.28912e-19)
(0.032833 0.19249 0)
(0.0859595 0.258017 -3.97107e-19)
(0.1887 0.295326 3.79338e-19)
(0.271312 0.258813 0)
(0.4225 0.198716 0)
(0.562594 0.0255072 0)
(0.620757 -0.221751 -6.00858e-19)
(1.20125 -1.01991 7.40093e-19)
(1.59407 -2.48164 -1.56132e-18)
(1.62463 -4.27476 1.5974e-18)
(1.50223 -6.22978 0)
(1.33963 -8.01856 -2.50714e-18)
(1.16013 -9.37486 2.5033e-18)
(0.95025 -10.4047 0)
(0.69985 -11.1326 0)
(0.414919 -11.5718 0)
(0.103504 -11.7738 0)
(-0.225653 -11.7679 0)
(-0.552377 -11.6076 -0)
(-0.859579 -11.3348 1.9844e-18)
(-1.13944 -10.9934 -3.38305e-20)
(-1.38125 -10.6109 -1.86688e-18)
(-1.57958 -10.2062 -0)
(-1.73433 -9.80215 0)
(-1.84979 -9.41659 0)
(-1.92345 -9.04372 0)
(-1.96887 -8.70517 0)
(-1.9779 -8.37767 -4.77e-19)
(-1.97495 -8.09277 3.55099e-19)
(-1.93581 -7.80412 0)
(-1.90661 -7.57176 0)
(-1.82923 -7.3108 -0)
(-1.79889 -7.16224 -3.74857e-20)
(-1.66327 -6.94522 9.57755e-20)
(-1.6041 -6.98636 -0)
(-2.42577 -0.195243 -0)
(-3.25758 -0.00102566 4.7776e-21)
(-0.450401 -0.00691717 0)
(-1.47951 0.0144921 4.83041e-21)
(-1.85392e-05 0.000942465 0)
(4.3202 -0.0190843 0)
(6.86984 -0.0153145 0)
(7.56799 -0.00572151 0)
(6.76859 0.000944233 -0)
(6.0112 0.0111676 5.08767e-21)
(2.02936 0.0327232 0)
(-2.18227 0.0225016 0)
(-4.31728 0.0268814 0)
(-9.53111 0.0369515 0)
(-15.0705 0.0435319 0)
(-19.2492 0.024145 0)
(-20.0794 0.00667382 0)
(-16.769 -0.029977 0)
(-10.5488 -0.0733119 0)
(1.5129 -0.0905535 0)
(12.0058 -0.14113 -4.03041e-21)
(-16.6908 0.26428 0)
(-27.6176 0.0166642 -4.27544e-21)
(-1.18982 -0.268743 -0)
(20.2739 -0.266262 -3.99965e-21)
(8.87406 0.215097 0)
(-4.20331 0.122441 -4.82016e-21)
(-10.4988 0.0633702 0)
(-13.5219 0.0273084 0)
(-14.4774 0.0090244 0)
(-14.2774 0.000555002 -3.75843e-21)
(-13.9219 -0.00142471 -3.53646e-21)
(-13.7424 -0.00422715 -3.34934e-21)
(-12.7948 -0.0117936 -3.2035e-21)
(-10.8242 -0.0163081 -3.12933e-21)
(-7.72279 -0.0177665 0)
(-2.86124 -0.0352661 0)
(-1.88022 0.00233452 -3.31238e-21)
(1.35479 -0.0197806 -3.26442e-21)
(6.10886 -0.0600988 -3.23896e-21)
(5.78854 -0.0387612 -3.41723e-21)
(1.46003 0.0755574 -3.68446e-21)
(-10.7661 0.136769 -3.81358e-21)
(-14.5961 0.026997 0)
(-2.06308 -0.141431 -3.19207e-21)
(5.56143 -0.208335 -3.29854e-21)
(-3.00948 0.0517623 -3.41434e-21)
(-12.9208 0.0872017 -3.28182e-21)
(-19.7986 0.0501519 -2.91294e-21)
(-20.3694 -0.0285842 -2.53123e-21)
(-14.9115 -0.099331 0)
(2.26237 -0.0925436 -2.60542e-21)
(10.6508 0.115852 -3.02554e-21)
(0.235632 0.0687185 -2.91493e-21)
(-6.87247 0.000592563 -2.55783e-21)
(-17.5998 -0.065546 -1.98362e-21)
(-13.8252 -0.14242 -1.46922e-21)
(10.2223 -0.158809 0)
(24.5614 -0.0672854 -1.43377e-21)
(14.4827 0.0325888 -0)
(0.00153838 -0.00499707 -0)
(-3.789 0.0401672 -0)
(-11.6239 0.0784064 2.25388e-21)
(-20.5977 0.0826639 0)
(-27.9578 0.0415185 -0)
(-30.8527 -0.0722037 0)
(-9.42889 -0.143598 0)
(4.34996 0.152837 0)
(-10.63 0.0407719 0)
(9.07465 -0.201261 -7.53658e-22)
(26.5125 -0.0236704 -0)
(4.05879 0.148665 0)
(-2.044 0.0386187 -0)
(-9.75249 0.0791928 2.56558e-22)
(-16.2501 0.0570846 0)
(-21.8391 0.0461134 0)
(-25.3343 0.0576521 0)
(-34.7594 0.0599944 0)
(-35.886 0.0486121 0)
(-45.0731 0.0387519 0)
(-53.2102 0.0521641 -5.75856e-21)
(-51.963 -0.222041 0)
(-2.87482 -0.416453 0)
(49.9885 -0.0125002 -2.68569e-21)
(19.325 0.878984 0)
(-38.8913 0.799139 3.06402e-21)
(-56.1065 0.0205485 0)
(3.32406 -0.494642 0)
(48.63 -0.285275 4.31318e-21)
(54.6978 -0.00751277 0)
(58.4142 -0.00302178 -3.8687e-21)
(54.2614 0.0968807 -0)
(31.8381 0.178865 0)
(4.85712 0.0972825 0)
(-10.2102 -0.107566 0)
(-7.32592 -0.03811 0)
(-12.8125 0.0906936 -5.31715e-21)
(-31.1488 0.159275 -0)
(-45.9556 0.0704412 0)
(-42.6274 0.0644333 -1.25321e-18)
(-69.9522 0.288689 -2.67828e-18)
(-91.8074 -0.327462 -0)
(-68.9578 -0.772637 0)
(122.671 -0.793554 -0)
(175.258 0.152315 0)
(2.47194 0.0272819 -0)
(-61.2591 0.144051 4.35466e-18)
(-56.7916 0.00071707 0)
(-23.0457 -0.0760782 1.09889e-17)
(9.75172 -0.0566107 -9.10769e-18)
(27.4531 -0.0215311 0)
(35.2492 -0.0541073 0)
(41.3946 -0.109791 0)
(40.6546 -0.159616 -1.51984e-17)
(35.3129 -0.181211 9.44061e-18)
(25.9926 -0.175355 0)
(14.5905 -0.126471 -5.04174e-18)
(2.63997 -0.0444581 0)
(2.88333 -0.0250625 -7.17564e-18)
(8.03121 -0.0574302 -0)
(6.95434 -0.0521709 0)
(-0.72329 0.0088355 0)
(-6.07993 0.040133 0)
(-3.01559 0.0233376 0)
(-0.0440032 -0.0117113 -2.87542e-18)
(-1.79 -0.0164296 4.43946e-18)
(-4.32081 0.0128088 0)
(-4.45108 0.0136612 4.03321e-18)
(-2.09356 -0.00505829 0)
(-2.07513 0.0109268 0)
)
;
    }
    front
    {
        type            empty;
    }
    back
    {
        type            empty;
    }
}


// ************************************************************************* //
