# Wall shear stress
# Time        	patch         	min           	max           
900           	upperWall	(-1.748017e+01 -3.885806e-03 -4.621941e-20)	(-4.421429e+00 1.071321e-03 1.830447e-20)
900           	lowerWall	(-1.751066e+01 -5.335028e-01 -9.621220e-19)	(3.466749e+00 1.193690e+01 1.066785e-18)
1000          	upperWall	(-1.762545e+01 -3.882584e-03 -4.613996e-20)	(-4.419341e+00 1.142548e-03 1.827999e-20)
1000          	lowerWall	(-5.091767e+02 -1.508786e+00 -9.601403e-19)	(3.459966e+00 8.487814e+03 1.172949e-18)
