/*--------------------------------*- C++ -*----------------------------------*\
| =========                 |                                                 |
| \\      /  F ield         | OpenFOAM: The Open Source CFD Toolbox           |
|  \\    /   O peration     | Version:  2306                                  |
|   \\  /    A nd           | Website:  www.openfoam.com                      |
|    \\/     M anipulation  |                                                 |
\*---------------------------------------------------------------------------*/
FoamFile
{
    version     2.0;
    format      ascii;
    arch        "LSB;label=32;scalar=64";
    class       volScalarField;
    location    "1800";
    object      cp;
}
// * * * * * * * * * * * * * * * * * * * * * * * * * * * * * * * * * * * * * //

dimensions      [0 0 0 0 0 0 0];

internalField   nonuniform List<scalar> 
20540
(
0.194596
0.0678632
0.194595
0.0633403
0.194592
0.0599765
0.194587
0.0581168
0.194581
0.0569695
0.194572
0.0561095
0.19456
0.0554159
0.194545
0.0548485
0.194526
0.0543779
0.194502
0.0539823
0.194472
0.0536472
0.194436
0.0533638
0.194393
0.0531265
0.194341
0.052932
0.194279
0.0527787
0.194208
0.052666
0.194126
0.0525935
0.194031
0.0525605
0.193925
0.0525652
0.193809
0.0526042
0.193686
0.052672
0.193559
0.0527614
0.193426
0.052868
0.193268
0.0530075
0.193038
0.0532376
0.192689
0.0536379
0.192227
0.0542109
0.191737
0.054839
0.191281
0.0554333
0.190876
0.0559633
0.190595
0.0563123
0.190469
0.0564391
0.190492
0.056354
0.190663
0.0560573
0.190985
0.0555426
0.191418
0.0548737
0.191896
0.0541656
0.192404
0.0534419
0.192882
0.0527876
0.193247
0.0523178
0.193494
0.0520281
0.193673
0.0518355
0.193827
0.051681
0.193976
0.0515482
0.19412
0.0514405
0.194256
0.0513641
0.194381
0.0513231
0.194492
0.05132
0.194591
0.0513558
0.194678
0.0514307
0.194754
0.0515447
0.194818
0.0516978
0.194872
0.0518904
0.194917
0.0521239
0.194955
0.0524016
0.194985
0.0527288
0.19501
0.0531141
0.19503
0.0535716
0.195046
0.0541228
0.195058
0.0547959
0.195067
0.0556305
0.195074
0.0567459
0.195079
0.058561
0.195082
0.061853
0.195084
0.0662834
0.0010717
0.00753619
0.00111639
-0.00638462
-0.0123661
-0.0179528
-0.0234432
-0.0286478
-0.0335834
-0.0382944
-0.0427948
-0.0470932
-0.0512038
-0.055137
-0.0589036
-0.0625119
-0.0659709
-0.0692879
-0.0724702
-0.0755244
-0.0784564
-0.0812724
-0.0839773
-0.0865762
-0.0890741
-0.091475
-0.0937833
-0.0960031
-0.0981381
-0.100192
-0.102168
-0.104069
-0.105899
-0.107661
-0.109357
-0.110991
-0.112566
-0.114084
-0.11555
-0.116965
-0.118334
-0.11966
-0.120947
-0.122199
-0.12342
-0.124615
-0.12579
-0.12695
-0.128101
-0.129251
-0.130406
-0.131574
-0.132765
-0.133987
-0.135251
-0.136566
-0.137945
-0.139401
-0.140944
-0.142594
-0.14436
-0.146269
-0.148327
-0.150202
-0.151761
-0.15336
-0.155012
-0.156718
-0.158477
-0.160291
-0.162162
-0.164091
-0.166078
-0.168129
-0.170241
-0.17243
-0.174679
-0.177029
-0.179429
-0.181988
-0.184557
-0.187425
-0.190168
-0.19358
-0.196496
-0.200992
-0.204472
-0.211585
0.00107621
0.00753742
0.00111684
-0.00638435
-0.0123659
-0.0179527
-0.0234431
-0.0286477
-0.0335834
-0.0382944
-0.0427947
-0.0470932
-0.0512038
-0.055137
-0.0589036
-0.0625119
-0.0659709
-0.0692879
-0.0724702
-0.0755243
-0.0784563
-0.0812724
-0.0839772
-0.0865762
-0.0890741
-0.091475
-0.0937833
-0.0960031
-0.0981381
-0.100192
-0.102168
-0.104069
-0.105899
-0.107661
-0.109357
-0.110991
-0.112566
-0.114084
-0.11555
-0.116965
-0.118334
-0.11966
-0.120947
-0.122199
-0.12342
-0.124615
-0.12579
-0.12695
-0.128101
-0.129251
-0.130406
-0.131574
-0.132765
-0.133987
-0.135251
-0.136567
-0.137945
-0.139401
-0.140945
-0.142594
-0.14436
-0.146269
-0.148327
-0.150202
-0.151761
-0.153361
-0.155013
-0.156718
-0.158477
-0.160292
-0.162162
-0.164091
-0.166078
-0.16813
-0.170242
-0.172431
-0.174679
-0.17703
-0.17943
-0.181989
-0.184558
-0.187426
-0.190169
-0.193582
-0.196498
-0.200994
-0.204479
-0.211396
0.00107699
0.00753969
0.0011178
-0.00638376
-0.0123655
-0.0179524
-0.0234429
-0.0286475
-0.0335832
-0.0382943
-0.0427946
-0.0470931
-0.0512037
-0.0551369
-0.0589035
-0.0625118
-0.0659709
-0.0692878
-0.0724701
-0.0755243
-0.0784563
-0.0812723
-0.0839772
-0.0865762
-0.089074
-0.091475
-0.0937833
-0.0960031
-0.0981381
-0.100192
-0.102168
-0.104069
-0.105899
-0.107661
-0.109357
-0.110991
-0.112566
-0.114084
-0.11555
-0.116965
-0.118334
-0.11966
-0.120947
-0.122199
-0.12342
-0.124615
-0.12579
-0.12695
-0.128101
-0.129251
-0.130406
-0.131574
-0.132765
-0.133987
-0.135251
-0.136567
-0.137946
-0.139401
-0.140945
-0.142594
-0.144361
-0.146269
-0.148328
-0.150203
-0.151761
-0.153361
-0.155013
-0.156719
-0.158478
-0.160293
-0.162163
-0.164092
-0.166079
-0.168131
-0.170243
-0.172432
-0.174681
-0.177031
-0.179432
-0.181992
-0.184561
-0.187429
-0.190172
-0.193586
-0.196504
-0.200997
-0.204491
-0.211095
0.00107588
0.00754266
0.00111926
-0.00638282
-0.0123648
-0.0179519
-0.0234425
-0.0286472
-0.0335829
-0.038294
-0.0427945
-0.0470929
-0.0512036
-0.0551368
-0.0589034
-0.0625117
-0.0659708
-0.0692878
-0.0724701
-0.0755242
-0.0784562
-0.0812723
-0.0839772
-0.0865761
-0.089074
-0.091475
-0.0937832
-0.0960031
-0.0981381
-0.100192
-0.102168
-0.104069
-0.105899
-0.107661
-0.109357
-0.110991
-0.112566
-0.114084
-0.11555
-0.116965
-0.118334
-0.11966
-0.120947
-0.122199
-0.12342
-0.124615
-0.12579
-0.12695
-0.128101
-0.129251
-0.130406
-0.131574
-0.132765
-0.133987
-0.135251
-0.136567
-0.137946
-0.139401
-0.140945
-0.142594
-0.144361
-0.14627
-0.148328
-0.150203
-0.151762
-0.153362
-0.155014
-0.15672
-0.158479
-0.160294
-0.162164
-0.164094
-0.166081
-0.168133
-0.170245
-0.172435
-0.174684
-0.177035
-0.179435
-0.181996
-0.184565
-0.187434
-0.190178
-0.193593
-0.196513
-0.201001
-0.204502
-0.210818
0.00107065
0.00754561
0.00112102
-0.00638161
-0.0123639
-0.0179512
-0.0234419
-0.0286468
-0.0335826
-0.0382937
-0.0427942
-0.0470927
-0.0512034
-0.0551366
-0.0589032
-0.0625116
-0.0659706
-0.0692876
-0.07247
-0.0755241
-0.0784562
-0.0812722
-0.0839771
-0.0865761
-0.0890739
-0.0914749
-0.0937832
-0.096003
-0.098138
-0.100192
-0.102168
-0.104069
-0.105899
-0.107661
-0.109357
-0.110991
-0.112566
-0.114084
-0.11555
-0.116965
-0.118334
-0.11966
-0.120947
-0.122199
-0.12342
-0.124615
-0.12579
-0.12695
-0.128102
-0.129251
-0.130406
-0.131574
-0.132765
-0.133988
-0.135251
-0.136567
-0.137946
-0.139402
-0.140945
-0.142595
-0.144362
-0.14627
-0.148329
-0.150204
-0.151763
-0.153363
-0.155016
-0.156721
-0.158481
-0.160296
-0.162166
-0.164096
-0.166083
-0.168136
-0.170249
-0.172438
-0.174687
-0.177039
-0.17944
-0.182001
-0.18457
-0.187441
-0.190185
-0.193601
-0.196525
-0.201004
-0.204502
-0.210621
0.00105826
0.0075481
0.00112292
-0.00638018
-0.0123627
-0.0179503
-0.0234412
-0.0286462
-0.0335821
-0.0382933
-0.0427938
-0.0470924
-0.0512031
-0.0551364
-0.058903
-0.0625114
-0.0659705
-0.0692875
-0.0724698
-0.075524
-0.078456
-0.0812721
-0.083977
-0.086576
-0.0890739
-0.0914748
-0.0937831
-0.096003
-0.098138
-0.100192
-0.102167
-0.104069
-0.105899
-0.10766
-0.109357
-0.110991
-0.112566
-0.114084
-0.11555
-0.116965
-0.118334
-0.11966
-0.120947
-0.122199
-0.12342
-0.124615
-0.12579
-0.12695
-0.128102
-0.129251
-0.130406
-0.131575
-0.132765
-0.133988
-0.135251
-0.136567
-0.137946
-0.139402
-0.140946
-0.142596
-0.144363
-0.146271
-0.14833
-0.150206
-0.151765
-0.153365
-0.155017
-0.156723
-0.158483
-0.160298
-0.162169
-0.164099
-0.166087
-0.16814
-0.170253
-0.172443
-0.174692
-0.177044
-0.179446
-0.182008
-0.184577
-0.18745
-0.190194
-0.19361
-0.196537
-0.201003
-0.204484
-0.210493
0.00103569
0.00754983
0.0011248
-0.00637861
-0.0123614
-0.0179492
-0.0234403
-0.0286455
-0.0335815
-0.0382928
-0.0427934
-0.047092
-0.0512028
-0.0551361
-0.0589028
-0.0625111
-0.0659703
-0.0692873
-0.0724697
-0.0755239
-0.0784559
-0.081272
-0.0839769
-0.0865759
-0.0890737
-0.0914747
-0.093783
-0.0960029
-0.0981379
-0.100192
-0.102167
-0.104069
-0.105899
-0.10766
-0.109357
-0.110991
-0.112566
-0.114084
-0.11555
-0.116965
-0.118334
-0.11966
-0.120947
-0.122199
-0.12342
-0.124615
-0.12579
-0.12695
-0.128102
-0.129251
-0.130406
-0.131575
-0.132766
-0.133988
-0.135252
-0.136568
-0.137947
-0.139403
-0.140947
-0.142597
-0.144364
-0.146272
-0.148332
-0.150207
-0.151766
-0.153367
-0.15502
-0.156726
-0.158486
-0.160301
-0.162172
-0.164103
-0.166091
-0.168144
-0.170257
-0.172448
-0.174698
-0.177051
-0.179452
-0.182015
-0.184585
-0.187459
-0.190203
-0.193619
-0.196549
-0.200999
-0.204446
-0.210376
0.000999798
0.00755031
0.00112645
-0.00637698
-0.0123598
-0.0179479
-0.0234393
-0.0286446
-0.0335807
-0.0382922
-0.0427928
-0.0470915
-0.0512024
-0.0551357
-0.0589024
-0.0625108
-0.06597
-0.069287
-0.0724694
-0.0755236
-0.0784557
-0.0812718
-0.0839767
-0.0865757
-0.0890736
-0.0914746
-0.0937829
-0.0960027
-0.0981378
-0.100191
-0.102167
-0.104069
-0.105899
-0.10766
-0.109357
-0.110991
-0.112566
-0.114084
-0.115549
-0.116965
-0.118334
-0.11966
-0.120947
-0.122199
-0.12342
-0.124615
-0.12579
-0.12695
-0.128102
-0.129251
-0.130406
-0.131575
-0.132766
-0.133988
-0.135252
-0.136568
-0.137947
-0.139404
-0.140948
-0.142598
-0.144365
-0.146274
-0.148333
-0.150209
-0.151769
-0.153369
-0.155022
-0.156729
-0.158489
-0.160305
-0.162176
-0.164107
-0.166095
-0.168149
-0.170263
-0.172454
-0.174704
-0.177058
-0.17946
-0.182024
-0.184593
-0.187468
-0.190213
-0.193627
-0.196559
-0.200987
-0.204388
-0.210218
0.000947125
0.00754889
0.00112758
-0.00637546
-0.0123582
-0.0179464
-0.023438
-0.0286435
-0.0335798
-0.0382914
-0.0427921
-0.0470909
-0.0512018
-0.0551352
-0.058902
-0.0625104
-0.0659696
-0.0692867
-0.0724691
-0.0755234
-0.0784555
-0.0812715
-0.0839765
-0.0865755
-0.0890734
-0.0914744
-0.0937827
-0.0960026
-0.0981376
-0.100191
-0.102167
-0.104069
-0.105898
-0.10766
-0.109357
-0.110991
-0.112566
-0.114084
-0.115549
-0.116965
-0.118334
-0.11966
-0.120947
-0.122199
-0.12342
-0.124615
-0.12579
-0.12695
-0.128102
-0.129251
-0.130406
-0.131575
-0.132766
-0.133989
-0.135252
-0.136569
-0.137948
-0.139404
-0.140949
-0.142599
-0.144366
-0.146276
-0.148336
-0.150212
-0.151771
-0.153372
-0.155025
-0.156732
-0.158493
-0.160309
-0.162181
-0.164112
-0.166101
-0.168155
-0.170269
-0.172461
-0.174711
-0.177066
-0.179468
-0.182033
-0.184601
-0.187477
-0.190221
-0.193631
-0.196564
-0.20096
-0.204308
-0.209999
0.000873947
0.00754465
0.00112778
-0.0063743
-0.0123565
-0.0179448
-0.0234366
-0.0286422
-0.0335787
-0.0382904
-0.0427913
-0.0470901
-0.0512011
-0.0551346
-0.0589015
-0.0625099
-0.0659692
-0.0692863
-0.0724688
-0.075523
-0.0784551
-0.0812713
-0.0839762
-0.0865753
-0.0890732
-0.0914742
-0.0937825
-0.0960024
-0.0981375
-0.100191
-0.102167
-0.104068
-0.105898
-0.10766
-0.109357
-0.110991
-0.112565
-0.114084
-0.115549
-0.116965
-0.118334
-0.11966
-0.120947
-0.122199
-0.12342
-0.124615
-0.12579
-0.12695
-0.128102
-0.129252
-0.130407
-0.131575
-0.132766
-0.133989
-0.135253
-0.136569
-0.137949
-0.139405
-0.14095
-0.1426
-0.144368
-0.146278
-0.148338
-0.150214
-0.151774
-0.153375
-0.155029
-0.156736
-0.158497
-0.160314
-0.162186
-0.164117
-0.166107
-0.168161
-0.170276
-0.172468
-0.174719
-0.177074
-0.179475
-0.182041
-0.184609
-0.187484
-0.190227
-0.193629
-0.196561
-0.200912
-0.204197
-0.209713
0.000776436
0.00753651
0.00112657
-0.00637385
-0.012355
-0.0179431
-0.023435
-0.0286408
-0.0335774
-0.0382892
-0.0427902
-0.0470892
-0.0512003
-0.0551339
-0.0589008
-0.0625093
-0.0659686
-0.0692858
-0.0724683
-0.0755226
-0.0784547
-0.0812709
-0.0839759
-0.0865749
-0.0890729
-0.0914739
-0.0937823
-0.0960022
-0.0981372
-0.100191
-0.102167
-0.104068
-0.105898
-0.10766
-0.109357
-0.11099
-0.112565
-0.114084
-0.115549
-0.116965
-0.118334
-0.11966
-0.120947
-0.122199
-0.12342
-0.124615
-0.12579
-0.12695
-0.128102
-0.129252
-0.130407
-0.131576
-0.132767
-0.13399
-0.135254
-0.13657
-0.13795
-0.139406
-0.140951
-0.142602
-0.14437
-0.14628
-0.14834
-0.150217
-0.151777
-0.153379
-0.155033
-0.15674
-0.158502
-0.160319
-0.162191
-0.164123
-0.166112
-0.168168
-0.170282
-0.172475
-0.174726
-0.177081
-0.179482
-0.182047
-0.184614
-0.187487
-0.190227
-0.193615
-0.196544
-0.200832
-0.204041
-0.20935
0.000650928
0.00752315
0.00112332
-0.0063746
-0.012354
-0.0179416
-0.0234333
-0.0286392
-0.0335759
-0.0382879
-0.042789
-0.0470881
-0.0511993
-0.055133
-0.0589
-0.0625086
-0.0659679
-0.0692852
-0.0724677
-0.0755221
-0.0784542
-0.0812704
-0.0839755
-0.0865745
-0.0890725
-0.0914736
-0.0937819
-0.0960019
-0.0981369
-0.100191
-0.102167
-0.104068
-0.105898
-0.10766
-0.109356
-0.11099
-0.112565
-0.114084
-0.115549
-0.116965
-0.118334
-0.11966
-0.120947
-0.122199
-0.12342
-0.124615
-0.12579
-0.12695
-0.128102
-0.129252
-0.130407
-0.131576
-0.132767
-0.13399
-0.135254
-0.136571
-0.137951
-0.139408
-0.140952
-0.142603
-0.144372
-0.146282
-0.148343
-0.15022
-0.151781
-0.153382
-0.155037
-0.156744
-0.158506
-0.160323
-0.162196
-0.164128
-0.166118
-0.168173
-0.170288
-0.17248
-0.174731
-0.177086
-0.179486
-0.18205
-0.184614
-0.187481
-0.190218
-0.193583
-0.196504
-0.200705
-0.203824
-0.208891
0.000494328
0.00750302
0.00111734
-0.00637715
-0.0123539
-0.0179404
-0.0234318
-0.0286376
-0.0335743
-0.0382864
-0.0427876
-0.0470868
-0.0511981
-0.0551319
-0.058899
-0.0625077
-0.0659671
-0.0692844
-0.072467
-0.0755214
-0.0784536
-0.0812699
-0.0839749
-0.086574
-0.089072
-0.0914731
-0.0937815
-0.0960015
-0.0981366
-0.10019
-0.102166
-0.104068
-0.105898
-0.107659
-0.109356
-0.11099
-0.112565
-0.114084
-0.115549
-0.116965
-0.118334
-0.11966
-0.120947
-0.122199
-0.12342
-0.124615
-0.12579
-0.12695
-0.128102
-0.129252
-0.130407
-0.131576
-0.132767
-0.13399
-0.135255
-0.136572
-0.137952
-0.139409
-0.140954
-0.142605
-0.144373
-0.146284
-0.148345
-0.150223
-0.151783
-0.153385
-0.15504
-0.156748
-0.15851
-0.160327
-0.1622
-0.164132
-0.166122
-0.168177
-0.170291
-0.172483
-0.174732
-0.177086
-0.179483
-0.182044
-0.184604
-0.187461
-0.190192
-0.193523
-0.19643
-0.200515
-0.203526
-0.208317
0.000304766
0.00747436
0.00110789
-0.00638225
-0.0123553
-0.01794
-0.0234307
-0.0286361
-0.0335727
-0.0382848
-0.0427861
-0.0470854
-0.0511968
-0.0551306
-0.0588978
-0.0625066
-0.0659661
-0.0692835
-0.0724661
-0.0755206
-0.0784529
-0.0812691
-0.0839742
-0.0865734
-0.0890714
-0.0914726
-0.093781
-0.096001
-0.0981361
-0.10019
-0.102166
-0.104067
-0.105897
-0.107659
-0.109356
-0.11099
-0.112565
-0.114083
-0.115549
-0.116964
-0.118333
-0.119659
-0.120946
-0.122198
-0.12342
-0.124615
-0.12579
-0.12695
-0.128102
-0.129252
-0.130407
-0.131576
-0.132768
-0.133991
-0.135255
-0.136572
-0.137952
-0.139409
-0.140955
-0.142606
-0.144375
-0.146285
-0.148347
-0.150224
-0.151785
-0.153388
-0.155042
-0.15675
-0.158512
-0.160329
-0.162201
-0.164133
-0.166122
-0.168176
-0.170289
-0.17248
-0.174727
-0.177077
-0.179471
-0.182025
-0.184579
-0.187419
-0.190141
-0.193421
-0.196305
-0.200241
-0.203127
-0.207609
8.26244e-05
0.00743513
0.00109424
-0.0063907
-0.0123589
-0.017941
-0.0234304
-0.0286351
-0.0335714
-0.0382833
-0.0427846
-0.0470839
-0.0511953
-0.0551292
-0.0588965
-0.0625053
-0.0659649
-0.0692824
-0.0724651
-0.0755196
-0.0784519
-0.0812683
-0.0839734
-0.0865726
-0.0890707
-0.0914719
-0.0937803
-0.0960003
-0.0981355
-0.100189
-0.102165
-0.104067
-0.105897
-0.107659
-0.109355
-0.110989
-0.112564
-0.114083
-0.115548
-0.116964
-0.118333
-0.119659
-0.120946
-0.122198
-0.123419
-0.124615
-0.12579
-0.12695
-0.128102
-0.129252
-0.130407
-0.131576
-0.132768
-0.133991
-0.135255
-0.136572
-0.137952
-0.13941
-0.140955
-0.142606
-0.144375
-0.146286
-0.148347
-0.150225
-0.151785
-0.153388
-0.155042
-0.156749
-0.15851
-0.160327
-0.162199
-0.164129
-0.166117
-0.168169
-0.17028
-0.172467
-0.17471
-0.177055
-0.179443
-0.181985
-0.184529
-0.187342
-0.190049
-0.193259
-0.196106
-0.19986
-0.202602
-0.206748
-0.000168022
0.00738295
0.00107574
-0.00640334
-0.0123654
-0.0179439
-0.0234313
-0.0286349
-0.0335705
-0.0382821
-0.0427832
-0.0470824
-0.0511938
-0.0551278
-0.058895
-0.0625039
-0.0659636
-0.0692811
-0.0724639
-0.0755185
-0.0784509
-0.0812672
-0.0839725
-0.0865717
-0.0890698
-0.0914711
-0.0937795
-0.0959996
-0.0981348
-0.100189
-0.102165
-0.104066
-0.105896
-0.107658
-0.109355
-0.110989
-0.112564
-0.114082
-0.115548
-0.116963
-0.118333
-0.119659
-0.120946
-0.122198
-0.123419
-0.124614
-0.12579
-0.12695
-0.128101
-0.129251
-0.130407
-0.131576
-0.132767
-0.13399
-0.135255
-0.136572
-0.137952
-0.139409
-0.140954
-0.142605
-0.144374
-0.146284
-0.148345
-0.150222
-0.151782
-0.153384
-0.155037
-0.156744
-0.158503
-0.160318
-0.162188
-0.164117
-0.166101
-0.16815
-0.170257
-0.172438
-0.174675
-0.17701
-0.179388
-0.181912
-0.184442
-0.187214
-0.189897
-0.193013
-0.195803
-0.19934
-0.201924
-0.205714
-0.0004377
0.00731511
0.00105187
-0.0064209
-0.0123757
-0.0179495
-0.0234342
-0.0286361
-0.0335706
-0.0382815
-0.0427822
-0.0470811
-0.0511924
-0.0551263
-0.0588936
-0.0625025
-0.0659622
-0.0692797
-0.0724625
-0.0755172
-0.0784496
-0.0812661
-0.0839713
-0.0865706
-0.0890688
-0.0914701
-0.0937786
-0.0959987
-0.0981339
-0.100188
-0.102164
-0.104065
-0.105895
-0.107657
-0.109354
-0.110988
-0.112563
-0.114082
-0.115547
-0.116963
-0.118332
-0.119658
-0.120945
-0.122197
-0.123418
-0.124614
-0.125789
-0.126949
-0.128101
-0.129251
-0.130406
-0.131575
-0.132766
-0.133989
-0.135253
-0.13657
-0.13795
-0.139407
-0.140952
-0.142602
-0.14437
-0.14628
-0.148339
-0.150215
-0.151774
-0.153374
-0.155025
-0.15673
-0.158488
-0.1603
-0.162166
-0.164091
-0.166071
-0.168113
-0.170213
-0.172385
-0.174612
-0.176931
-0.179294
-0.18179
-0.184296
-0.187013
-0.189656
-0.192651
-0.195358
-0.198648
-0.201058
-0.204487
-0.000710224
0.00722875
0.00102215
-0.00644394
-0.0123903
-0.0179585
-0.0234398
-0.0286393
-0.0335721
-0.038282
-0.042782
-0.0470805
-0.0511915
-0.0551251
-0.0588923
-0.0625011
-0.0659608
-0.0692783
-0.0724611
-0.0755158
-0.0784483
-0.0812648
-0.0839701
-0.0865694
-0.0890676
-0.0914689
-0.0937775
-0.0959976
-0.0981329
-0.100187
-0.102163
-0.104064
-0.105894
-0.107656
-0.109353
-0.110987
-0.112562
-0.114081
-0.115546
-0.116962
-0.118331
-0.119657
-0.120944
-0.122196
-0.123418
-0.124613
-0.125788
-0.126948
-0.1281
-0.129249
-0.130404
-0.131573
-0.132764
-0.133987
-0.135251
-0.136567
-0.137946
-0.139402
-0.140946
-0.142595
-0.144362
-0.14627
-0.148327
-0.1502
-0.151757
-0.153355
-0.155003
-0.156704
-0.158457
-0.160265
-0.162126
-0.164043
-0.166015
-0.168049
-0.170137
-0.172295
-0.174505
-0.176801
-0.179141
-0.181595
-0.184065
-0.186706
-0.189288
-0.192134
-0.194728
-0.197746
-0.19997
-0.203043
-0.000962703
0.00712158
0.000986226
-0.00647277
-0.0124099
-0.0179714
-0.0234486
-0.0286451
-0.0335758
-0.0382841
-0.0427831
-0.0470808
-0.0511912
-0.0551245
-0.0588914
-0.0625001
-0.0659596
-0.069277
-0.0724598
-0.0755145
-0.0784469
-0.0812634
-0.0839687
-0.0865681
-0.0890663
-0.0914676
-0.0937763
-0.0959964
-0.0981317
-0.100186
-0.102162
-0.104063
-0.105893
-0.107655
-0.109352
-0.110986
-0.112561
-0.11408
-0.115545
-0.116961
-0.11833
-0.119656
-0.120943
-0.122195
-0.123416
-0.124612
-0.125787
-0.126946
-0.128098
-0.129247
-0.130402
-0.13157
-0.132761
-0.133983
-0.135246
-0.136561
-0.137939
-0.139394
-0.140936
-0.142583
-0.144347
-0.146251
-0.148305
-0.150173
-0.151726
-0.15332
-0.154963
-0.156658
-0.158405
-0.160205
-0.162057
-0.163964
-0.165923
-0.167942
-0.170012
-0.172148
-0.174334
-0.176596
-0.178898
-0.181296
-0.183711
-0.186252
-0.188744
-0.191415
-0.193861
-0.196592
-0.198618
-0.201352
-0.00116648
0.00699262
0.000944214
-0.00650734
-0.0124344
-0.0179886
-0.0234611
-0.0286542
-0.0335823
-0.0382886
-0.042786
-0.0470827
-0.0511923
-0.055125
-0.0588913
-0.0624997
-0.0659589
-0.0692762
-0.0724588
-0.0755133
-0.0784458
-0.0812622
-0.0839675
-0.0865668
-0.089065
-0.0914663
-0.093775
-0.0959952
-0.0981305
-0.100184
-0.102161
-0.104062
-0.105892
-0.107654
-0.109351
-0.110985
-0.11256
-0.114079
-0.115544
-0.11696
-0.118329
-0.119655
-0.120942
-0.122194
-0.123415
-0.12461
-0.125784
-0.126944
-0.128095
-0.129244
-0.130398
-0.131566
-0.132755
-0.133976
-0.135238
-0.136551
-0.137927
-0.139379
-0.140918
-0.142562
-0.144322
-0.146221
-0.148268
-0.150129
-0.151676
-0.153263
-0.154898
-0.156584
-0.15832
-0.160108
-0.161946
-0.163836
-0.165776
-0.167771
-0.169816
-0.171919
-0.174067
-0.17628
-0.178529
-0.180849
-0.183183
-0.185598
-0.187967
-0.190435
-0.192699
-0.195139
-0.196959
-0.199376
-0.00128819
0.00684274
0.00089713
-0.0065473
-0.0124636
-0.0180097
-0.0234774
-0.0286668
-0.0335918
-0.0382958
-0.0427914
-0.0470866
-0.0511951
-0.0551269
-0.0588926
-0.0625003
-0.0659591
-0.0692761
-0.0724585
-0.0755128
-0.078445
-0.0812613
-0.0839665
-0.0865658
-0.0890639
-0.0914652
-0.0937738
-0.095994
-0.0981293
-0.100183
-0.102159
-0.104061
-0.105891
-0.107653
-0.10935
-0.110984
-0.112559
-0.114078
-0.115543
-0.116959
-0.118328
-0.119654
-0.12094
-0.122192
-0.123413
-0.124607
-0.125781
-0.12694
-0.128091
-0.129239
-0.130392
-0.131558
-0.132746
-0.133965
-0.135225
-0.136535
-0.137908
-0.139356
-0.14089
-0.142528
-0.144281
-0.146172
-0.148209
-0.150058
-0.151596
-0.153172
-0.154794
-0.156466
-0.158186
-0.159955
-0.161771
-0.163636
-0.165548
-0.167509
-0.169514
-0.171569
-0.173663
-0.175806
-0.177978
-0.180196
-0.182417
-0.184678
-0.186886
-0.18913
-0.191183
-0.193331
-0.194942
-0.197063
-0.00129151
0.00667497
0.000847334
-0.00659198
-0.0124966
-0.0180341
-0.023497
-0.0286827
-0.0336045
-0.0383059
-0.0427995
-0.047093
-0.0512001
-0.0551308
-0.0588956
-0.0625026
-0.0659607
-0.0692771
-0.0724591
-0.0755131
-0.0784451
-0.0812611
-0.0839661
-0.0865652
-0.0890633
-0.0914644
-0.093773
-0.0959931
-0.0981283
-0.100182
-0.102158
-0.10406
-0.10589
-0.107652
-0.109349
-0.110983
-0.112558
-0.114076
-0.115541
-0.116957
-0.118326
-0.119652
-0.120938
-0.122189
-0.12341
-0.124604
-0.125777
-0.126935
-0.128084
-0.129231
-0.130383
-0.131547
-0.132733
-0.133948
-0.135204
-0.136511
-0.137878
-0.13932
-0.140847
-0.142476
-0.144218
-0.146095
-0.148116
-0.149949
-0.151471
-0.153031
-0.154634
-0.156283
-0.157979
-0.15972
-0.161504
-0.163332
-0.165201
-0.167113
-0.169061
-0.171048
-0.173065
-0.175113
-0.177178
-0.179263
-0.181337
-0.183413
-0.185425
-0.187424
-0.189246
-0.191107
-0.192508
-0.19435
-0.00114013
0.00649578
0.000798446
-0.00664042
-0.0125326
-0.0180604
-0.0235188
-0.028701
-0.0336197
-0.0383186
-0.0428101
-0.0471019
-0.0512075
-0.0551369
-0.0589006
-0.0625067
-0.0659641
-0.0692798
-0.0724613
-0.0755147
-0.0784464
-0.081262
-0.0839667
-0.0865656
-0.0890634
-0.0914644
-0.0937728
-0.0959928
-0.0981279
-0.100182
-0.102158
-0.104059
-0.105889
-0.107651
-0.109348
-0.110982
-0.112556
-0.114075
-0.11554
-0.116955
-0.118324
-0.119649
-0.120935
-0.122186
-0.123406
-0.124599
-0.125771
-0.126928
-0.128075
-0.12922
-0.130369
-0.13153
-0.132712
-0.133923
-0.135173
-0.136473
-0.137833
-0.139265
-0.14078
-0.142395
-0.144121
-0.145978
-0.147974
-0.149782
-0.151281
-0.152817
-0.154391
-0.156008
-0.157667
-0.159366
-0.161103
-0.162877
-0.164685
-0.166526
-0.168394
-0.170287
-0.172196
-0.17412
-0.176043
-0.177961
-0.179851
-0.181712
-0.183498
-0.185239
-0.186816
-0.188397
-0.189589
-0.191162
-0.000802966
0.00631897
0.00075466
-0.00669153
-0.0125703
-0.0180872
-0.0235412
-0.0287206
-0.0336364
-0.038333
-0.0428227
-0.0471128
-0.0512169
-0.0551451
-0.0589077
-0.0625128
-0.0659693
-0.0692843
-0.0724651
-0.075518
-0.0784491
-0.0812643
-0.0839686
-0.0865672
-0.0890647
-0.0914654
-0.0937736
-0.0959934
-0.0981282
-0.100182
-0.102158
-0.104059
-0.105889
-0.107651
-0.109347
-0.110981
-0.112556
-0.114074
-0.115539
-0.116954
-0.118322
-0.119647
-0.120932
-0.122182
-0.123401
-0.124593
-0.125763
-0.126918
-0.128062
-0.129204
-0.130349
-0.131505
-0.132681
-0.133885
-0.135127
-0.136417
-0.137764
-0.139181
-0.14068
-0.142274
-0.143975
-0.145801
-0.147761
-0.149532
-0.150998
-0.152497
-0.154029
-0.155598
-0.157204
-0.158843
-0.160512
-0.162209
-0.163931
-0.165673
-0.16743
-0.169197
-0.170965
-0.172727
-0.17447
-0.176187
-0.177858
-0.179479
-0.181016
-0.182489
-0.183813
-0.18512
-0.186104
-0.187413
-0.000263253
0.00616502
0.000723773
-0.00674372
-0.0126088
-0.0181127
-0.0235626
-0.0287395
-0.0336528
-0.0383475
-0.0428357
-0.0471245
-0.0512274
-0.0551545
-0.0589161
-0.0625203
-0.065976
-0.0692903
-0.0724704
-0.0755227
-0.0784533
-0.081268
-0.0839719
-0.0865701
-0.0890672
-0.0914676
-0.0937756
-0.095995
-0.0981297
-0.100183
-0.102159
-0.10406
-0.10589
-0.107651
-0.109347
-0.110981
-0.112555
-0.114073
-0.115538
-0.116952
-0.11832
-0.119644
-0.120928
-0.122177
-0.123394
-0.124584
-0.125751
-0.126903
-0.128044
-0.12918
-0.130319
-0.131469
-0.132636
-0.133829
-0.135058
-0.136333
-0.137662
-0.139058
-0.14053
-0.142093
-0.143757
-0.145539
-0.147446
-0.149162
-0.15058
-0.152025
-0.153497
-0.154998
-0.156527
-0.15808
-0.159654
-0.161245
-0.162848
-0.164458
-0.166068
-0.167671
-0.169258
-0.170821
-0.172348
-0.17383
-0.175254
-0.176613
-0.177885
-0.179084
-0.180152
-0.181192
-0.181967
-0.183015
0.000466466
0.00604971
0.000723457
-0.00679297
-0.0126464
-0.0181352
-0.0235812
-0.0287562
-0.0336673
-0.0383604
-0.0428475
-0.0471353
-0.0512374
-0.0551637
-0.0589245
-0.0625282
-0.0659833
-0.069297
-0.0724765
-0.0755283
-0.0784585
-0.0812727
-0.0839763
-0.0865741
-0.0890709
-0.091471
-0.0937786
-0.0959978
-0.0981322
-0.100185
-0.102161
-0.104062
-0.105891
-0.107652
-0.109348
-0.110982
-0.112556
-0.114073
-0.115538
-0.116951
-0.118318
-0.119641
-0.120923
-0.12217
-0.123384
-0.124571
-0.125735
-0.126882
-0.128017
-0.129146
-0.130276
-0.131415
-0.132569
-0.133747
-0.134957
-0.136209
-0.137512
-0.138876
-0.140311
-0.141828
-0.143438
-0.145155
-0.146985
-0.148623
-0.149971
-0.151339
-0.152725
-0.154131
-0.155554
-0.156991
-0.158436
-0.159884
-0.16133
-0.162768
-0.16419
-0.165588
-0.166954
-0.168281
-0.169558
-0.170778
-0.171931
-0.173014
-0.174011
-0.174935
-0.175748
-0.176525
-0.177091
-0.177878
0.0013231
0.00597623
0.000778972
-0.00683026
-0.0126798
-0.0181522
-0.0235951
-0.0287689
-0.033678
-0.0383699
-0.0428562
-0.0471435
-0.0512451
-0.055171
-0.0589314
-0.0625347
-0.0659895
-0.0693029
-0.0724821
-0.0755336
-0.0784636
-0.0812775
-0.0839808
-0.0865783
-0.0890749
-0.0914748
-0.0937822
-0.0960011
-0.0981353
-0.100188
-0.102164
-0.104064
-0.105893
-0.107654
-0.10935
-0.110983
-0.112557
-0.114074
-0.115537
-0.11695
-0.118315
-0.119636
-0.120917
-0.12216
-0.123371
-0.124553
-0.125712
-0.126852
-0.127978
-0.129096
-0.130214
-0.131336
-0.132471
-0.133627
-0.13481
-0.136029
-0.137293
-0.138611
-0.139991
-0.141444
-0.142977
-0.144601
-0.14632
-0.147848
-0.149098
-0.150358
-0.151626
-0.152903
-0.154184
-0.155465
-0.15674
-0.158004
-0.159251
-0.160474
-0.161666
-0.162821
-0.163931
-0.16499
-0.165991
-0.166929
-0.167798
-0.168596
-0.169317
-0.169968
-0.170527
-0.171049
-0.171407
-0.171937
0.00219852
0.00591983
0.000900591
-0.00684123
-0.0127023
-0.0181594
-0.0236012
-0.0287756
-0.0336832
-0.0383743
-0.0428603
-0.0471474
-0.0512488
-0.0551746
-0.058935
-0.0625383
-0.065993
-0.0693064
-0.0724856
-0.0755371
-0.0784669
-0.0812808
-0.083984
-0.0865815
-0.089078
-0.0914778
-0.0937851
-0.0960039
-0.0981381
-0.100191
-0.102166
-0.104066
-0.105896
-0.107656
-0.109351
-0.110984
-0.112557
-0.114073
-0.115536
-0.116947
-0.11831
-0.119629
-0.120907
-0.122146
-0.123352
-0.124528
-0.125678
-0.126808
-0.127921
-0.129025
-0.130123
-0.131223
-0.132331
-0.133453
-0.134597
-0.135769
-0.136978
-0.138229
-0.139532
-0.140892
-0.142316
-0.143811
-0.145378
-0.146755
-0.147871
-0.148986
-0.150096
-0.151201
-0.152297
-0.153378
-0.15444
-0.155475
-0.15648
-0.157448
-0.158374
-0.159252
-0.160077
-0.160846
-0.161554
-0.162199
-0.162779
-0.163294
-0.16374
-0.164126
-0.164438
-0.164715
-0.16487
-0.16515
0.00303899
0.0058398
0.00104688
-0.00682908
-0.01271
-0.0181527
-0.0235964
-0.0287737
-0.033681
-0.038372
-0.0428584
-0.0471457
-0.0512473
-0.0551734
-0.0589341
-0.0625376
-0.0659926
-0.0693062
-0.0724856
-0.0755373
-0.0784673
-0.0812814
-0.0839847
-0.0865823
-0.0890789
-0.0914788
-0.0937862
-0.0960051
-0.0981392
-0.100192
-0.102167
-0.104067
-0.105896
-0.107657
-0.109352
-0.110984
-0.112556
-0.114071
-0.115532
-0.116942
-0.118302
-0.119618
-0.120891
-0.122125
-0.123324
-0.12449
-0.125629
-0.126744
-0.12784
-0.128922
-0.129993
-0.131061
-0.13213
-0.133205
-0.134293
-0.1354
-0.13653
-0.13769
-0.138884
-0.140116
-0.141391
-0.14271
-0.144072
-0.145248
-0.146188
-0.147114
-0.148022
-0.148911
-0.149777
-0.150615
-0.15142
-0.152188
-0.152915
-0.153596
-0.154229
-0.154809
-0.155334
-0.155804
-0.156216
-0.15657
-0.156867
-0.157108
-0.157293
-0.157429
-0.157509
-0.157559
-0.157523
-0.157569
0.00381127
0.00577107
0.0011783
-0.00682309
-0.0127205
-0.0181447
-0.0235884
-0.0287675
-0.0336743
-0.038365
-0.0428517
-0.0471394
-0.0512414
-0.0551678
-0.0589288
-0.0625328
-0.0659881
-0.0693021
-0.0724819
-0.0755339
-0.0784643
-0.0812786
-0.0839822
-0.0865801
-0.0890769
-0.091477
-0.0937846
-0.0960036
-0.0981379
-0.100191
-0.102166
-0.104066
-0.105895
-0.107655
-0.10935
-0.110981
-0.112552
-0.114066
-0.115525
-0.116932
-0.11829
-0.119601
-0.120868
-0.122094
-0.123282
-0.124436
-0.125559
-0.126654
-0.127725
-0.128776
-0.12981
-0.130833
-0.131848
-0.132858
-0.13387
-0.134885
-0.135908
-0.136942
-0.137989
-0.13905
-0.140125
-0.141212
-0.142308
-0.143227
-0.143945
-0.144636
-0.145297
-0.145927
-0.146521
-0.147078
-0.147592
-0.148063
-0.148487
-0.148862
-0.149188
-0.149463
-0.149687
-0.149861
-0.149984
-0.15006
-0.150089
-0.150075
-0.150018
-0.149923
-0.14979
-0.149632
-0.149423
-0.149254
0.00433276
0.00575127
0.00127788
-0.00681517
-0.0127277
-0.0181416
-0.0235866
-0.028767
-0.0336731
-0.0383631
-0.0428495
-0.0471369
-0.0512387
-0.055165
-0.0589259
-0.0625298
-0.0659852
-0.0692992
-0.0724791
-0.0755312
-0.0784617
-0.0812761
-0.0839798
-0.0865778
-0.0890747
-0.0914749
-0.0937826
-0.0960017
-0.0981359
-0.100189
-0.102164
-0.104064
-0.105893
-0.107652
-0.109346
-0.110977
-0.112547
-0.114059
-0.115516
-0.11692
-0.118273
-0.119579
-0.120839
-0.122055
-0.123232
-0.12437
-0.125474
-0.126545
-0.127586
-0.1286
-0.12959
-0.130559
-0.131509
-0.132443
-0.133363
-0.134271
-0.135169
-0.136056
-0.136934
-0.1378
-0.138651
-0.139484
-0.14029
-0.140937
-0.141422
-0.141872
-0.142284
-0.142657
-0.142988
-0.143276
-0.143519
-0.143717
-0.143869
-0.143976
-0.144037
-0.144054
-0.144027
-0.143959
-0.143851
-0.143706
-0.143527
-0.143315
-0.143075