/*--------------------------------*- C++ -*----------------------------------*\
| =========                 |                                                 |
| \\      /  F ield         | OpenFOAM: The Open Source CFD Toolbox           |
|  \\    /   O peration     | Version:  2306                                  |
|   \\  /    A nd           | Website:  www.openfoam.com                      |
|    \\/     M anipulation  |                                                 |
\*---------------------------------------------------------------------------*/
FoamFile
{
    version     2.0;
    format      ascii;
    arch        "LSB;label=32;scalar=64";
    class       volScalarField;
    location    "1800";
    object      epsilon;
}
// * * * * * * * * * * * * * * * * * * * * * * * * * * * * * * * * * * * * * //

dimensions      [0 2 -3 0 0 0 0];

internalField   nonuniform List<scalar> 
20540
(
17007.8
44877.7
17000.5
44869.2
16966.4
44833.2
16904.6
44768.3
16810.2
44669.3
16677.3
44529.9
16498.6
44342
16265.7
44096.4
15969.1
43782
15597.5
43386.1
15138.5
42893.6
14578.3
42287.3
13902.7
41547.3
13097.8
40651.3
12152
39567.1
11060.2
38251.1
9829.05
36645.9
8475.67
34685.4
7031.47
32305.6
5549.92
29449.5
4110.05
26076.8
2814.74
22185.3
1774.3
17841.1
1061.41
13209.8
655.399
8560.3
456.558
4457.37
364.561
1750.06
317.369
642.45
284.111
338.505
266.375
259.849
263.773
235.64
264.088
228.976
264
229.321
263.66
237.091
266.853
263.905
286.17
345.321
320.81
660.475
370.359
1796.77
470.228
4553.69
688.688
8737.43
1137.27
13494.6
1925.74
18254.5
3076.82
22740.6
4514.92
26775.1
6125.17
30282.3
7798.33
33258.5
9447.51
35741.6
11011.2
37788.5
12445.3
39466.9
13720.5
40850.3
14830.2
41996.8
15780.7
42950.2
16584.8
43744.2
17257.7
44403
17815.2
44945.4
18272.3
45387.9
18643
45745.3
18939.5
46030.2
19172.8
46253.9
19352.3
46425.6
19486.2
46553.6
19581.6
46644.8
19644.3
46704.9
19679.4
46738.7
19690.6
46750
6.41872e+06
3.39749e+06
2.88452e+06
2.63237e+06
2.47335e+06
2.36596e+06
2.28945e+06
2.23191e+06
2.18728e+06
2.15186e+06
2.1232e+06
2.09963e+06
2.08e+06
2.06349e+06
2.04945e+06
2.03747e+06
2.02712e+06
2.0182e+06
2.0104e+06
2.00361e+06
1.99763e+06
1.99237e+06
1.9877e+06
1.98358e+06
1.97988e+06
1.97662e+06
1.97366e+06
1.97103e+06
1.96864e+06
1.96649e+06
1.96455e+06
1.96278e+06
1.9612e+06
1.95976e+06
1.95846e+06
1.95728e+06
1.95623e+06
1.95527e+06
1.95443e+06
1.95368e+06
1.95304e+06
1.9525e+06
1.95207e+06
1.95175e+06
1.95158e+06
1.95154e+06
1.95166e+06
1.95198e+06
1.9525e+06
1.95326e+06
1.95429e+06
1.95561e+06
1.9573e+06
1.95936e+06
1.96188e+06
1.96489e+06
1.9685e+06
1.9727e+06
1.97768e+06
1.98342e+06
1.99013e+06
1.99779e+06
2.00671e+06
2.01521e+06
2.02258e+06
2.03036e+06
2.03867e+06
2.04748e+06
2.0568e+06
2.06664e+06
2.07705e+06
2.08805e+06
2.09965e+06
2.1119e+06
2.12488e+06
2.13848e+06
2.15316e+06
2.16822e+06
2.18528e+06
2.20173e+06
2.22278e+06
2.23973e+06
2.26935e+06
2.28412e+06
2.32943e+06
2.35035e+06
2.40881e+06
2.46802e+06
2.02009e+06
1.07526e+06
906978
824894
773243
738353
713518
694865
680407
668939
659668
652045
645700
640367
635831
631965
628620
625743
623226
621036
619105
617410
615903
614575
613381
612330
611377
610528
609758
609064
608439
607869
607360
606894
606475
606096
605756
605448
605175
604932
604723
604544
604402
604295
604232
604212
604241
604330
604482
604706
605012
605410
605917
606538
607302
608213
609304
610577
612086
613822
615856
618175
620871
623438
625663
628015
630517
633167
635969
638921
642038
645327
648784
652428
656274
660300
664614
669039
674000
678785
684812
689671
697976
702139
714285
719625
733851
762317
1.02772e+06
587765
500128
456528
428603
409539
395896
385617
377630
371285
366149
361923
358403
355443
352924
350777
348918
347318
345919
344700
343626
342683
341844
341105
340440
339855
339324
338851
338422
338036
337687
337370
337086
336826
336592
336381
336191
336019
335867
335730
335613
335513
335432
335371
335334
335320
335333
335378
335458
335577
335741
335954
336226
336560
336971
337462
338049
338734
339547
340481
341575
342821
344268
345643
346835
348095
349432
350845
352337
353906
355559
357299
359125
361041
363061
365161
367412
369693
372258
374684
377758
380164
384276
386338
391972
394196
400957
406515
626423
375674
323289
296767
279412
267390
258719
252154
247035
242959
239653
236930
234658
232747
231119
229731
228529
227493
226587
225798
225102
224491
223947
223467
223036
222656
222312
222005
221727
221476
221249
221043
220859
220690
220538
220400
220277
220164
220065
219976
219899
219832
219779
219738
219711
219700
219706
219731
219778
219850
219949
220079
220246
220451
220704
221006
221368
221790
222290
222865
223538
224303
225192
226034
226763
227535
228350
229210
230116
231067
232067
233115
234212
235358
236563
237807
239138
240472
241970
243364
245126
246475
248756
249888
252907
253634
258356
250086
423070
259234
225238
208010
196488
188363
182441
177929
174394
171569
169272
167377
165793
164460
163322
162351
161510
160785
160150
159597
159109
158680
158299
157962
157660
157392
157151
156935
156739
156562
156404
156258
156129
156010
155902
155805
155718
155639
155568
155505
155450
155403
155364
155333
155313
155302
155303
155317
155345
155390
155453
155536
155644
155777
155941
156136
156371
156646
156971
157344
157781
158277
158853
159397
159867
160365
160889
161440
162020
162626
163262
163926
164618
165338
166091
166865
167685
168505
169412
170255
171295
172090
173395
174024
175748
175750
179135
169235
305136
187514
163897
152292
144394
138708
134510
131284
128740
126697
125031
123653
122498
121525
120693
119983
119366
118835
118369
117963
117604
117289
117008
116760
116538
116341
116163
116003
115859
115729
115611
115504
115408
115321
115241
115169
115105
115046
114993
114946
114905
114869
114839
114815
114798
114788
114786
114793
114810
114838
114878
114932
115002
115089
115197
115327
115483
115665
115881
116128
116418
116746
117127
117486
117795
118123
118467
118827
119205
119598
120010
120438
120881
121341
121817
122307
122816
123330
123878
124399
125007
125484
126227
126565
127539
127279
129439
122318
230220
140228
122628
114599
109105
105066
102036
99682.7
97811.8
96300.3
95061.5
94033
93169.1
92439.2
91813.8
91279.4
90814.6
90413.6
90061.5
89754.4
89483.1
89244.1
89031.4
88843.4
88674.4
88524.7
88389.7
88268.4
88158.8
88059.6
87970.5
87888.8
87815.8
87748.9
87688.3
87633.4
87584
87538.8
87498.3
87461.8
87429.9
87401.7
87378.1
87358.5
87344
87334.4
87330.6
87333
87341.6
87358.2
87383.4
87417.8
87463.4
87520.3
87591.7
87677.2
87780.5
87901
88044.7
88208.8
88401.1
88618.4
88870.4
89107
89310.2
89525.7
89751.3
89986.9
90232.5
90487.5
90752.2
91027.5
91309.1
91602.5
91899.6
92208.9
92518.8
92840.1
93161
93484.1
93823.5
94109.1
94513
94682.5
95192.6
94917.2
95997.6
92471.6
179432
107660
93547.8
87815.6
83968.1
81089.7
78892.9
77165.2
75777.1
74646.4
73714
72936.2
72280.3
71724.5
71246.8
70838
70481.5
70173.7
69902.8
69666.3
69457.1
69272.7
69108.4
68963
68832.3
68716.3
68611.8
68517.6
68432.6
68355.5
68286.3
68222.8
68166.1
68114
68066.8
68023.9
67985.3
67949.9
67918
67889.2
67863.9
67841.3
67822.1
67805.7
67793.2
67784
67778.8
67778.2
67781.8
67790.7
67805.5
67826.6
67855.2
67891.4
67937.4
67992.6
68059.9
68138.2
68232.2
68339.2
68464.8
68606.2
68770.2
68923.9
69055
69194.4
69339.7
69490.8
69647.3
69809.3
69975.8
70149.2
70323.2
70506.1
70685.1
70876.2
71055.8
71253
71428.5
71624.4
71797.7
71962.6
72159.9
72234.3
72454
72257.7
72567
72080.9
143304
84541.2
72434.1
68146.7
65430
63386.2
61800.9
60536.6
59507.9
58661.4
57957.8
57367.3
56866.5
56440.6
56073
55757.8
55481.9
55243.4
55033
54849
54686
54542.1
54413.7
54300
54197.6
54106.6
54024.7
53950.7
53883.9
53823.2
53768.8
53718.8
53674.1
53633
53595.7
53561.8
53531.2
53503
53477.6
53454.5
53434.1
53415.7
53399.8
53386.1
53375
53366.3
53360.4
53357.8
53358.1
53361.7
53369.4
53381.2
53398.1
53419.8
53448.1
53482.3
53524.4
53573.4
53632.7
53699.9
53779.2
53867.9
53970.8
54067.3
54149
54235.8
54325.9
54419.2
54514.9
54613.8
54713.6
54818.3
54919.9
55029
55129.7
55242.4
55337.4
55452.4
55537.3
55648.3
55721.8
55809.1
55881.2
55903.6
55952.1
55845.1
55711.9
56563.3
116644
67755.9
56806.2
53381.6
51422.9
49977.5
48846
47931.4
47176.8
46548.3
46020.4
45574
45192.7
44866.8
44584
44340.7
44127
43941.8
43777.8
43634.2
43506.6
43393.8
43293
43203.6
43123.1
43051.2
42986.7
42928.1
42875.2
42827.2
42784.1
42744.4
42708.9
42676.2
42646.5
42619.5
42595.1
42572.4
42552
42533.3
42516.7
42501.6
42488.4
42476.7
42466.9
42458.9
42452.6
42448.7
42446.8
42447.1
42449.9
42455.3
42464
42475.8
42491.7
42511.1
42535.7
42564.2
42599.2
42638.8
42685.8
42737.9
42798.5
42855.5
42903.2
42953.7
43005.9
43059.7
43114
43170
43224.8
43283.3
43336.8
43396.4
43446.2
43506.3
43548.5
43607.9
43639.3
43691.5
43709.4
43744.5
43745.5
43739.8
43705.7
43628.4
43345
44419.1
96401.5
55342.3
45095.7
42142.3
40664.1
39636.3
38838.2
38188.3
37644.8
37185.8
36795.8
36462.5
36175.4
35928.5
35712.5
35526.1
35361.4
35218.3
35091
34979.3
34879.7
34791.5
34712.4
34642.2
34578.8
34522.2
34471.2
34424.9
34383
34344.8
34310.7
34279.1
34250.9
34224.8
34201.1
34179.5
34160
34141.8
34125.3
34110.1
34096.6
34084.1
34073.1
34063.2
34054.6
34047.2
34041.1
34036.4
34033.1
34031.2
34030.9
34032.1
34035.2
34040.1
34047.5
34056.8
34069.2
34083.6
34102
34122.5
34147.2
34174.3
34205.9
34235.8
34260.3
34286.3
34312.7
34339.9
34366.3
34393.8
34418.8
34446.7
34468.9
34495.7
34513.7
34538.3
34549.6
34571.2
34573.6
34584.4
34575.9
34572.8
34545.8
34520.3
34444.9
34377.2
34090.2
34984
80675.4
46011.1
36250.5
33518
32314.5
31561.5
31000.7
30547.7
30166
29839.4
29558
29314.9
29103.1
28919.4
28757.3
28616.7
28491.5
28382.3
28284.6
28198.7
28121.7
28053.4
27991.9
27937.2
27887.7
27843.3
27803.3
27766.9
27733.9
27703.7
27676.8
27651.7
27629.4
27608.7
27589.9
27572.7
27557.1
27542.5
27529.2
27517
27506
27495.7
27486.6
27478.2
27470.8
27464.2
27458.3
27453.4
27449.4
27446.2
27443.9
27442.3
27441.9
27442.3
27444
27446.6
27450.8
27455.7
27462.8
27470.5
27480.3
27490.7
27502.8
27514.5
27523.8
27533.6
27543.1
27552.7
27561.1
27570
27576.1
27584
27587
27592.3
27591.5
27592.8
27587.8
27584.6
27571.4
27561.3
27535
27516.1
27469.3
27435.7
27348.1
27281.8
27036.1
27699.6
68223.8
38888
29532.8
26875.4
25800.1
25209
24805.9
24493.5
24232.7
24008
23812.1
23640.7
23489.4
23356.9
23238.6
23135.3
23042.4
22961.1
22887.8
22823
22764.7
22712.6
22665.7
22623.7
22585.7
22551.4
22520.6
22492.3
22466.6
22443.1
22422.1
22402.5
22385
22368.8
22354
22340.4
22328.1
22316.5
22306
22296.2
22287.3
22279
22271.5
22264.5
22258.2
22252.4
22247.1
22242.3
22238
22234.2
22230.8
22227.6
22225
22222.6
22220.8
22219
22218.1
22216.9
22216.7
22216.1
22216.2
22216
22215.7
22215.7
22215.4
22215
22213.9
22212.6
22209.7
22207.1
22201.7
22197.6
22189
22182.7
22170
22160.8
22142.6
22129.8
22104.1
22086.3
22049.4
22024.5
21970.5
21933.4
21848.5
21783.1
21583.7
22060.8
58197.8
33365.5
24408.4
21754.4
20710.5
20195.1
19884.3
19664.4
19489
19340
19209.5
19094.4
18991.3
18900.1
18817.5
18744.8
18678.6
18620.3
18567.2
18520.1
18477.3
18438.9
18404.1
18372.9
18344.5
18318.7
18295.6
18274.1
18254.7
18236.8
18220.8
18205.8
18192.4
18179.9
18168.5
18158.1
18148.6
18139.6
18131.4
18123.7
18116.7
18110.1
18104.1
18098.4
18093.1
18088.2
18083.5
18079.1
18074.9
18071
18067.1
18063.2
18059.5
18055.4
18051.6
18047.4
18043.3
18038.6
18034
18028.7
18023
18016.4
18008.7
18002
17995.7
17989.5
17981.9
17974.6
17965
17956.4
17944.1
17934
17918.5
17906.7
17887.1
17873.2
17848.3
17831.8
17800.2
17779.7
17739.1
17712.6
17658.8
17621.5
17545.6
17483.2
17325
17666
50029.4
29012.2
20482.7
17808.7
16740.2
16239.2
15968.5
15800.1
15679.2
15582.3
15499.5
15426.8
15361.2
15302.7
15248.7
15200.9
15156.6
15117.4
15081.1
15048.7
15019
14992.2
14967.7
14945.6
14925.3
14906.9
14890.3
14874.7
14860.6
14847.5
14835.8
14824.8
14815
14805.7
14797.3
14789.5
14782.5
14775.7
14769.5
14763.7
14758.4
14753.3
14748.7
14744.2
14739.9
14735.9
14731.9
14728.1
14724.3
14720.5
14716.7
14712.7
14708.5
14703.8
14699.1
14693.6
14688
14681.5
14674.7
14666.8
14658.1
14648.3
14636.7
14626.5
14617.2
14608
14597.1
14586.9
14574
14562.5
14547.1
14534.4
14515.8
14501.7
14479.4
14463.9
14436.9
14419.5
14386.8
14366.1
14326.4
14300.6
14250.8
14215.7
14150.2
14092.7
13969.8
14213.4
43316.4
25513.9
17460.9
14772.4
13653.8
13128.5
12859.1
12708.9
12615.3
12549.4
12497.9
12454.9
12416.7
12382.9
12351.3
12323.2
12296.4
12272.8
12250.4
12230.2
12211.5
12194.4
12178.6
12164.3
12151
12138.8
12127.8
12117.3
12107.8
12098.9
12091
12083.4
12076.7
12070.3
12064.5
12059.1
12054.2
12049.4
12045
12040.8
12037.1
12033.4
12030
12026.6
12023.4
12020.3
12017.1
12014
12010.7
12007.4
12003.9
12000.1
11996.1
11991.4
11986.5
11980.7
11974.6
11967.5
11959.9
11951.1
11941.2
11930.3
11917.3
11905.8
11895.3
11885.1
11873.1
11861.9
11848
11835.8
11819.5
11806.2
11787.3
11772.9
11750.6
11735.1
11709
11692
11661.1
11641.8
11605.1
11581.6
11537.2
11506.2
11450.2
11399.6
11305.2
11478.3
37761.3
22633.3
15120.9
12438.1
11264.9
10695.3
10401.9
10244.7
10156.2
10102.8
10067.5
10042.2
10021.8
10005.1
9989.61
9976.18
9963.01
9951.52
9940.17
9930
9920.22
9911.22
9902.7
9894.91
9887.55
9880.68
9874.52
9868.46
9862.98
9857.71
9853.08
9848.5
9844.5
9840.6
9837.05
9833.77
9830.75
9827.77
9825.02
9822.35
9819.95
9817.55
9815.3
9813.02
9810.79
9808.57
9806.22
9803.84
9801.3
9798.57
9795.67
9792.34
9788.74
9784.48
9779.89
9774.45
9768.57
9761.72
9754.17
9745.61
9735.79
9724.99
9712.12
9700.79
9690.39
9680.38
9668.57
9657.66
9644.15
9632.34
9616.85
9604.09
9586.31
9572.61
9552.17
9537.47
9513.86
9497.98
9470.5
9452.91
9420.55
9400.02
9361.26
9335.01
9287.6
9246.56
9172.54
9295.63
33140.5
20180.5
13294.5
10643.9
9423.73
8804.27
8473.38
8292.66
8192.55
8136.31
8104.11
8085.47
8073.87
8066.77
8061.38
8057.63
8053.93
8051.2
8048.13
8045.54
8042.76
8040.17
8037.52
8035.07
8032.62
8030.19
8028.1
8025.76
8023.7
8021.56
8019.76
8017.82
8016.19
8014.49
8012.96
8011.53
8010.21
8008.83
8007.53
8006.23
8005.07
8003.86
8002.69
8001.42
8000.13
7998.78
7997.26
7995.64
7993.83
7991.8
7989.57
7986.93
7983.96
7980.37
7976.4
7971.63
7966.39
7960.27
7953.4
7945.65
7936.65
7926.8
7915
7904.6
7895.04
7885.86
7875.05
7865.06
7852.83
7842.02
7828.16
7816.5
7800.79
7788.26
7770.42
7756.98
7736.64
7722.15
7698.72
7682.86
7655.46
7637.49
7604.76
7582.96
7543.36
7511.18
7453.61
7540.92
29223.1
18067.1
11853.5
9262.94
8009.61
7343.82
6971.63
6758.93
6636.51
6566.32
6526.65
6505.23
6494.17
6489.7
6488.5
6489.42
6491.06
6493.58
6495.89
6498.4
6500.55
6502.61
6504.33
6505.93
6507.29
6508.37
6509.53
6510.2
6510.95
6511.4
6511.97
6512.25
6512.63
6512.83
6513.04
6513.22
6513.35
6513.39
6513.36
6513.3
6513.26
6513.11
6512.92
6512.59
6512.17
6511.65
6510.89
6510.05
6508.98
6507.68
6506.13
6504.22
6501.98
6499.17
6495.97
6492.07
6487.67
6482.54
6476.65
6470.02
6462.23
6453.71
6443.45
6434.37
6426.02
6417.97
6408.57
6399.77
6389.2
6379.66
6367.79
6357.45
6344.13
6332.97
6317.99
6305.96
6289.02
6276.04
6256.67
6242.52
6220
6204.25
6177.46
6159.17
6127.06
6102.21
6057.94
6119.66
25781.7
16248.9
10698.3
8194.77
6924.94
6221.72
5811.01
5564.54
5414.92
5324.16
5269.73
5238.31
5221
5213.05
5210.51
5211.52
5214.34
5218.55
5223.24
5228.24
5233.12
5237.91
5242.37
5246.61
5250.56
5254.08
5257.57
5260.47
5263.31
5265.74
5268.16
5270.18
5272.18
5273.89
5275.53
5277.01
5278.4
5279.6
5280.7
5281.64
5282.56
5283.32
5283.99
5284.49
5284.84
5285.07
5284.97
5284.9
5284.52
5283.93
5283.05
5281.86
5280.31
5278.32
5275.92
5272.93
5269.45
5265.36
5260.56
5255.14
5248.69
5241.61
5233.05
5225.4
5218.39
5211.54
5203.66
5196.12
5187.31
5179.08
5169.24
5160.27
5149.29
5139.55
5127.27
5116.73
5102.93
5091.5
5075.82
5063.38
5045.24
5031.58
5010.15
4994.85
4969.35
4950.44
4916.73
4960.17
22616
14670.6
9747.49
7357.88
6090.14
5361.33
4919.03
4641.8
4464.9
4351.25
4278.34
4232.44
4204.12
4187.99
4179.54
4176.59
4177.01
4179.41
4183.58
4188.4
4193.75
4199.25
4204.67
4210.01
4215.19
4219.97
4224.75
4228.95
4233.07
4236.77
4240.38
4243.6
4246.7
4249.49
4252.16
4254.6
4256.91
4258.99
4260.96
4262.68
4264.36
4265.84
4267.2
4268.38
4269.37
4270.25
4270.82
4271.32
4271.55
4271.46
4271.29
4270.73
4269.84
4268.58
4266.92
4264.79
4262.17
4259.07
4255.34
4251.08
4245.94
4240.23
4233.32
4227.03
4221.33
4215.63
4209.19
4202.87
4195.69
4188.74
4180.74
4173.12
4164.22
4155.9
4145.97
4136.91
4125.8
4115.95
4103.39
4092.69
4078.26
4066.65
4049.76
4037.19
4017.26
4003.08
3977.63
4008.04
19548.1
13257.7
8927.57
6682.63
5438.59
4698.34
4233.96
3932.15
3731.4
3596.1
3504.28
3442.3
3400.59
3373.48
3356.14
3346.14
3340.95
3339.29
3340.06
3342.25
3345.95
3350.14
3354.75
3359.6
3364.57
3369.32
3374.23
3378.73
3383.2
3387.32
3391.38
3395.12
3398.74
3402.07
3405.28
3408.26
3411.09
3413.69
3416.18
3418.41
3420.58
3422.54
3424.37
3426.02
3427.46
3428.8
3429.85
3430.82
3431.51
3432.04
3432.24
3432.14
3431.87
3431.21
3430.17
3428.76
3426.9
3424.66
3421.87
3418.62
3414.65
3410.15
3404.7
3399.63
3395.09
3390.43
3385.27
3380.07
3374.3
3368.55
3362.12
3355.76
3348.61
3341.63
3333.67
3326.04
3317.15
3308.85
3298.86
3289.87
3278.5
3268.86
3255.74
3245.63
3230.32
3219.82
3200.76
3221.89
16434.6
11902.8
8163.79
6104.12
4911.06
4176.81
3702.28
3384.35
3165.7
3012.67
2904.21
2827.12
2772
2733.15
2705.68
2687.01
2674.45
2666.64
2662.26
2660.14
2660.29
2661.4
2663.64
2666.55
2669.91
2673.38
2677.27
2680.99
2684.85
2688.51
2692.23
2695.72
2699.18
2702.45
2705.64
2708.64
2711.52
2714.22
2716.82
2719.19
2721.52
2723.66
2725.66
2727.52
2729.18
2730.75
2732.06
2733.29
2734.28
2735.1
2735.74
2736.02
2735.95
2735.78
2735.24
2734.37
2733.14
2731.57
2729.53
2727.07
2724.07
2720.58
2716.36
2712.33
2708.75
2704.99
2700.89
2696.67
2692.09
2687.39
2682.27
2677.06
2671.35
2665.61
2659.26
2652.97
2645.9
2639.06
2631.18
2623.81
2614.96
2607.16
2597.13
2589.18
2577.63
2569.95
2555.82
2570.36
13201
10447.7
7371
5555.33
4449.98
3744.7
3275.37
2952.3
2723.84
2559.09
2438.39
2349.26
2282.76
2233.33
2196.26
2168.9
2148.59
2133.91
2123.44
2116.14
2111.49
2108.64
2107.29
2107.09
2107.68
2108.87
2110.78
2112.73
2115.09
2117.48
2120.09
2122.62
2125.26
2127.79
2130.35
2132.81
2135.23
2137.57
2139.86
2141.98
2144.08
2146.04
2147.9
2149.65
2151.24
2152.75
2154.07
2155.32
2156.35
2157.31
2157.98
2158.63
2158.66
2158.65
2158.27
2157.9
2157.09
2155.97
2154.5
2152.64
2150.4
2147.67
2144.42
2141.24
2138.44
2135.41
2132.18
2128.75
2125.07
2121.26
2117.22
2113.06
2108.56
2103.94
2098.93
2093.86
2088.31
2082.8
2076.68
2070.79
2064.03
2057.89
2050.37
2044.26
2035.72
2030.18
2019.86
2029.72
9973.8
8621.79
6450.42
4961.5
3993.7
3348.82
2905.55
2591.96
2364.46
2196.15
2069.52
1973.24
1899.13
1841.97
1797.41
1762.84
1735.79
1714.82
1698.54
1685.98
1676.43
1669.21
1663.9
1660.06
1657.49
1655.71
1654.97
1654.44
1654.69
1655.23
1656.12
1657.13
1658.38
1659.7
1661.05
1662.5
1663.99
1665.52
1667.05
1668.49
1670
1671.42
1672.81
1674.13
1675.35
1676.55
1677.61
1678.62
1679.45
1680.27
1680.79
1681.35
1681.37
1681.4
1681.02
1680.85
1680.32
1679.48
1678.35
1676.89
1675.14
1673.02
1670.49
1668.01
1665.81
1663.41
1660.85
1658.1
1655.18
1652.16
1648.97
1645.66
1642.14
1638.49
1634.58
1630.59
1626.3
1622
1617.33
1612.78
1607.72
1603.03
1597.53
1592.96
1586.8
1582.88
1575.44
1582
6706.41
6402.96
5328.55
4240.23
3473.09
2930.82
2542.16
2258.05
2046.1
1885.25
1761.23
1664.59
1588.3
1527.8
1479.28
1440.36
1408.85
1383.39
1362.72
1345.93
1332.32
1321.27
1312.36
1305.13
1299.42
1294.76
1291.21
1288.34
1286.21
1284.58
1283.46
1282.65
1282.21
1282.06
1281.76
1281.95
1282.27
1282.7
1283.21
1283.72
1284.34
1284.97
1285.61
1286.26
1286.86
1287.48
1288.03
1288.58
1288.99
1289.48
1289.61
1289.66
1289.63
1289.61
1289.11
1288.96
1288.52
1287.82
1286.84
1285.63
1284.16
1282.43
1280.36
1278.38
1276.65
1274.77
1272.75
1270.6
1268.32
1265.93
1263.43
1260.82
1258.07
1255.23
1252.23
1249.16
1245.92
1242.65
1239.18
1235.77
1232.09
1228.63
1224.72
1221.39
1217.11
1214.3
1209.16
1213.39
3516.4
4066.98
3838.66
3309.31
2817.31
2428.78
2131.2
1902.73
1725.57
1586.77
1476.73
1388.72
1317.56
1259.69
1212.17
1173.03
1140.54
1113.5
1090.89
1071.94
1056.01
1042.57
1031.27
1021.67
1013.61
1006.73
1000.97
996.056
991.933
988.429
985.509
983.022
980.975
979.275
977.815
976.631
975.664
974.887
974.279
973.778
973.41
973.134
972.925
972.782
972.663
972.592
972.519
972.468
972.392
972.315
972.19
972.004
971.746
971.421
970.971
970.444
969.797
969.01
968.048
966.92
965.592
964.057
962.269
960.648
959.243
957.745
956.153
954.471
952.698
950.845
948.904
946.889
944.788
942.623
940.373
938.075
935.693
933.293
930.798
928.337
925.747
923.291
920.596
918.265
915.363
913.441
909.939
912.594
1265.14
1986.28
2202.43
2146.97
1994.9
1798.95
1628.45
1483.49
1362.77
1263.09
1180.63
1112.25
1055.2
1007.43
967.175
933.132
904.18
879.474
858.305
840.097
824.403
810.809
799.038
788.781
779.866
772.063
765.252
759.275
754.039
749.433
745.39
741.82
738.685
735.92
733.476
731.318
729.413
727.726
726.239
724.915
723.743
722.705
721.775
720.945
720.19
719.506
718.872
718.282
717.718
717.175
716.632
716.086
715.513
714.911
714.255
713.545
712.754
711.883
710.898
709.804
708.567
707.185
705.624
704.281
703.138
701.942
700.69
699.384
698.023
696.612
695.15
693.644
692.092
690.506
688.879
687.231
685.546
683.86
682.135
680.441
678.689
677.028
675.241
673.691
671.794
670.552
668.218
669.83
452.842
713.329
944.497
1068.52
1099.08
1084.89
1049.19
996.965
944.792
896.467
852.609
813.542
779.009
748.662
722.016
698.636
678.093
660.012
644.075
629.986
617.521
606.452
596.62
587.853
580.034
573.038
566.773
561.152
556.1
551.554
547.457
543.76
540.421
537.401
534.666
532.187
529.939
527.895
526.037
524.343
522.797
521.385
520.089
518.9
517.799
516.78
515.827
514.934
514.084
513.275
512.487
511.72
510.954
510.189
509.403
508.597
507.747
506.858
505.901
504.882
503.773
502.574
501.261
500.191
499.295
498.376
497.431
496.461
495.464
494.443
493.4
492.339
491.26
490.169
489.066
487.959
486.844
485.737
484.622
483.533
482.426
481.376
480.273
479.305
478.159
477.397
475.903
476.837
268.328
302.571
371.118
437.678
488.254
518.381
537.18
540.36
538.248
532.752
523.383
512.649
501.456
490.398
479.745
469.632
460.139
451.277
443.063
435.47
428.474
422.03
416.105
410.654
405.645
401.038
396.8
392.902
389.313
386.009
382.965
380.16
377.574
375.188
372.986
370.954
369.076
367.341
365.735
364.249
362.871
361.593
360.404
359.298
358.264
357.297
356.385
355.527
354.708
353.928
353.173
352.443
351.724
351.015
350.302
349.587
348.851
348.1
347.312
346.494
345.626
344.71
343.73
342.974
342.351
341.723
341.089
340.446
339.796
339.139
338.478
337.813
337.145
336.479
335.814
335.154
334.498
333.853
333.213
332.591
331.972
331.383
330.783
330.239
329.65
329.202
328.327
328.85
222.63
222.249
227.772
241.06
259.23
274.67
288.515
298.48
305.649
310.184
313.292
313.802
313.414
312.714
311.183
309.146
306.759
304.153
301.473
298.805
296.146
293.527
290.977
288.509
286.134
283.861
281.69
279.627
277.668
275.815
274.062
272.409
270.85
269.385
268.006
266.711
265.495
264.354
263.283
262.28
261.337
260.455
259.625
258.847
258.113
257.424
256.77
256.152
255.562
254.999
254.458
253.933
253.423
252.922
252.426
251.933
251.434
250.933
250.418
249.892
249.345
248.78
248.189
247.779
247.444
247.118
246.793
246.475
246.154
245.839
245.527
245.219
244.915
244.612
244.315
244.022
243.734
243.454
243.178
242.91
242.653
242.402
242.165
241.934
241.722
241.487
241.132
241.35
212.573
202.533
195.208
194.796
196.636
200.876
207.148
213.388
219.287
224.224
228.514
231.771
234.192
235.864
237.064
237.603
237.351
237.19
236.498
236.19
235.42
234.503
233.489
232.411
231.291
230.152
229.006
227.87
226.749
225.655
224.59
223.561
222.568
221.616
220.703
219.834
219.003
218.216
217.465
216.758
216.085
215.454
214.854
214.295
213.764
213.27
212.802
212.364
211.952
211.564
211.203
210.857
210.541
210.232
209.952
209.681
209.426
209.185
208.947
208.717
208.499
208.277
208.073
208.005
207.952
207.933
207.889
207.972
207.693
207.763
207.866
207.896
207.993
207.784
207.746
207.724
207.709
207.712
207.679
207.671
207.765
207.681
207.687
207.675
207.687
207.735
207.686
207.704
213.018
203.139
196.035
196.183
198.47
203.472
210.336
217.146
223.471
228.793
233.345
236.816
239.385
241.149
242.398
242.973
242.694
242.534
241.923
241.465
240.619
239.637
238.557
237.411
236.224
235.017
233.805
232.602
231.416
230.259
229.132
228.043
226.992
225.984
225.017
224.097
223.215
222.382
221.585
220.837
220.122
219.457
218.821
218.234
217.675
217.161
216.674
216.227
215.809
215.424
215.073
214.742
214.467
214.176
213.973
213.76
213.563
213.379
213.184
212.921
212.767
212.443
212.355
212.199
212.309
212.519
212.741
212.967
213.187
213.407
213.629
213.852
214.075
214.296
214.517
214.738
214.962
215.189
215.42
215.654
215.893
216.13
216.375
216.606
216.861
217.063
217.36
217.448
224.545
225.027
232.05
248.117
268.997
287.033
302.91
314.468
322.678
327.996
331.478
332.19
331.872
331.081
329.304
327.001
324.305
321.393
318.391
315.386
312.395
309.453
306.586
303.815
301.146
298.591
296.149
293.828
291.621
289.532
287.553
285.686
283.923
282.264
280.698
279.23
277.844
276.55
275.327
274.19
273.116
272.122
271.183
270.318
269.505
268.757
268.063
267.423
266.84
266.306
265.825
265.399
265.017
264.696
264.418
264.196
264.033
263.889
263.831
263.635
263.623
263.433
263.478
263.618
263.851
264.16
264.514
264.902
265.311
265.729
266.151
266.574
266.998
267.422
267.849
268.277
268.707
269.138
269.571
269.999
270.431
270.849
271.277
271.672
272.111
272.445
272.964
273.074
273.737
312.462
389.984
464.665
521.516
555.425
576.192
579.533
577.065
570.738
560.079
547.965
535.405
523.042
511.126
499.809
489.195
479.287
470.101
461.603
453.766
446.541
439.887
433.761
428.116
422.92
418.128
413.713
409.637
405.878
402.404
399.196
396.228
393.486
390.946
388.597
386.418
384.405
382.534
380.807
379.203
377.722
376.351
375.084
373.922
372.843
371.872
370.962
370.168
369.421
368.79
368.202
367.742
367.259
367.144
366.314
366.138
365.92
365.822
365.819
366.081
366.424
366.805
367.282
367.699
368.167
368.678
369.224
369.793
370.38
370.98
371.59
372.21
372.838
373.473
374.111
374.752
375.39
376.028
376.655
377.282
377.887
378.503
379.068
379.693
380.169
380.896
381.074
467.504
747.596
999.054
1132.24
1165.2
1149.53
1110.35
1053.57
997.198
945.031
897.725
855.53
818.248
785.417
756.576
731.192
708.861
689.14
671.722
656.27
642.557
630.339
619.442
609.695
600.958
593.115
586.052
579.691
573.94
568.745
564.032
559.762
555.877
552.349
549.132
546.204
543.529
541.09
538.859
536.823
534.961
533.26
531.713
530.293
529.021
527.844
526.812
525.859
525.044
524.303
523.687
523.155
522.713
522.37
522.256
521.7
521.701
521.497
521.721
522.121
522.604
523.2
523.904
524.701
525.373
526.086
526.837
527.619
528.428
529.258
530.106
530.967
531.838
532.714
533.595
534.474
535.352
536.22
537.085
537.929
538.774
539.58
540.409
541.152
541.998
542.599
543.614
543.747
1309.6
2072.31
2301.89
2244.31
2084.6
1878.45
1698.99
1546.12
1418.68
1313.22
1225.87
1153.19
1092.45
1041.36
998.212
961.523
930.238
903.374
880.273
860.269
842.942
827.833
814.658
803.109
792.975
784.052
776.179
769.224
763.056
757.592
752.724
748.403
744.54
741.102
738.021
735.276
732.809
730.61
728.631
726.868
725.284
723.868
722.618
721.48
720.526
719.61
718.891
718.219
717.712
717.257
717.033
716.381
716.156
716.22
716.27
716.547
716.963
717.443
718.041
718.797
719.694
720.743
721.928
723.151
724.165
725.22
726.308
727.422
728.559
729.712
730.877
732.048
733.223
734.394
735.563
736.721
737.872
739.002
740.124
741.214
742.302
743.338
744.397
745.352
746.422
747.192
748.515
748.506
3617.26
4201.37
3969.26
3425.88
2916.29
2512.47
2202.4
1963.63
1777.94
1631.89
1515.77
1422.4
1346.67
1284.63
1233.53
1191.05
1155.64
1125.87
1100.82
1079.57
1061.58
1046.2
1033.11
1021.87
1012.25
1003.96
996.839
990.693
985.394
980.819
976.862
973.456
970.492
967.951
965.742
963.854
962.216
960.824
959.619
958.617
957.722
956.991
956.404
955.936
955.432
955.049
954.925
954.57
954.762
954.78
955.04
955.43
955.856
956.373
957.007
957.754
958.625
959.642
960.792
962.104
963.563
965.193
966.974
968.704
970.126
971.585
973.073
974.583
976.111
977.647
979.188
980.726
982.261
983.781
985.292
986.779
988.252
989.69
991.117
992.493
993.871
995.166
996.508
997.685
999.045
999.997
1001.55
1001.57
6868.07
6569.59
5479.12
4362.47
3571.87
3010.53
2606.56
2309.99
2087.78
1918.22
1786.87
1683.7
1601.87
1536.25
1483.34
1440.28
1405.19
1376.33
1352.65
1333.03
1316.9
1303.45
1292.39
1283.15
1275.57
1269.24
1264.06
1259.75
1256.27
1253.38
1251.1
1249.23
1247.73
1246.6
1245.72
1245.09
1244.65
1244.36
1244.26
1244.16
1244.09
1244.29
1244.61
1244.97
1245.4
1245.81
1246.35
1246.9
1247.59
1248.31
1249.12
1250.01
1250.99
1252.09
1253.3
1254.64
1256.1
1257.71
1259.47
1261.39
1263.48
1265.76
1268.21
1270.5
1272.37
1274.28
1276.21
1278.16
1280.11
1282.08
1284.04
1285.98
1287.92
1289.84
1291.73
1293.59
1295.43
1297.22
1299
1300.7
1302.41
1304
1305.67
1307.1
1308.8
1309.94
1311.91
1311.87
10186.1
8807.96
6600.84
5077.89
4082.29
3415.13
2953.99
2625.81
2386.26
2207.64
2072.25
1968.17
1887.38
1824.04
1774.19
1734.64
1703.3
1678.27
1658.43
1642.56
1630.08
1620.09
1612.37
1606.23
1601.64
1598.03
1595.46
1593.55
1592.35
1591.54
1591.28
1591.08
1591.29
1591.77
1592.34
1593.08
1593.88
1594.78
1595.72
1596.75
1597.71
1598.76
1599.82
1600.93
1602.07
1603.21
1604.38
1605.61
1606.88
1608.22
1609.61
1611.07
1612.61
1614.24
1615.99
1617.87
1619.88
1622.07
1624.42
1626.96
1629.69
1632.64
1635.78
1638.66
1641
1643.38
1645.78
1648.2
1650.63
1653.05
1655.46
1657.86
1660.24
1662.59
1664.92
1667.19
1669.45
1671.62
1673.8
1675.86
1677.97
1679.88
1681.95
1683.64
1685.76
1687.07
1689.57
1689.44
13455.7
10620.3
7504.55
5652.59
4516.23
3785.76
3296.02
2956.14
2713.63
2536.78
2405.74
2307.38
2233
2176.28
2133.06
2099.93
2074.73
2055.5
2041.07
2030.23
2022.42
2016.63
2012.88
2010.29
2009.01
2008.26
2008.47
2009.03
2010.11
2011.36
2012.92
2014.57
2016.26
2018.1
2019.93
2021.84
2023.68
2025.57
2027.39
2029.25
2031
2032.77
2034.47
2036.18
2037.88
2039.57
2041.27
2042.97
2044.69
2046.46
2048.27
2050.16
2052.13
2054.22
2056.42
2058.77