/*--------------------------------*- C++ -*----------------------------------*\
| =========                 |                                                 |
| \\      /  F ield         | OpenFOAM: The Open Source CFD Toolbox           |
|  \\    /   O peration     | Version:  2306                                  |
|   \\  /    A nd           | Website:  www.openfoam.com                      |
|    \\/     M anipulation  |                                                 |
\*---------------------------------------------------------------------------*/
FoamFile
{
    version     2.0;
    format      ascii;
    arch        "LSB;label=32;scalar=64";
    class       volScalarField;
    location    "1800";
    object      k;
}
// * * * * * * * * * * * * * * * * * * * * * * * * * * * * * * * * * * * * * //

dimensions      [0 2 -2 0 0 0 0];

internalField   nonuniform List<scalar> 
20540
(
49.0986
138.905
49.0828
138.888
49.0159
138.819
48.8942
138.693
48.7072
138.5
48.4426
138.224
48.0856
137.849
47.6185
137.353
47.0209
136.711
46.2685
135.892
45.3336
134.855
44.1852
133.554
42.7889
131.927
41.1096
129.898
39.1138
127.371
36.7696
124.228
34.0536
120.327
30.9592
115.497
27.5086
109.538
23.7715
102.231
19.888
93.353
16.0959
82.7244
12.7391
70.2847
10.1872
56.2091
8.60475
41.0012
7.79946
26.0838
7.4004
14.5712
7.0975
8.9873
6.83122
7.10897
6.6848
6.42418
6.64446
6.19026
6.63755
6.11717
6.63666
6.12251
6.64366
6.20619
6.68845
6.45056
6.83908
7.13819
7.10377
9.04308
7.41161
14.665
7.83836
26.2012
8.71555
41.2231
10.439
56.6017
13.2052
70.864
16.8324
83.5013
20.9352
94.3217
25.1595
103.373
29.2566
110.831
33.074
116.915
36.5307
121.848
39.5944
125.833
42.2637
129.046
44.5508
131.64
46.4842
133.738
48.1013
135.434
49.4418
136.805
50.5433
137.908
51.4403
138.792
52.1633
139.495
52.7387
140.048
53.1893
140.478
53.5348
140.804
53.7915
141.045
53.9734
141.215
54.0924
141.326
54.1581
141.387
54.1786
141.407
35.5847
23.2847
20.8773
19.6422
18.843
18.2935
17.897
17.5959
17.3605
17.1726
17.0198
16.8935
16.7881
16.6991
16.6233
16.5585
16.5023
16.4538
16.4114
16.3744
16.3418
16.3131
16.2876
16.2651
16.2448
16.2269
16.2108
16.1963
16.1832
16.1714
16.1608
16.1511
16.1424
16.1345
16.1273
16.1209
16.1151
16.1099
16.1052
16.1011
16.0976
16.0946
16.0923
16.0905
16.0895
16.0893
16.09
16.0918
16.0946
16.0988
16.1044
16.1117
16.121
16.1323
16.1461
16.1627
16.1824
16.2055
16.2327
16.2641
16.3008
16.3426
16.3912
16.4374
16.4775
16.5197
16.5648
16.6125
16.6629
16.716
16.7721
16.8312
16.8935
16.9591
17.0285
17.1012
17.1793
17.2593
17.3497
17.4367
17.5477
17.6368
17.7919
17.8691
18.1046
18.2128
18.5136
18.8158
31.5999
18.5843
16.3228
15.2006
14.4923
14.0087
13.6613
13.3989
13.1944
13.0314
12.8991
12.79
12.6989
12.6222
12.5568
12.5011
12.4527
12.411
12.3746
12.3428
12.3148
12.2902
12.2683
12.249
12.2316
12.2163
12.2024
12.1901
12.1789
12.1687
12.1596
12.1513
12.1439
12.1371
12.131
12.1255
12.1205
12.116
12.112
12.1084
12.1053
12.1026
12.1004
12.0987
12.0976
12.0971
12.0972
12.0981
12.0999
12.1026
12.1063
12.1113
12.1177
12.1255
12.1353
12.1468
12.1607
12.177
12.1962
12.2183
12.2442
12.2737
12.3079
12.3403
12.3684
12.3981
12.4295
12.4627
12.4976
12.5342
12.5727
12.6133
12.6555
12.7001
12.7465
12.7953
12.8463
12.8996
12.9566
13.014
13.0806
13.1391
13.2282
13.2747
13.4078
13.4469
13.6408
13.7001
35.9562
21.0827
18.5711
17.3409
16.5705
16.0442
15.666
15.3802
15.1573
14.9796
14.8353
14.7162
14.6167
14.533
14.4615
14.4006
14.3477
14.3022
14.2623
14.2276
14.1969
14.17
14.146
14.1249
14.1059
14.0892
14.074
14.0605
14.0482
14.0371
14.0272
14.0181
14.01
14.0026
13.9959
13.9898
13.9844
13.9794
13.975
13.971
13.9676
13.9646
13.9621
13.9601
13.9588
13.9581
13.958
13.9588
13.9603
13.9629
13.9665
13.9713
13.9776
13.9853
13.9949
14.0064
14.0202
14.0363
14.0554
14.0773
14.1031
14.1322
14.1661
14.1982
14.2259
14.2552
14.2862
14.3187
14.3529
14.3887
14.4262
14.4657
14.5064
14.5496
14.5938
14.6408
14.6888
14.7397
14.7921
14.8469
14.906
14.9617
15.0385
15.0803
15.1966
15.2096
15.4287
15.1429
39.3325
22.5904
19.8774
18.5855
17.7889
17.2467
16.8576
16.5641
16.3352
16.1528
16.0046
15.8823
15.7802
15.6942
15.6208
15.5583
15.504
15.4573
15.4163
15.3806
15.3492
15.3215
15.2969
15.2752
15.2557
15.2386
15.223
15.2091
15.1965
15.1852
15.175
15.1656
15.1573
15.1497
15.1428
15.1366
15.131
15.1259
15.1213
15.1172
15.1137
15.1105
15.1079
15.1058
15.1043
15.1033
15.1031
15.1036
15.1049
15.1071
15.1103
15.1146
15.1203
15.1274
15.1362
15.1468
15.1595
15.1743
15.192
15.2123
15.236
15.2629
15.2942
15.3237
15.3491
15.3761
15.4045
15.4342
15.4654
15.498
15.532
15.5677
15.6043
15.6432
15.6825
15.7247
15.7665
15.8121
15.8565
15.9057
15.9537
16.0038
16.065
16.0994
16.1963
16.1815
16.432
15.8471
42.2869
23.6075
20.6514
19.2964
18.4795
17.9278
17.5333
17.2365
17.0054
16.8212
16.6717
16.5485
16.4455
16.3588
16.2848
16.2218
16.167
16.12
16.0786
16.0427
16.011
15.9832
15.9584
15.9366
15.9169
15.8996
15.884
15.87
15.8573
15.8459
15.8356
15.8262
15.8179
15.8102
15.8033
15.797
15.7914
15.7862
15.7816
15.7774
15.7738
15.7706
15.7679
15.7656
15.764
15.7629
15.7623
15.7626
15.7635
15.7653
15.768
15.7717
15.7766
15.7828
15.7906
15.7998
15.8111
15.8242
15.8399
15.8579
15.8789
15.9027
15.9304
15.9565
15.9789
16.0028
16.0277
16.0539
16.0811
16.1095
16.139
16.1701
16.2015
16.2352
16.2684
16.3048
16.3394
16.3787
16.4141
16.4567
16.4929
16.5364
16.5817
16.608
16.6854
16.6485
16.9046
16.1974
45.0562
24.4435
21.1756
19.7407
18.9006
18.3404
17.9422
17.6439
17.4123
17.2279
17.0783
16.9551
16.8522
16.7656
16.6917
16.6288
16.5741
16.5272
16.486
16.4502
16.4185
16.3908
16.3661
16.3443
16.3247
16.3075
16.2919
16.278
16.2653
16.2539
16.2437
16.2344
16.2261
16.2184
16.2115
16.2053
16.1997
16.1945
16.1899
16.1857
16.1821
16.1788
16.1761
16.1737
16.1719
16.1706
16.1698
16.1698
16.1703
16.1716
16.1738
16.1768
16.1809
16.186
16.1926
16.2005
16.2101
16.2212
16.2347
16.25
16.2681
16.2884
16.3121
16.3344
16.3535
16.3738
16.395
16.4172
16.4402
16.4641
16.4887
16.5148
16.5407
16.5688
16.5957
16.626
16.6531
16.686
16.7124
16.7482
16.7732
16.8097
16.8406
16.8593
16.9176
16.8707
17.0883
16.4526
47.7227
25.2422
21.5829
20.0411
19.1692
18.5983
18.1964
17.8972
17.6658
17.4821
17.3333
17.2108
17.1086
17.0228
16.9494
16.8871
16.8329
16.7864
16.7456
16.7102
16.6788
16.6514
16.6269
16.6055
16.5861
16.569
16.5537
16.5399
16.5274
16.5161
16.5061
16.4968
16.4886
16.4811
16.4743
16.4681
16.4626
16.4575
16.4529
16.4488
16.4451
16.4419
16.4391
16.4366
16.4347
16.4332
16.4322
16.4319
16.4321
16.4329
16.4344
16.4367
16.4399
16.444
16.4493
16.4557
16.4636
16.4727
16.4838
16.4964
16.5113
16.528
16.5475
16.5659
16.5815
16.5982
16.6156
16.6336
16.6522
16.6716
16.6913
16.7123
16.7327
16.7553
16.7759
16.8002
16.8201
16.8465
16.8647
16.8935
16.909
16.9379
16.9563
16.9688
17.0079
16.9637
17.1111
16.6432
50.3171
26.078
21.9465
20.2625
19.3447
18.7582
18.3508
18.0506
17.8197
17.6371
17.4896
17.3685
17.2674
17.1828
17.1104
17.0491
16.9956
16.95
16.9098
16.875
16.8442
16.8173
16.7933
16.7722
16.7532
16.7365
16.7215
16.7079
16.6957
16.6847
16.6748
16.6658
16.6578
16.6504
16.6437
16.6377
16.6323
16.6273
16.6229
16.6188
16.6152
16.6119
16.6091
16.6066
16.6046
16.603
16.6018
16.6011
16.601
16.6013
16.6023
16.6038
16.6061
16.6091
16.6132
16.618
16.6242
16.6312
16.64
16.6498
16.6615
16.6746
16.6898
16.7043
16.7166
16.7296
16.7431
16.7572
16.7715
16.7863
16.8012
16.8173
16.8324
16.8496
16.8643
16.8828
16.8962
16.9163
16.9274
16.9488
16.9573
16.9778
16.986
16.9938
17.0144
16.9811
17.0512
16.7448
52.8499
26.992
22.3136
20.4456
19.4626
18.8521
18.4358
18.133
17.9024
17.721
17.5752
17.4558
17.3564
17.2733
17.2023
17.1423
17.09
17.0455
17.0062
16.9723
16.9423
16.9161
16.8927
16.8722
16.8537
16.8375
16.8229
16.8098
16.7979
16.7872
16.7777
16.7689
16.7612
16.754
16.7476
16.7418
16.7366
16.7317
16.7274
16.7234
16.7199
16.7167
16.7139
16.7114
16.7093
16.7076
16.7062
16.7053
16.7048
16.7047
16.7051
16.706
16.7074
16.7094
16.7122
16.7156
16.72
16.725
16.7314
16.7385
16.7472
16.7567
16.7679
16.7785
16.7875
16.797
16.8068
16.817
16.8272
16.8377
16.8482
16.8596
16.8697
16.8819
16.8913
16.9043
16.9121
16.9259
16.9316
16.9453
16.9485
16.9609
16.9613
16.9655
16.9694
16.9488
16.9586
16.7663
55.3207
28.0065
22.7178
20.6205
19.5472
18.9006
18.4697
18.1618
17.9303
17.7498
17.6056
17.4882
17.3908
17.3096
17.2403
17.182
17.1312
17.0881
17.05
17.0173
16.9883
16.963
16.9405
16.9208
16.903
16.8874
16.8734
16.8608
16.8494
16.8391
16.8301
16.8216
16.8143
16.8074
16.8013
16.7958
16.7909
16.7862
16.782
16.7782
16.7749
16.7718
16.7691
16.7666
16.7645
16.7627
16.7612
16.7601
16.7592
16.7588
16.7587
16.7589
16.7595
16.7605
16.7621
16.7641
16.7669
16.77
16.7742
16.7787
16.7844
16.7906
16.7979
16.805
16.8108
16.8171
16.8234
16.83
16.8364
16.843
16.8494
16.8565
16.8622
16.8698
16.8746
16.8822
16.8856
16.8932
16.8946
16.9012
16.9002
16.9054
16.9004
16.9012
16.8934
16.8817
16.859
16.7324
57.7214
29.1325
23.1838
20.8116
19.6185
18.9197
18.4656
18.1481
17.9134
17.7329
17.5899
17.4744
17.3791
17.3002
17.2329
17.1767
17.1276
17.0862
17.0497
17.0184
16.9907
16.9666
16.9451
16.9264
16.9095
16.8947
16.8815
16.8695
16.8588
16.8491
16.8406
16.8326
16.8258
16.8193
16.8136
16.8084
16.8038
16.7994
16.7956
16.7919
16.7888
16.7859
16.7833
16.7809
16.7789
16.7771
16.7755
16.7742
16.7731
16.7724
16.7718
16.7714
16.7714
16.7714
16.772
16.7727
16.774
16.7753
16.7775
16.7796
16.7826
16.7857
16.7895
16.7933
16.7963
16.7996
16.8029
16.8062
16.8091
16.8122
16.815
16.8183
16.8202
16.8235
16.8246
16.8273
16.8272
16.8291
16.8271
16.8282
16.8235
16.8234
16.814
16.8114
16.794
16.7851
16.7535
16.657
60.0367
30.3732
23.7297
21.0402
19.6948
18.9233
18.4343
18.1005
17.8589
17.6762
17.5334
17.4194
17.3261
17.2495
17.1845
17.1305
17.0836
17.0442
17.0095
16.9799
16.9537
16.9311
16.9109
16.8934
16.8777
16.8639
16.8517
16.8405
16.8306
16.8216
16.8138
16.8064
16.8001
16.7942
16.789
16.7843
16.7801
16.7761
16.7726
16.7693
16.7665
16.7637
16.7614
16.7591
16.7572
16.7555
16.7538
16.7525
16.7513
16.7502
16.7493
16.7485
16.7478
16.7471
16.7468
16.7463
16.7462
16.746
16.7464
16.7465
16.7471
16.7475
16.7481
16.749
16.7496
16.7503
16.7508
16.7513
16.7511
16.7512
16.7511
16.7509
16.7498
16.7494
16.7473
16.7463
16.7429
16.7411
16.7355
16.7329
16.7242
16.7207
16.7068
16.7015
16.6781
16.6677
16.6347
16.5552
62.2432
31.7256
24.367
21.3241
19.7932
18.9254
18.3862
18.0266
17.7725
17.5842
17.4398
17.3261
17.2343
17.1598
17.097
17.0454
17.0007
16.9636
16.931
16.9034
16.8791
16.8581
16.8396
16.8235
16.8091
16.7966
16.7856
16.7754
16.7665
16.7584
16.7514
16.7448
16.7393
16.734
16.7294
16.7253
16.7217
16.7181
16.7151
16.7121
16.7097
16.7073
16.7052
16.7032
16.7015
16.6999
16.6983
16.697
16.6957
16.6945
16.6933
16.6921
16.6911
16.6897
16.6886
16.6872
16.686
16.6844
16.6833
16.6816
16.6802
16.6783
16.6763
16.6747
16.6732
16.6717
16.6699
16.6681
16.6656
16.6634
16.6603
16.6579
16.6536
16.6509
16.6455
16.6422
16.6354
16.6314
16.6223
16.6174
16.6052
16.5993
16.582
16.5741
16.5476
16.5339
16.5003
16.4336
64.3077
33.1817
25.1017
21.6773
19.9302
18.9404
18.3327
17.935
17.6601
17.4612
17.3117
17.1964
17.1048
17.0317
16.9707
16.9215
16.879
16.8444
16.814
16.7886
16.7664
16.7474
16.7307
16.7164
16.7036
16.6925
16.6829
16.674
16.6662
16.6592
16.6533
16.6476
16.643
16.6385
16.6347
16.6313
16.6283
16.6254
16.6228
16.6204
16.6184
16.6165
16.6148
16.6131
16.6117
16.6103
16.6089
16.6077
16.6064
16.6052
16.6039
16.6025
16.6011
16.5993
16.5977
16.5955
16.5935
16.5908
16.5885
16.5854
16.5824
16.5786
16.5745
16.5709
16.5677
16.5645
16.5609
16.5573
16.5529
16.5489
16.5434
16.5393
16.5326
16.5281
16.52
16.5151
16.5055
16.4999
16.4882
16.4815
16.4668
16.4589
16.4394
16.429
16.4009
16.3842
16.3465
16.2949
66.1844
34.727
25.9346
22.1096
20.1199
18.9828
18.2862
17.8352
17.529
17.312
17.1525
17.0323
16.9386
16.8655
16.8055
16.758
16.7176
16.6852
16.6571
16.6341
16.6141
16.5972
16.5825
16.5701
16.5592
16.5497
16.5418
16.5344
16.528
16.5222
16.5175
16.513
16.5094
16.5059
16.503
16.5004
16.4983
16.4961
16.4942
16.4924
16.4911
16.4896
16.4885
16.4872
16.4861
16.4851
16.484
16.4831
16.4819
16.4808
16.4796
16.4781
16.4766
16.4745
16.4725
16.4698
16.4672
16.4638
16.4606
16.4564
16.4522
16.447
16.4414
16.4362
16.4318
16.4273
16.4223
16.4174
16.4115
16.4062
16.3991
16.3935
16.3851
16.3793
16.3694
16.3632
16.3516
16.3447
16.3311
16.3232
16.3066
16.2972
16.2761
16.2638
16.2347
16.2157
16.1727
16.136
67.8132
36.339
26.861
22.6252
20.3733
19.066
18.2597
17.7385
17.3878
17.1431
16.9667
16.8365
16.7373
16.6616
16.6009
16.554
16.5148
16.4843
16.4581
16.4373
16.4195
16.4048
16.3923
16.382
16.373
16.3654
16.3593
16.3534
16.3487
16.3444
16.3411
16.3378
16.3355
16.3331
16.3313
16.3298
16.3286
16.3272
16.3262
16.3251
16.3245
16.3237
16.3232
16.3225
16.3219
16.3214
16.3207
16.3201
16.3192
16.3183
16.3173
16.3159
16.3144
16.3123
16.3101
16.3071
16.3042
16.3003
16.2966
16.2918
16.2868
16.2807
16.2739
16.2677
16.2625
16.2571
16.2511
16.2453
16.2384
16.2321
16.224
16.2174
16.2079
16.201
16.1899
16.1827
16.1698
16.162
16.147
16.1381
16.1203
16.1097
16.0876
16.0737
16.0439
16.0236
15.9765
15.9522
69.1142
37.9834
27.87
23.2228
20.6963
19.2009
18.2657
17.6568
17.247
16.963
16.7606
16.6135
16.5037
16.4217
16.3573
16.309
16.2695
16.2397
16.2148
16.1956
16.1796
16.1669
16.1565
16.1481
16.1413
16.1355
16.1314
16.1272
16.1242
16.1215
16.1198
16.1179
16.117
16.1159
16.1153
16.115
16.1148
16.1145
16.1144
16.1142
16.1145
16.1145
16.1147
16.1147
16.1147
16.1149
16.1146
16.1145
16.1141
16.1135
16.1128
16.1117
16.1104
16.1084
16.1063
16.1032
16.1002
16.0962
16.0922
16.087
16.0817
16.075
16.0678
16.0609
16.0552
16.0492
16.0427
16.0362
16.0287
16.0218
16.0131
16.0058
15.9957
15.988
15.9763
15.9683
15.9547
15.9461
15.9303
15.9206
15.9019
15.8904
15.8674
15.8525
15.8223
15.8011
15.752
15.7377
69.9814
39.6089
28.9427
23.8946
21.089
19.3937
18.3142
17.6015
17.1177
16.7814
16.5423
16.3698
16.2424
16.1487
16.0766
16.0235
15.9812
15.9503
15.9251
15.9065
15.8916
15.8802
15.8713
15.8647
15.8597
15.8557
15.8534
15.8509
15.8497
15.8487
15.8485
15.8482
15.8488
15.8491
15.8498
15.8507
15.8518
15.8526
15.8537
15.8545
15.8557
15.8567
15.8577
15.8586
15.8594
15.8602
15.8606
15.8609
15.8609
15.8608
15.8607
15.8598
15.859
15.8573
15.8554
15.8525
15.8496
15.8456
15.8417
15.8365
15.8311
15.8243
15.8168
15.8097
15.8037
15.7974
15.7907
15.7838
15.7761
15.7688
15.7599
15.7521
15.7418
15.7335
15.7216
15.7127
15.699
15.6895
15.6734
15.663
15.6437
15.6314
15.6078
15.5922
15.562
15.5404
15.4909
15.4849
70.2724
41.1419
30.0482
24.6244
21.5441
19.6441
18.4103
17.5813
17.0101
16.6087
16.3214
16.1136
15.9603
15.848
15.7625
15.7002
15.6514
15.6163
15.5885
15.5685
15.5531
15.5419
15.5337
15.528
15.5242
15.5215
15.5207
15.5195
15.5199
15.5204
15.5219
15.5231
15.525
15.5267
15.5288
15.531
15.5334
15.5353
15.5376
15.5394
15.5418
15.5437
15.5457
15.5475
15.5491
15.5507
15.5518
15.553
15.5537
15.5541
15.5544
15.5537
15.5534
15.5522
15.5507
15.5481
15.5455
15.5418
15.5381
15.5331
15.5279
15.5212
15.5139
15.5067
15.5007
15.4943
15.4875
15.4805
15.4727
15.4652
15.4563
15.4481
15.438
15.4291
15.4173
15.4077
15.3941
15.3836
15.3676
15.3561
15.3369
15.3237
15.2999
15.2838
15.2539
15.2319
15.1842
15.1843
69.7956
42.4846
31.1387
25.3848
22.0448
19.9434
18.5521
17.5991
16.9307
16.4534
16.1072
15.854
15.6658
15.5269
15.4212
15.3437
15.2835
15.2401
15.2061
15.182
15.1636
15.1505
15.1413
15.1351
15.1315
15.1291
15.1289
15.1286
15.13
15.1316
15.1343
15.1367
15.1398
15.1427
15.146
15.1494
15.1528
15.156
15.1594
15.1622
15.1656
15.1686
15.1715
15.1742
15.1766
15.1791
15.1808
15.183
15.1843
15.1857
15.1866
15.1861
15.186
15.1852
15.1843
15.1822
15.1799
15.1766
15.1734
15.1688
15.1639
15.1575
15.1505
15.1435
15.1376
15.1311
15.1243
15.1172
15.1096
15.1019
15.0932
15.0847
15.0747
15.0654
15.0539
15.0435
15.0302
15.0187
15.0031
14.9903
14.9715
14.957
14.9339
14.9169
14.8883
14.8662
14.8233
14.8257
68.2962
43.5085
32.141
26.1309
22.5612
20.2717
18.7274
17.6495
16.8792
16.3189
15.9055
15.5983
15.3666
15.1932
15.0599
14.9605
14.8831
14.8261
14.7816
14.7493
14.7246
14.7068
14.6941
14.6852
14.6798
14.6762
14.6755
14.6747
14.676
14.6779
14.681
14.6838
14.6877
14.6912
14.6954
14.6995
14.7038
14.7078
14.7121
14.7158
14.7201
14.7239
14.7277
14.7312
14.7343
14.7376
14.74
14.7429
14.7449
14.7471
14.7486
14.7488
14.7486
14.7485
14.7475
14.7461
14.7441
14.7414
14.7387
14.7344
14.7299
14.724
14.7173
14.7106
14.7048
14.6983
14.6915
14.6843
14.6767
14.6689
14.6604
14.6517
14.642
14.6323
14.621
14.61
14.5969
14.5846
14.5692
14.5554
14.5371
14.5215
14.4993
14.4817
14.4546
14.4337
14.3948
14.3994
65.4484
44.0435
32.9431
26.7908
23.0436
20.5931
18.9104
17.7149
16.8446
16.1999
15.7154
15.3486
15.0671
14.8523
14.6848
14.5571
14.4564
14.3802
14.3201
14.275
14.2398
14.2135
14.194
14.1795
14.1698
14.1626
14.1591
14.1565
14.1559
14.1564
14.1587
14.1609
14.1645
14.1677
14.172
14.1762
14.1806
14.1851
14.1898
14.1939
14.1986
14.2029
14.2072
14.2112
14.2148
14.2186
14.2216
14.225
14.2276
14.2301
14.2328
14.2336
14.2331
14.2331
14.2318
14.231
14.2293
14.2274
14.2249
14.221
14.2169
14.2113
14.2051
14.1986
14.1928
14.1861
14.1793
14.1719
14.1641
14.1561
14.1476
14.139
14.1295
14.1196
14.1085
14.0971
14.0841
14.0711
14.056
14.0414
14.0236
14.0073
13.9861
13.9684
13.943
13.9238
13.8885
13.8949
60.8565
43.871
33.3755
27.2507
23.4121
20.8482
19.0556
17.7601
16.8006
16.0773
15.5237
15.0968
14.7633
14.5035
14.2974
14.1364
14.0075
13.9071
13.8264
13.7638
13.7138
13.6748
13.6448
13.6212
13.6038
13.5902
13.5813
13.5742
13.5703
13.5674
13.5671
13.5662
13.5683
13.5697
13.5727
13.5758
13.5794
13.5836
13.588
13.5915
13.596
13.6
13.6042
13.6082
13.6118
13.6157
13.6189
13.6224
13.6252
13.628
13.6308
13.6312
13.6316
13.6312
13.6301
13.6293
13.6271
13.6263
13.6238
13.62
13.6161
13.6106
13.6049
13.5985
13.5929
13.5856
13.5788
13.5708
13.5623
13.5536
13.5452
13.5368
13.5277
13.5179
13.507
13.4954
13.4825
13.4692
13.4543
13.4393
13.422
13.4056
13.3855
13.3683
13.3448
13.3274
13.2957
13.3032
54.0722
42.7367
33.1842
27.3348
23.54
20.9411
19.088
17.7254
16.699
15.9123
15.2998
14.8192
14.4371
14.1335
13.8885
13.6928
13.5333
13.4055
13.3011
13.2173
13.1489
13.0937
13.0494
13.0133
12.9851
12.9621
12.9446
12.9303
12.9201
12.9117
12.9064
12.9017
12.9002
12.8965
12.8965
12.897
12.8989
12.9016
12.9044
12.9058
12.9091
12.9116
12.915
12.9182
12.9211
12.9243
12.9274
12.9302
12.9326
12.9352
12.9363
12.9371
12.9374
12.936
12.9352
12.9349
12.9334
12.9312
12.9285
12.9251
12.9207
12.9151
12.9097
12.9033
12.8979
12.8898
12.8833
12.8736
12.8638
12.8533
12.8455
12.8379
12.8295
12.8201
12.8095
12.798
12.7853
12.772
12.7573
12.7424
12.7259
12.7098
12.6911
12.6747
12.6533
12.6379
12.6095
12.6174
45.4451
39.5269
31.9779
26.7776
23.2326
20.7221
18.8887
17.5139
16.4597
15.638
14.9877
14.4688
14.0495
13.7102
13.432
13.2049
13.0168
12.8625
12.734
12.628
12.5398
12.4664
12.4058
12.3549
12.3133
12.2783
12.2498
12.226
12.2068
12.1907
12.1781
12.1674
12.1597
12.1523
12.1474
12.1437
12.1412
12.1396
12.1392
12.1359
12.1369
12.1363
12.1382
12.1398
12.1412
12.1431
12.1452
12.1459
12.1477
12.1476
12.1486
12.1477
12.1479
12.1475
12.1452
12.1449
12.1433
12.1402
12.137
12.1323
12.1256
12.1199
12.1153
12.109
12.1032
12.0959
12.0884
12.079
12.0695
12.0602
12.0516
12.0429
12.0338
12.0239
12.0131
12.0015
11.9889
11.9758
11.9616
11.9472
11.9317
11.9164
11.8994
11.8841
11.865
11.8521
11.8259
11.8341
35.0927
33.5999
29.303
25.2076
22.2064
19.9684
18.278
16.9774
15.9582
15.1484
14.4963
13.967
13.5323
13.1745
12.8764
12.6284
12.4199
12.245
12.0971
11.9721
11.8662
11.776
11.6996
11.6341
11.5786
11.531
11.4906
11.4558
11.4265
11.4012
11.3798
11.3613
11.346
11.3325
11.3214
11.3122
11.3042
11.2977
11.2925
11.287
11.2835
11.2802
11.2779
11.2761
11.2745
11.2733
11.2726
11.2717
11.271
11.2703
11.2694
11.2682
11.2668
11.2651
11.2629
11.2604
11.2571
11.2532
11.2488
11.2433
11.237
11.2299
11.222
11.2149
11.2086
11.2015
11.1939
11.1855
11.1767
11.1676
11.1584
11.1489
11.1389
11.1283
11.1172
11.1056
11.0933
11.0805
11.0672
11.0536
11.0393
11.0253
11.0101
10.9964
10.9797
10.9681
10.9461
10.9536
23.1311
25.4759
24.4466
22.1738
20.0991
18.3809
17.0085
15.9076
15.0162
14.2893
13.6907
13.1951
12.7805
12.4329
12.1385
11.889
11.6759
11.4938
11.3372
11.2023
11.0859
10.9849
10.8975
10.8211
10.7549
10.6968
10.6463
10.6019
10.5632
10.5291
10.4992
10.473
10.45
10.4297
10.4119
10.3963
10.3825
10.3705
10.36
10.3503
10.3422
10.3348
10.3285
10.3228
10.3177
10.3131
10.3091
10.3053
10.3018
10.2985
10.2953
10.2921
10.2887
10.2852
10.2814
10.2772
10.2725
10.2673
10.2614
10.2548
10.2474
10.2389
10.2293
10.2214
10.2147
10.2075
10.1998
10.1917
10.1831
10.1742
10.1648
10.1552
10.1451
10.1346
10.1237
10.1125
10.1009
10.089
10.0768
10.0644
10.0518
10.0393
10.0262
10.0142
10.0002
9.99049
9.97171
9.97834
12.6889
16.4995
17.6142
17.3464
16.6143
15.6628
14.8153
14.0677
13.4224
12.872
12.4023
12.0012
11.6568
11.3609
11.1051
10.8836
10.6909
10.5229
10.3759
10.2467
10.1333
10.033
9.94451
9.86594
9.79633
9.7343
9.67912
9.62981
9.58576
9.54639
9.51106
9.47941
9.45099
9.42545
9.4025
9.38187
9.36328
9.34652
9.33148
9.31776
9.30543
9.29424
9.28412
9.27487
9.26644
9.25866
9.2515
9.24483
9.23856
9.23264
9.22694
9.22137
9.21585
9.21028
9.20458
9.19864
9.19236
9.18565
9.1784
9.17052
9.16184
9.15233
9.1417
9.13331
9.12638
9.1191
9.11147
9.1035
9.0952
9.08659
9.07768
9.06847
9.05898
9.04924
9.03925
9.02907
9.01871
9.00823
8.99763
8.98703
8.97631
8.96584
8.95503
8.94512
8.93377
8.92594
8.91053
8.91615
7.85978
9.55635
10.9952
11.7391
11.9384
11.8626
11.6663
11.3691
11.065
10.7778
10.5112
10.2682
10.0485
9.85142
9.67485
9.51694
9.37555
9.24878
9.13509
9.03281
8.94088
8.85788
8.78307
8.71533
8.65406
8.59844
8.54797
8.50209
8.4603
8.42228
8.38757
8.35593
8.32703
8.30062
8.27649
8.25441
8.23422
8.21569
8.19875
8.18317
8.16887
8.15572
8.14361
8.13243
8.12209
8.11247
8.1035
8.09508
8.08712
8.07956
8.0723
8.06524
8.05834
8.05146
8.04456
8.03753
8.03028
8.0227
8.01473
8.00624
7.99713
7.98732
7.97661
7.96849
7.96192
7.95513
7.9481
7.94087
7.93343
7.9258
7.91798
7.91
7.90188
7.89363
7.88528
7.87687
7.86842
7.85997
7.85153
7.84318
7.83485
7.82675
7.81855
7.81098
7.80259
7.79655
7.78488
7.78926
6.45881
6.68293
7.15491
7.61588
7.96395
8.17095
8.29894
8.32399
8.31132
8.27621
8.21487
8.14231
8.06559
7.98874
7.91368
7.84128
7.7721
7.70644
7.64468
7.58665
7.53243
7.48172
7.43448
7.39043
7.3494
7.31121
7.27563
7.24256
7.21176
7.18315
7.15653
7.13181
7.10883
7.0875
7.06769
7.04929
7.03221
7.01634
7.00162
6.98793
6.97521
6.96339
6.9524
6.94215
6.9326
6.92365
6.91526
6.90733
6.89983
6.89266
6.88579
6.87911
6.87261
6.86615
6.85973
6.85323
6.84662
6.83978
6.83268
6.82519
6.81729
6.80887
6.79984
6.79339
6.78828
6.78305
6.77771
6.77228
6.76675
6.76115
6.75546
6.74973
6.74394
6.73813
6.7323
6.72649
6.7207
6.71497
6.7093
6.70373
6.69823
6.6929
6.68762
6.68268
6.67743
6.67349
6.66547
6.66853
6.03351
5.94236
5.96646
6.0342
6.15228
6.25506
6.3471
6.41431
6.46162
6.49243
6.51311
6.51292
6.50956
6.50247
6.48941
6.47213
6.45186
6.43015
6.40767
6.38465
6.36158
6.33864
6.31609
6.29405
6.27262
6.25191
6.23192
6.2128
6.19448
6.17705
6.16047
6.14476
6.12989
6.11587
6.10264
6.09018
6.07847
6.06746
6.05712
6.04743
6.03836
6.02986
6.02193
6.01448
6.00755
6.001
5.99491
5.98909
5.98367
5.97841
5.97347
5.96863
5.96398
5.95939
5.95486
5.95033
5.94575
5.94111
5.9362
5.93121
5.92583
5.92022
5.91422
5.9101
5.90701
5.90392
5.90093
5.89787
5.89495
5.89197
5.88903
5.8861
5.88314
5.8802
5.8773
5.87443
5.87165
5.86893
5.86635
5.86389
5.86162
5.8594
5.85753
5.85549
5.85353
5.85205
5.84776
5.84958
5.91717
5.73938
5.64371
5.58072
5.58317
5.59824
5.6306
5.67046
5.70729
5.73987
5.76661
5.78746
5.79949
5.81113
5.81173
5.81185
5.80809
5.80468
5.79817
5.78977
5.78016
5.76961
5.75836
5.74668
5.73467
5.72257
5.71043
5.69848
5.68669
5.67526
5.66414
5.65345
5.64315
5.63333
5.62393
5.61501
5.6065
5.59846
5.59083
5.58367
5.57691
5.57059
5.56471
5.55919
5.55414
5.54933
5.54506
5.54087
5.53729
5.53365
5.53064
5.52759
5.52491
5.52254
5.52002
5.51799
5.51588
5.51428
5.51179
5.51031
5.50796
5.50581
5.50312
5.50029
5.49544
5.49304
5.49156
5.48997
5.48938
5.48877
5.49059
5.49293
5.49102
5.49094
5.49172
5.49165
5.49187
5.49075
5.49163
5.49322
5.49516
5.49733
5.49966
5.50205
5.50458
5.50689
5.50975
5.51094
5.92054
5.74544
5.65075
5.59413
5.60002
5.62098
5.66109
5.70753
5.7488
5.78671
5.81636
5.84129
5.85631
5.86876
5.87209
5.87294
5.86878
5.86691
5.8612
5.85328
5.84394
5.8335
5.82223
5.81045
5.79825
5.78592
5.77348
5.76121
5.74906
5.73727
5.72575
5.71468
5.70397
5.69376
5.68393
5.67463
5.66568
5.6573
5.64924
5.64177
5.63461
5.62804
5.6218
5.61607
5.61077
5.60583
5.60143
5.59723
5.59364
5.59025
5.58725
5.58498
5.5818
5.58238
5.57331
5.57141
5.5716
5.57224
5.56599
5.56529
5.56432
5.56426
5.56415
5.56749
5.56857
5.57149
5.57531
5.57873
5.58198
5.58517
5.58851
5.59203
5.59569
5.59951
5.60346
5.60747
5.61154
5.61562
5.61972
5.62381
5.62788
5.63189
5.63587
5.63972
5.64359
5.64709
5.65115
5.6532
6.04565
5.96744
6.00196
6.09166
6.23377
6.36284
6.47292
6.5606
6.6198
6.66287
6.68936
6.69849
6.69633
6.69238
6.68108
6.66519
6.64546
6.62374
6.60083
6.57705
6.55295
6.52884
6.50492
6.48147
6.45848
6.43623
6.41461
6.3939
6.37393
6.35494
6.33675
6.31953
6.30309
6.28762
6.27287
6.25906
6.24588
6.23364
6.22192
6.21117
6.20081
6.19148
6.18242
6.17438
6.16664
6.15973
6.15334
6.14745
6.14233
6.13758
6.13323
6.13133
6.12109
6.1211
6.11241
6.11073
6.11229
6.10737
6.10738
6.10723
6.108
6.10898
6.11331
6.11976
6.12457
6.12894
6.13332
6.138
6.14311
6.1487
6.1547
6.16102
6.16752
6.1741
6.18067
6.18716
6.19354
6.19978
6.20588
6.21184
6.21767
6.22334
6.2289
6.23426
6.23964
6.24443
6.2502
6.2527
6.49341
6.74917
7.28873
7.80778
8.20943
8.45367
8.60066
8.64415
8.63391
8.60195
8.54049
8.46624
8.38642
8.30531
8.22557
8.1483
8.07437
8.00388
7.93738
7.87467
7.81586
7.76075
7.70916
7.66099
7.61588
7.57386
7.53447
7.49784
7.46351
7.43161
7.40173
7.37398
7.34798
7.32386
7.30125
7.28031
7.26063
7.24248
7.22536
7.20968
7.19482
7.18135
7.16855
7.15703
7.14616
7.13637
7.12732
7.11913
7.11178
7.10517
7.09939
7.09441
7.09012
7.08666
7.08386
7.082
7.07953
7.07816
7.07625
7.07598
7.07328
7.07418
7.07766
7.08423
7.09017
7.09638
7.10278
7.10938
7.11619
7.12322
7.13045
7.13782
7.14527
7.15276
7.16021
7.16759
7.17487
7.18202
7.18905
7.19593
7.20269
7.20928
7.21578
7.22203
7.22835
7.23399
7.24076
7.24391
7.93197
9.73972
11.3136
12.1154
12.3622
12.2897
12.0942
11.7898
11.4751
11.1765
10.8986
10.644
10.4137
10.2058
10.0192
9.85142
9.70095
9.56536
9.44346
9.33327
9.23387
9.14377
9.06215
8.98803
8.92054
8.85916
8.803
8.75188
8.70492
8.66211
8.6227
8.58669
8.55349
8.52312
8.49506
8.46938
8.4456
8.42385
8.40365
8.38523
8.36807
8.35251
8.33801
8.3249
8.3128
8.30182
8.29193
8.28284
8.27503
8.26765
8.26189
8.25615
8.25217
8.24884
8.24579
8.24345
8.24251
8.24072
8.24032
8.23738
8.23863
8.24233
8.24774
8.25492
8.26121
8.26773
8.27444
8.28137
8.28854
8.29596
8.30361
8.31143
8.31936
8.32734
8.33531
8.34323
8.35106
8.35877
8.36635
8.37378
8.38106
8.38816
8.39515
8.40184
8.40863
8.41457
8.42196
8.42495
12.8567
16.8829
18.1111
17.8624
17.1455
16.1751
15.3066
14.5367
13.8697
13.2983
12.8095
12.39
12.0293
11.7173
11.4472
11.2117
11.0064
10.8261
10.6678
10.5279
10.4043
10.2945
10.197
10.1099
10.0321
9.96246
9.89984
9.84375
9.79297
9.74744
9.70605
9.66883
9.63494
9.60439
9.57651
9.55135
9.5283
9.50752
9.48842
9.47122
9.4554
9.44123
9.42817
9.41653
9.4059
9.39642
9.388
9.38042
9.37395
9.36818
9.36355
9.35959
9.35646
9.35491
9.34822
9.34594
9.34526
9.34505
9.34647
9.3496
9.35483
9.3609
9.36793
9.37599
9.38284
9.38985
9.39703
9.4044
9.41195
9.4197
9.42761
9.43564
9.44375
9.45188
9.45999
9.46805
9.47601
9.48386
9.49159
9.49916
9.50659
9.51381
9.52094
9.52771
9.53468
9.54058
9.54833
9.55088
23.4445
26.0261
25.0539
22.814
20.7087
18.9516
17.5417
16.4055
15.4822
14.7256
14.1009
13.5803
13.144
12.7751
12.4622
12.1945
11.9654
11.7675
11.5968
11.4483
11.3193
11.2064
11.1078
11.021
10.9448
10.8775
10.818
10.7656
10.7187
10.6775
10.6404
10.6078
10.5784
10.5524
10.5289
10.5082
10.4894
10.4728
10.4577
10.4444
10.4324
10.4219
10.4122
10.404
10.3965
10.39
10.3846
10.3794
10.3756
10.3722
10.3701
10.3681
10.3653
10.3625
10.3616
10.3616
10.3641
10.3682
10.3727
10.3778
10.3839
10.391
10.399
10.4078
10.4151
10.4226
10.4303
10.4381
10.446
10.4541
10.4622
10.4704
10.4786
10.4868
10.495
10.503
10.511
10.5188
10.5266
10.5341
10.5415
10.5487
10.5558
10.5625
10.5694
10.5752
10.583
10.5856
35.5981
34.2735
30.0814
25.9419
22.8819
20.5844
18.84
17.4913
16.4299
15.5818
14.8962
14.3355
13.8737
13.4896
13.1689
12.8987
12.671
12.4771
12.3126
12.1715
12.051
11.947
11.8578
11.7804
11.7137
11.6557
11.6054
11.5618
11.5236
11.4906
11.4614
11.4363
11.414
11.3949
11.3779
11.3633
11.3503
11.3392
11.3291
11.3208
11.3133
11.3071
11.3015
11.297
11.2932
11.2897
11.2878
11.2821
11.2812
11.2817
11.2816
11.281
11.283
11.2852
11.288
11.2912
11.2952
11.3001
11.3057
11.3121
11.3193
11.3274
11.3364
11.3456
11.3534
11.3612
11.3692
11.3773
11.3855
11.3937
11.4019
11.4102
11.4184
11.4266
11.4347
11.4427
11.4506
11.4583
11.4659
11.4733
11.4806
11.4877
11.4947
11.5012
11.5081
11.5137
11.5214
11.5239
46.1161
40.4086
32.876
27.5918
23.9575
21.3665
19.4633
18.0282
16.922
16.0539
15.3633
14.8072
14.3559
13.9858
13.6816
13.4288
13.2192
13.0433
12.8965
12.7726
12.6686
12.5803
12.5062
12.4428
12.3894
12.3438
12.3053
12.2725
12.2445
12.2209
12.2004
12.1837
12.169
12.1569
12.1464
12.138
12.1305
12.1246
12.1195
12.1159
12.1121
12.1097
12.1079
12.1067
12.106
12.1056
12.1039
12.1047
12.107
12.1093
12.1121
12.1146
12.1176
12.1212
12.1252
12.1299
12.1352
12.1412
12.1478
12.1552
12.1633
12.1722
12.1818
12.1913
12.1992
12.2072
12.2153
12.2235
12.2317
12.2399
12.2481
12.2563
12.2644
12.2725
12.2805
12.2883
12.296
12.3036
12.311
12.3183
12.3254
12.3323
12.3391
12.3454
12.3522
12.3576
12.3651
12.3677
54.8978
43.8401
34.1881
28.207
24.2933
21.5942
19.6572
18.2235
17.1364
16.2962
15.6376
15.1148
14.6968
14.359
14.0857
13.8619
13.6796
13.5288
13.4056
13.3031
13.219
13.1488
13.0913
13.043
13.0035
12.9705
12.9436
12.921
12.9028
12.8878
12.8753
12.8657
12.8575
12.8514