/*--------------------------------*- C++ -*----------------------------------*\
| =========                 |                                                 |
| \\      /  F ield         | OpenFOAM: The Open Source CFD Toolbox           |
|  \\    /   O peration     | Version:  2306                                  |
|   \\  /    A nd           | Website:  www.openfoam.com                      |
|    \\/     M anipulation  |                                                 |
\*---------------------------------------------------------------------------*/
FoamFile
{
    version     2.0;
    format      ascii;
    arch        "LSB;label=32;scalar=64";
    class       volScalarField;
    location    "1800";
    object      nut;
}
// * * * * * * * * * * * * * * * * * * * * * * * * * * * * * * * * * * * * * //

dimensions      [0 2 -1 0 0 0 0];

internalField   nonuniform List<scalar> 
20540
(
0.0127565
0.0386942
0.0127539
0.0386922
0.0127446
0.0386849
0.0127277
0.0386709
0.0127015
0.0386483
0.0126641
0.0386151
0.0126132
0.0385684
0.0125464
0.0385049
0.0124607
0.0384198
0.0123526
0.0383069
0.012218
0.0381581
0.0120528
0.0379618
0.0118523
0.0377023
0.0116127
0.0373572
0.0113307
0.0369019
0.0110017
0.036311
0.0106184
0.0355585
0.0101776
0.0346125
0.00968574
0.0334267
0.00916363
0.0319394
0.0086612
0.0300777
0.0082839
0.0277615
0.00823172
0.0249197
0.00879972
0.0215258
0.0101675
0.0176745
0.0119916
0.0137374
0.0135202
0.010919
0.0142853
0.0113152
0.0147826
0.0134367
0.0150982
0.0142941
0.0150637
0.0146356
0.0150144
0.014708
0.0150154
0.0147115
0.0150665
0.014621
0.0150877
0.0141902
0.0147101
0.0132799
0.014157
0.0111434
0.0133489
0.0107724
0.0117594
0.0135682
0.00992681
0.0175041
0.00862375
0.0213669
0.00814964
0.0247585
0.00828768
0.0275947
0.00873672
0.0299044
0.00930097
0.0317593
0.00987843
0.0332399
0.0104207
0.0344196
0.0109075
0.0353605
0.0113372
0.0361076
0.0117168
0.0366888
0.012045
0.0371364
0.0123233
0.0374787
0.0125559
0.0377381
0.0127482
0.0379344
0.0129056
0.0380836
0.0130333
0.0381972
0.0131358
0.0382836
0.013217
0.038349
0.0132803
0.038398
0.0133285
0.038434
0.0133642
0.0384598
0.0133892
0.0384773
0.0134053
0.038488
0.013414
0.0384934
0.0134165
0.0384947
1.7755e-05
1.43623e-05
1.35993e-05
1.31909e-05
1.29198e-05
1.27301e-05
1.25914e-05
1.2485e-05
1.24012e-05
1.23339e-05
1.22789e-05
1.22333e-05
1.2195e-05
1.21626e-05
1.21349e-05
1.21113e-05
1.20907e-05
1.20729e-05
1.20573e-05
1.20437e-05
1.20317e-05
1.20211e-05
1.20117e-05
1.20034e-05
1.19959e-05
1.19893e-05
1.19833e-05
1.19779e-05
1.19731e-05
1.19687e-05
1.19648e-05
1.19612e-05
1.1958e-05
1.1955e-05
1.19524e-05
1.195e-05
1.19479e-05
1.19459e-05
1.19442e-05
1.19427e-05
1.19413e-05
1.19402e-05
1.19394e-05
1.19387e-05
1.19384e-05
1.19383e-05
1.19385e-05
1.19392e-05
1.19402e-05
1.19418e-05
1.19439e-05
1.19466e-05
1.195e-05
1.19542e-05
1.19593e-05
1.19655e-05
1.19728e-05
1.19813e-05
1.19914e-05
1.2003e-05
1.20165e-05
1.20319e-05
1.20498e-05
1.20668e-05
1.20815e-05
1.20969e-05
1.21134e-05
1.21309e-05
1.21493e-05
1.21686e-05
1.2189e-05
1.22105e-05
1.22331e-05
1.22568e-05
1.22818e-05
1.2308e-05
1.23361e-05
1.23648e-05
1.23971e-05
1.24282e-05
1.24677e-05
1.24993e-05
1.25542e-05
1.25813e-05
1.2664e-05
1.27018e-05
1.28063e-05
1.29103e-05
4.44882e-05
2.89083e-05
2.64384e-05
2.52096e-05
2.44458e-05
2.39206e-05
2.35409e-05
2.32531e-05
2.30278e-05
2.28475e-05
2.27006e-05
2.25791e-05
2.24774e-05
2.23917e-05
2.23183e-05
2.22558e-05
2.22014e-05
2.21546e-05
2.21135e-05
2.20777e-05
2.20461e-05
2.20183e-05
2.19936e-05
2.19718e-05
2.19522e-05
2.19349e-05
2.19193e-05
2.19053e-05
2.18926e-05
2.18812e-05
2.18709e-05
2.18615e-05
2.18531e-05
2.18454e-05
2.18385e-05
2.18322e-05
2.18266e-05
2.18214e-05
2.18168e-05
2.18126e-05
2.1809e-05
2.18057e-05
2.1803e-05
2.18007e-05
2.1799e-05
2.17978e-05
2.17972e-05
2.17974e-05
2.17982e-05
2.17999e-05
2.18024e-05
2.18059e-05
2.18107e-05
2.18166e-05
2.1824e-05
2.1833e-05
2.18438e-05
2.18564e-05
2.18716e-05
2.18889e-05
2.19092e-05
2.19321e-05
2.19587e-05
2.19838e-05
2.20054e-05
2.20283e-05
2.20522e-05
2.20772e-05
2.21033e-05
2.21304e-05
2.21585e-05
2.21881e-05
2.22179e-05
2.22498e-05
2.22811e-05
2.23153e-05
2.23474e-05
2.23842e-05
2.24163e-05
2.24561e-05
2.24869e-05
2.25283e-05
2.25634e-05
2.25876e-05
2.26508e-05
2.26141e-05
2.282e-05
2.21591e-05
0.000113217
6.80601e-05
6.20632e-05
5.92811e-05
5.76578e-05
5.65695e-05
5.57923e-05
5.5209e-05
5.47547e-05
5.43921e-05
5.40973e-05
5.38539e-05
5.36503e-05
5.34788e-05
5.33321e-05
5.32073e-05
5.30985e-05
5.30053e-05
5.29232e-05
5.2852e-05
5.2789e-05
5.27337e-05
5.26845e-05
5.26412e-05
5.26021e-05
5.25679e-05
5.25368e-05
5.2509e-05
5.24838e-05
5.24611e-05
5.24408e-05
5.24221e-05
5.24055e-05
5.23903e-05
5.23766e-05
5.23641e-05
5.23529e-05
5.23426e-05
5.23333e-05
5.23248e-05
5.23174e-05
5.23105e-05
5.23047e-05
5.22994e-05
5.22952e-05
5.22917e-05
5.22892e-05
5.22878e-05
5.22872e-05
5.22878e-05
5.22895e-05
5.22924e-05
5.2297e-05
5.23028e-05
5.23108e-05
5.23204e-05
5.23325e-05
5.23464e-05
5.23637e-05
5.23831e-05
5.24063e-05
5.24321e-05
5.24623e-05
5.24904e-05
5.25144e-05
5.25403e-05
5.25667e-05
5.25939e-05
5.26216e-05
5.26501e-05
5.26787e-05
5.27094e-05
5.27375e-05
5.277e-05
5.27962e-05
5.2831e-05
5.28519e-05
5.2891e-05
5.29003e-05
5.29483e-05
5.29356e-05
5.29948e-05
5.29672e-05
5.29777e-05
5.30247e-05
5.28164e-05
5.34321e-05
5.07671e-05
0.000222269
0.000122258
0.000109994
0.000104755
0.000101928
0.000100117
9.88566e-05
9.79287e-05
9.72152e-05
9.66503e-05
9.61939e-05
9.5819e-05
9.55063e-05
9.52442e-05
9.50199e-05
9.483e-05
9.46645e-05
9.45233e-05
9.43988e-05
9.42912e-05
9.4196e-05
9.41127e-05
9.40384e-05
9.39734e-05
9.39147e-05
9.38633e-05
9.38167e-05
9.37751e-05
9.37374e-05
9.37034e-05
9.36731e-05
9.36451e-05
9.36207e-05
9.35979e-05
9.35775e-05
9.3559e-05
9.35423e-05
9.35268e-05
9.35129e-05
9.35e-05
9.34886e-05
9.34779e-05
9.34685e-05
9.34597e-05
9.34523e-05
9.34454e-05
9.34395e-05
9.34353e-05
9.3431e-05
9.34279e-05
9.34257e-05
9.34241e-05
9.34237e-05
9.34239e-05
9.34258e-05
9.34282e-05
9.34324e-05
9.3437e-05
9.34444e-05
9.34519e-05
9.34618e-05
9.3472e-05
9.34847e-05
9.34963e-05
9.35057e-05
9.35165e-05
9.35266e-05
9.35363e-05
9.35445e-05
9.35526e-05
9.35584e-05
9.35672e-05
9.35674e-05
9.35765e-05
9.35681e-05
9.35797e-05
9.35545e-05
9.3575e-05
9.35186e-05
9.35609e-05
9.34495e-05
9.35229e-05
9.33746e-05
9.33501e-05
9.33497e-05
9.29121e-05
9.406e-05
9.03756e-05
0.000380402
0.000193486
0.000170412
0.000161106
0.000156418
0.000153569
0.000151652
0.000150277
0.00014924
0.000148429
0.000147781
0.000147252
0.000146814
0.000146449
0.000146138
0.000145875
0.000145647
0.000145453
0.000145283
0.000145136
0.000145006
0.000144893
0.000144792
0.000144704
0.000144624
0.000144555
0.000144493
0.000144437
0.000144386
0.00014434
0.0001443
0.000144262
0.00014423
0.0001442
0.000144173
0.000144148
0.000144126
0.000144105
0.000144087
0.000144069
0.000144054
0.000144039
0.000144026
0.000144013
0.000144002
0.000143991
0.00014398
0.000143972
0.000143962
0.000143953
0.000143945
0.000143935
0.000143926
0.000143916
0.000143906
0.000143894
0.000143883
0.000143869
0.000143857
0.00014384
0.000143823
0.000143803
0.00014378
0.00014376
0.000143741
0.000143722
0.000143701
0.000143678
0.00014365
0.000143621
0.000143586
0.000143556
0.000143509
0.000143478
0.000143413
0.000143387
0.00014329
0.000143281
0.00014313
0.000143162
0.000142919
0.000143011
0.000142713
0.000142649
0.000142568
0.000141937
0.000143573
0.000139521
0.000598768
0.000286772
0.000246232
0.000230298
0.000222661
0.000218252
0.000215398
0.000213413
0.000211953
0.000210832
0.000209949
0.000209237
0.000208652
0.000208169
0.000207759
0.000207417
0.000207119
0.00020687
0.000206649
0.000206461
0.000206295
0.000206151
0.000206023
0.000205912
0.000205811
0.000205725
0.000205646
0.000205576
0.000205513
0.000205456
0.000205406
0.00020536
0.00020532
0.000205282
0.000205249
0.000205219
0.000205193
0.000205167
0.000205144
0.000205123
0.000205104
0.000205085
0.000205068
0.000205051
0.000205036
0.000205021
0.000205004
0.000204991
0.000204976
0.000204959
0.000204941
0.000204921
0.0002049
0.000204874
0.000204848
0.000204817
0.000204783
0.000204743
0.000204701
0.00020465
0.000204595
0.00020453
0.000204457
0.000204392
0.000204333
0.000204272
0.000204207
0.000204138
0.000204061
0.000203982
0.000203892
0.000203811
0.000203701
0.000203619
0.000203482
0.000203408
0.000203226
0.000203179
0.00020292
0.000202937
0.000202555
0.000202663
0.000202212
0.000202121
0.000201964
0.000201257
0.000203038
0.000199168
0.000890328
0.000408943
0.00034188
0.000315432
0.000303113
0.000296299
0.000292052
0.000289197
0.000287157
0.000285628
0.000284445
0.000283509
0.000282748
0.000282129
0.000281606
0.000281176
0.000280804
0.000280495
0.000280223
0.000279993
0.000279791
0.000279617
0.000279463
0.000279331
0.000279211
0.000279109
0.000279016
0.000278934
0.00027886
0.000278794
0.000278736
0.000278682
0.000278637
0.000278594
0.000278557
0.000278523
0.000278494
0.000278465
0.000278439
0.000278414
0.000278393
0.000278371
0.000278352
0.000278331
0.000278313
0.000278293
0.000278272
0.000278253
0.000278231
0.000278206
0.000278178
0.000278145
0.000278109
0.000278066
0.000278019
0.000277963
0.000277902
0.000277828
0.00027775
0.000277657
0.000277553
0.000277433
0.000277299
0.000277178
0.000277071
0.000276959
0.000276841
0.000276718
0.000276582
0.000276444
0.00027629
0.000276149
0.000275968
0.000275828
0.000275613
0.000275485
0.000275215
0.000275124
0.000274767
0.000274752
0.000274264
0.000274367
0.000273787
0.000273699
0.000273488
0.000272858
0.000274499
0.000269592
0.00126991
0.000568512
0.000463383
0.000420781
0.0004011
0.000390535
0.000384163
0.000380017
0.000377143
0.000375049
0.000373466
0.000372239
0.000371261
0.000370478
0.000369825
0.000369298
0.000368843
0.000368474
0.00036815
0.000367881
0.000367645
0.000367445
0.000367267
0.000367119
0.000366983
0.00036687
0.000366769
0.000366678
0.000366598
0.000366525
0.000366465
0.000366407
0.000366361
0.000366315
0.000366277
0.000366243
0.000366214
0.000366184
0.000366158
0.000366133
0.000366112
0.000366089
0.000366069
0.000366047
0.000366027
0.000366005
0.00036598
0.000365955
0.000365928
0.000365896
0.000365857
0.000365812
0.00036576
0.000365696
0.000365628
0.000365545
0.000365452
0.000365341
0.000365223
0.000365081
0.000364925
0.000364744
0.000364541
0.00036436
0.000364201
0.000364035
0.000363859
0.000363677
0.000363479
0.000363277
0.000363059
0.000362856
0.000362606
0.000362406
0.00036212
0.000361935
0.000361596
0.00036145
0.000361036
0.000360961
0.000360449
0.000360493
0.000359857
0.000359816
0.000359596
0.000359162
0.00036059
0.000350094
0.00175417
0.000775611
0.00061864
0.000552077
0.000521034
0.000504621
0.00049496
0.000488839
0.00048472
0.000481802
0.000479655
0.000478031
0.000476766
0.000475777
0.000474965
0.000474325
0.000473779
0.000473347
0.000472971
0.000472666
0.000472401
0.000472182
0.000471989
0.000471831
0.000471688
0.000471571
0.000471469
0.000471377
0.000471297
0.000471226
0.000471169
0.000471113
0.000471072
0.000471031
0.000470997
0.000470968
0.000470945
0.000470919
0.000470898
0.000470877
0.00047086
0.000470841
0.000470824
0.000470804
0.000470786
0.000470764
0.000470739
0.000470711
0.000470678
0.000470644
0.000470597
0.00047054
0.000470474
0.000470392
0.000470303
0.000470193
0.00047007
0.000469922
0.000469765
0.000469575
0.000469366
0.000469125
0.000468855
0.000468615
0.000468406
0.000468188
0.000467958
0.00046772
0.000467465
0.000467205
0.000466932
0.000466673
0.000466368
0.000466117
0.000465784
0.000465546
0.000465178
0.000464969
0.000464571
0.000464396
0.000463957
0.000463913
0.000463337
0.00046338
0.00046319
0.000462951
0.000464594
0.000447283
0.00236131
0.00104187
0.000817669
0.000716885
0.000668735
0.000643309
0.000628541
0.000619357
0.000613321
0.000609154
0.000606168
0.000603969
0.000602298
0.000601026
0.000600006
0.000599224
0.00059857
0.00059807
0.00059764
0.000597304
0.000597017
0.000596787
0.000596589
0.000596433
0.000596294
0.000596186
0.000596095
0.000596013
0.000595945
0.000595885
0.000595843
0.000595799
0.000595773
0.000595745
0.000595725
0.000595711
0.000595701
0.000595687
0.000595679
0.000595668
0.000595664
0.000595654
0.000595647
0.000595635
0.000595625
0.00059561
0.000595589
0.000595565
0.000595533
0.000595496
0.000595449
0.000595387
0.000595311
0.000595215
0.000595111
0.000594979
0.000594831
0.000594651
0.000594463
0.000594232
0.000593981
0.00059369
0.000593366
0.000593077
0.00059283
0.000592572
0.000592303
0.000592024
0.000591727
0.000591425
0.000591122
0.000590824
0.000590494
0.000590211
0.000589869
0.000589591
0.000589255
0.000588979
0.000588656
0.00058841
0.000588103
0.000587992
0.000587628
0.000587762
0.000587678
0.000587906
0.000590158
0.000567272
0.00311051
0.0013802
0.0010727
0.00092499
0.000851855
0.000812788
0.000790152
0.000776205
0.000767175
0.000761066
0.000756783
0.000753704
0.000751422
0.000749733
0.000748412
0.000747434
0.000746635
0.000746048
0.000745557
0.000745191
0.000744888
0.000744658
0.000744466
0.000744328
0.000744208
0.000744125
0.000744063
0.000744006
0.000743966
0.000743934
0.000743922
0.000743904
0.000743909
0.000743907
0.000743914
0.000743927
0.000743945
0.000743954
0.00074397
0.00074398
0.000743999
0.000744009
0.000744022
0.000744026
0.000744033
0.000744034
0.000744027
0.000744016
0.000743993
0.000743965
0.000743923
0.000743864
0.00074379
0.00074369
0.000743581
0.000743439
0.000743278
0.00074308
0.000742877
0.000742622
0.00074235
0.000742032
0.00074168
0.000741369
0.000741105
0.000740833
0.000740549
0.000740254
0.000739943
0.000739626
0.000739335
0.000739025
0.000738718
0.000738435
0.00073814
0.000737854
0.000737601
0.000737307
0.000737081
0.000736953
0.000736717
0.000736777
0.000736528
0.000736844
0.000736926
0.000737595
0.000741009
0.000713784
0.00402101
0.00180451
0.00139802
0.00118868
0.00108031
0.00102113
0.000986562
0.00096526
0.000951554
0.000942386
0.000936055
0.000931585
0.00092834
0.000925994
0.000924205
0.000922921
0.000921902
0.000921187
0.000920607
0.000920201
0.000919881
0.000919657
0.000919484
0.000919379
0.000919297
0.000919257
0.000919247
0.000919236
0.000919245
0.00091926
0.000919301
0.000919328
0.000919384
0.000919427
0.00091948
0.000919539
0.000919603
0.000919651
0.000919706
0.000919753
0.00091981
0.000919854
0.0009199
0.000919935
0.000919973
0.000920002
0.000920021
0.000920036
0.000920037
0.000920031
0.000920009
0.000919967
0.000919911
0.000919819
0.000919727
0.000919589
0.000919436
0.000919242
0.000919053
0.000918802
0.000918544
0.000918235
0.000917901
0.000917609
0.000917361
0.000917112
0.000916852
0.000916584
0.000916294
0.000916009
0.000915788
0.000915505
0.000915289
0.000915062
0.000914867
0.000914712
0.000914503
0.000914416
0.000914238
0.000914296
0.000914212
0.000914465
0.000914496
0.000915035
0.000915398
0.000916473
0.000921143
0.000890511
0.00511082
0.00232941
0.00180942
0.00152274
0.00136664
0.00127873
0.00122651
0.00119405
0.0011731
0.00115913
0.00114954
0.00114284
0.00113804
0.00113462
0.00113206
0.00113027
0.00112888
0.00112794
0.00112721
0.00112672
0.00112636
0.00112614
0.00112599
0.00112593
0.0011259
0.00112593
0.00112599
0.00112605
0.00112613
0.00112622
0.00112634
0.00112644
0.00112657
0.00112668
0.00112681
0.00112693
0.00112707
0.00112718
0.00112729
0.00112739
0.00112751
0.00112761
0.00112771
0.00112779
0.00112788
0.00112795
0.00112802
0.00112808
0.00112812
0.00112815
0.00112817
0.00112817
0.00112815
0.00112809
0.00112804
0.00112793
0.00112783
0.00112767
0.00112753
0.00112733
0.00112713
0.00112688
0.00112663
0.00112642
0.00112623
0.00112605
0.00112586
0.00112569
0.0011255
0.00112533
0.00112518
0.00112506
0.00112492
0.00112487
0.00112479
0.00112482
0.00112482
0.00112491
0.001125
0.00112524
0.00112547
0.00112594
0.00112637
0.00112719
0.00112795
0.00112947
0.00113528
0.00110177
0.00639531
0.0029699
0.00232332
0.00194405
0.00172614
0.00159873
0.0015212
0.0014722
0.00144026
0.00141884
0.00140412
0.00139384
0.00138651
0.00138131
0.00137747
0.00137479
0.00137276
0.0013714
0.00137037
0.00136972
0.00136926
0.00136899
0.00136885
0.00136882
0.00136886
0.00136895
0.00136912
0.00136926
0.00136944
0.00136963
0.00136986
0.00137005
0.00137029
0.0013705
0.00137072
0.00137095
0.00137118
0.00137138
0.00137158
0.00137176
0.00137197
0.00137214
0.00137232
0.00137247
0.00137263
0.00137278
0.00137291
0.00137304
0.00137315
0.00137325
0.00137333
0.0013734
0.00137345
0.00137346
0.00137348
0.00137344
0.00137342
0.00137334
0.0013733
0.00137319
0.00137313
0.00137299
0.0013729
0.00137282
0.00137277
0.00137272
0.00137269
0.00137266
0.00137265
0.00137265
0.00137269
0.00137277
0.00137285
0.00137301
0.00137318
0.00137342
0.00137375
0.00137407
0.00137456
0.00137504
0.00137571
0.00137646
0.00137738
0.00137856
0.00137978
0.00138188
0.0013881
0.00135271
0.00788004
0.00374107
0.00295538
0.00247042
0.00217638
0.00199708
0.00188462
0.00181193
0.00176374
0.00173103
0.00170837
0.00169244
0.00168102
0.00167291
0.0016669
0.00166271
0.00165954
0.0016574
0.0016558
0.00165478
0.00165407
0.00165366
0.00165344
0.00165341
0.00165348
0.00165363
0.0016539
0.00165413
0.00165443
0.00165473
0.00165509
0.00165541
0.00165579
0.00165612
0.00165648
0.00165683
0.00165719
0.00165751
0.00165783
0.00165812
0.00165844
0.00165872
0.00165901
0.00165927
0.00165953
0.00165978
0.00166001
0.00166024
0.00166044
0.00166064
0.00166082
0.00166098
0.00166114
0.00166125
0.00166139
0.00166145
0.00166157
0.00166162
0.00166175
0.0016618
0.00166194
0.001662
0.00166216
0.00166229
0.00166246
0.00166259
0.00166281
0.00166299
0.00166326
0.00166349
0.00166382
0.00166415
0.00166456
0.00166499
0.00166554
0.00166607
0.00166682
0.00166742
0.00166843
0.00166921
0.00167045
0.00167152
0.00167303
0.00167462
0.00167635
0.00167927
0.00168506
0.00164867
0.00955472
0.00465813
0.00371894
0.00311872
0.00273596
0.002492
0.00233356
0.00222828
0.00215693
0.00210765
0.00207301
0.00204836
0.00203053
0.0020177
0.00200814
0.00200137
0.00199623
0.00199268
0.00199001
0.00198824
0.00198698
0.00198621
0.00198575
0.00198558
0.00198559
0.00198573
0.00198606
0.00198634
0.00198675
0.00198716
0.00198766
0.00198811
0.00198865
0.00198913
0.00198965
0.00199016
0.00199068
0.00199114
0.00199162
0.00199204
0.00199252
0.00199293
0.00199337
0.00199376
0.00199415
0.00199454
0.0019949
0.00199526
0.00199559
0.00199593
0.00199625
0.00199655
0.00199685
0.00199711
0.0019974
0.00199762
0.00199793
0.00199816
0.00199852
0.0019988
0.00199923
0.00199957
0.0020001
0.0020005
0.00200098
0.00200136
0.00200191
0.00200236
0.002003
0.00200352
0.00200427
0.0020049
0.00200578
0.00200652
0.00200756
0.00200844
0.00200971
0.0020107
0.00201228
0.0020134
0.00201532
0.00201673
0.00201893
0.00202091
0.00202325
0.00202707
0.00203202
0.00199529
0.0113849
0.00573695
0.00462315
0.00390229
0.00342216
0.00310236
0.00288671
0.00273884
0.00263596
0.00256333
0.00251129
0.00247365
0.002446
0.0024258
0.00241056
0.00239955
0.0023911
0.0023851
0.00238051
0.00237732
0.00237497
0.0023734
0.00237237
0.00237179
0.00237153
0.00237149
0.00237176
0.00237198
0.00237242
0.0023729
0.0023735
0.00237406
0.00237475
0.00237537
0.00237605
0.00237674
0.00237742
0.00237806
0.0023787
0.00237927
0.00237995
0.00238052
0.00238112
0.00238168
0.00238224
0.00238282
0.00238331
0.00238386
0.00238435
0.00238485
0.00238535
0.00238582
0.00238631
0.00238676
0.00238726
0.00238768
0.00238823
0.0023887
0.00238937
0.00238994
0.00239074
0.00239143
0.00239243
0.00239318
0.00239404
0.00239473
0.0023957
0.00239648
0.00239759
0.00239846
0.00239972
0.00240071
0.00240214
0.00240326
0.00240489
0.00240616
0.00240803
0.00240947
0.00241166
0.00241322
0.00241583
0.00241758
0.00242059
0.00242283
0.00242593
0.00243018
0.00243457
0.002398
0.0132999
0.00699673
0.00567083
0.0048277
0.0042475
0.00384477
0.00356255
0.0033624
0.00321896
0.00311508
0.00303897
0.0029828
0.00294077
0.00290949
0.0028855
0.00286781
0.00285401
0.00284392
0.00283603
0.00283033
0.00282599
0.00282287
0.00282064
0.00281914
0.00281822
0.00281764
0.00281758
0.0028175
0.00281779
0.00281818
0.00281877
0.00281933
0.0028201
0.00282081
0.00282162
0.00282245
0.0028233
0.00282408
0.00282491
0.00282564
0.0028265
0.00282727
0.00282806
0.00282881
0.00282955
0.00283031
0.00283099
0.00283169
0.00283233
0.00283302
0.00283376
0.00283438
0.00283513
0.00283581
0.00283655
0.0028372
0.00283804
0.00283879
0.00283983
0.00284075
0.00284201
0.00284311
0.00284466
0.00284584
0.00284714
0.00284818
0.00284964
0.00285079
0.00285244
0.00285372
0.00285556
0.00285697
0.002859
0.00286056
0.00286281
0.00286453
0.00286704
0.00286896
0.00287177
0.00287388
0.00287707
0.00287931
0.00288298
0.00288547
0.00288941
0.00289372
0.00289755
0.00286176
0.0152085
0.00843182
0.0068554
0.00589149
0.00521542
0.00472915
0.00437554
0.00411592
0.00392388
0.00378085
0.00367338
0.00359224
0.00353023
0.00348312
0.00344628
0.00341858
0.00339652
0.00337998
0.00336675
0.00335685
0.00334908
0.0033432
0.00333878
0.0033355
0.00333319
0.00333146
0.00333055
0.00332968
0.00332948
0.00332947
0.0033298
0.00333017
0.00333082
0.00333144
0.00333224
0.00333309
0.00333402
0.00333486
0.00333584
0.00333665
0.00333767
0.0033386
0.00333956
0.00334049
0.00334138
0.00334234
0.00334319
0.00334416
0.003345
0.00334584
0.00334679
0.00334744
0.00334847
0.00334941
0.0033504
0.00335131
0.00335244
0.0033535
0.00335497
0.00335626
0.00335803
0.00335959
0.00336175
0.00336339
0.00336516
0.00336659
0.00336855
0.00337014
0.00337233
0.00337408
0.0033765
0.0033784
0.00338105
0.00338309
0.00338597
0.00338818
0.00339131
0.0033937
0.00339713
0.00339972
0.00340349
0.00340626
0.00341042
0.00341337
0.00341786
0.00342186
0.00342533
0.00339081
0.0170054
0.00999728
0.00815695
0.00707707
0.00631597
0.00575347
0.00533059
0.00500951
0.0047643
0.00457616
0.0044309
0.00431844
0.00423051
0.00416219
0.0041077
0.00406571
0.00403172
0.00400559
0.0039842
0.00396775
0.00395445
0.00394403
0.00393589
0.00392948
0.00392464
0.00392076
0.00391808
0.00391577
0.00391435
0.00391341
0.00391299
0.0039127
0.00391286
0.00391306
0.00391359
0.00391421
0.00391496
0.00391569
0.00391663
0.00391742
0.00391847
0.00391945
0.00392048
0.0039215
0.00392247
0.00392358
0.00392457
0.00392573
0.00392669
0.00392786
0.00392896
0.00392962
0.00393072
0.00393179
0.00393307
0.00393424
0.00393562
0.003937
0.0039389
0.00394057
0.00394286
0.00394489
0.00394765
0.0039498
0.003952
0.00395383
0.00395625
0.00395829
0.00396099
0.00396325
0.00396622
0.00396866
0.00397187
0.00397445
0.00397789
0.00398061
0.0039843
0.00398715
0.00399113
0.00399411
0.00399844
0.00400152
0.00400624
0.00400939
0.00401451
0.0040179
0.00402211
0.00398818
0.0185618
0.011613
0.00953823
0.00835212
0.00752208
0.00689841
0.00641676
0.00603981
0.00574291
0.00550824
0.00532186
0.00517375
0.00505505
0.00496058
0.00488379
0.00482293
0.00477267
0.00473349
0.00470043
0.00467452
0.00465294
0.00463559
0.00462163
0.0046102
0.00460116
0.00459366
0.00458804
0.004583
0.00457936
0.00457652
0.00457454
0.00457286
0.00457191
0.0045711
0.00457085
0.00457079
0.00457094
0.00457122
0.0045718
0.00457224
0.00457308
0.00457387
0.00457476
0.00457569
0.00457656
0.00457764
0.00457854
0.00457981
0.00458081
0.00458224
0.00458334
0.00458408
0.00458494
0.0045862
0.00458735
0.00458883
0.00459036
0.00459205
0.00459434
0.00459632
0.00459909
0.00460157
0.00460489
0.00460753
0.0046101
0.00461226
0.00461503
0.00461748
0.00462057
0.00462332
0.00462677
0.00462978
0.00463351
0.00463663
0.00464056
0.00464376
0.00464791
0.00465116
0.00465558
0.00465886
0.00466362
0.00466689
0.00467204
0.00467523
0.00468085
0.00468384
0.00468844
0.00465587
0.0197213
0.0131685
0.0109406
0.00966641
0.00878733
0.0081235
0.00760145
0.00718272
0.00684369
0.00656806
0.00634297
0.00615927
0.00600827
0.00588507
0.00578281
0.00569963
0.00562981
0.00557339
0.00552559
0.00548725
0.00545421
0.00542724
0.00540494
0.00538612
0.00537078
0.00535778
0.00534737
0.0053383
0.00533074
0.00532468
0.00531998
0.00531579
0.00531284
0.00531007
0.00530826
0.00530677
0.00530564
0.00530494
0.00530464
0.0053042
0.00530438
0.00530454
0.0053049
0.00530537
0.00530582
0.00530657
0.00530717
0.00530825
0.00530909
0.00531017
0.00531184
0.00531256
0.00531265
0.00531366
0.00531433
0.00531587
0.00531748
0.00531954
0.00532206
0.00532417
0.00532729
0.00533011
0.00533395
0.00533702
0.00533986
0.00534214
0.00534512
0.00534778
0.00535102
0.00535409
0.00535793
0.00536152
0.00536574
0.00536943
0.00537378
0.00537742
0.00538189
0.00538547
0.00539015
0.00539365
0.00539863
0.00540199
0.00540736
0.00541052
0.0054164
0.00541908
0.00542379
0.00539317
0.0202814
0.0145529
0.0122802
0.010949
0.010045
0.00936558
0.00882712
0.00838803
0.0080246
0.00772177
0.00746799
0.00725552
0.00707644
0.00692664
0.00679954
0.00669351
0.00660286
0.00652753
0.00646265
0.00640934
0.00636251
0.00632378
0.00629069
0.00626211
0.00623834
0.0062178
0.00620055
0.00618555
0.00617303
0.00616204
0.00615324
0.00614449
0.00613845
0.0061323
0.00612783
0.00612385
0.00612059
0.00611823
0.00611633
0.00611412
0.00611297
0.00611177
0.00611103
0.0061105
0.00611002
0.00610995
0.00610994
0.00611036
0.00611064
0.0061113
0.00611236
0.00611212
0.00611262
0.00611265
0.00611285
0.00611408
0.00611485
0.00611763
0.00612004
0.00612209
0.00612529
0.00612825
0.00613259
0.00613592
0.00613898
0.00614095
0.0061441
0.00614643
0.00614923
0.00615208
0.00615622
0.00616052
0.00616536
0.0061697
0.00617445
0.00617851
0.00618318
0.00618699
0.00619173
0.00619532
0.0062003
0.00620364
0.006209
0.00621202
0.00621795
0.00622028
0.0062249
0.00619667
0.0199335
0.0157335
0.0134455
0.012105
0.0112072
0.0105396
0.0100116
0.00957798
0.00921389
0.00890473
0.00863996
0.00841317
0.00821749
0.00804984
0.00790445
0.00778014
0.00767181
0.00757942
0.00749851
0.00742987
0.00736944
0.00731751
0.00727278
0.00723332
0.00719999
0.00717035
0.00714455
0.00712223
0.00710301
0.0070858
0.00707132
0.00705771
0.00704734
0.00703487
0.00702643
0.00701888
0.00701294
0.00700822
0.00700381
0.00699843
0.00699508
0.00699145
0.00698901
0.0069868
0.00698478
0.00698337
0.00698242
0.00698139
0.00698066
0.00698039
0.00697934
0.00697811
0.00697835
0.0069769
0.00697718
0.00697816
0.00697911
0.0069803
0.00698224
0.00698458
0.00698713
0.00698986
0.00699464
0.00699805
0.00700134
0.00700256
0.0070061
0.00700681
0.00700822
0.00700938
0.00701421
0.00701971
0.00702546
0.00703056
0.0070357
0.00704009
0.0070448
0.0070487
0.0070533
0.00705684
0.00706158
0.00706476
0.00706988
0.00707265
0.00707837
0.00708039
0.00708457
0.0070591
0.0186361
0.0163092
0.0142677
0.0130069
0.0121636
0.0115404
0.0110514
0.0106508
0.0103123
0.0100217
0.00976886
0.00954837
0.00935423
0.00918432
0.00903387
0.00890223
0.00878528
0.00868305
0.00859202
0.00851252
0.00844187
0.00837941
0.00832464
0.00827562
0.00823266
0.00819476
0.00816042
0.00813126
0.00810461
0.00808058
0.00805955
0.00804043
0.00802421
0.00800806
0.00799518
0.00798337
0.00797283
0.0079635
0.00795563
0.00794445
0.00793851
0.00793097
0.00792693
0.00792275
0.00791881
0.00791563
0.00791336
0.00790948
0.00790791
0.00790393
0.00790277
0.00789893
0.00789915
0.00789845
0.00789728
0.00789776
0.00789816
0.0078981
0.00789922
0.00789994
0.00789945
0.00790207
0.00790805
0.00791158
0.00791441
0.00791619
0.0079186
0.00791942
0.00792086
0.00792325
0.00792719
0.00793172
0.00793664
0.00794124
0.0079459
0.00794999
0.00795429
0.00795791
0.00796206
0.0079653
0.00796956
0.00797241
0.00797704
0.00797944
0.00798457
0.00798704
0.00798934
0.00796718
0.0165267
0.0158686
0.014503
0.013487
0.0127786
0.0122445
0.0118277
0.0114882
0.0112017
0.0109549
0.0107384
0.0105474
0.0103766
0.0102245
0.0100874
0.00996484
0.00985395
0.00975475
0.0096649
0.00958433
0.00951168
0.00944597
0.00938708
0.00933369
0.00928554
0.00924243
0.00920302
0.00916775
0.00913595
0.00910709
0.00908083
0.00905718
0.00903586
0.00901533
0.00899995
0.00898387
0.00896895
0.00895575
0.00894386
0.00893158
0.00892171
0.00891211
0.00890415
0.00889672
0.00889007
0.00888388
0.0088791
0.00887372
0.00886995
0.00886538
0.00886303
0.00886086
0.00885883
0.00885638
0.00885629
0.00885337
0.00885129
0.0088499
0.00884965
0.00884948
0.00884952
0.00885039
0.00885219
0.00885466
0.00885674
0.00885859
0.00886054
0.00886226
0.00886422
0.00886654
0.00886944
0.00887259
0.00887603
0.00887937
0.00888285
0.00888603
0.00888942
0.00889236
0.00889572
0.00889841
0.0089019
0.00890428
0.00890811
0.00891013
0.00891443
0.00891621
0.0089183
0.00889922
0.0136942
0.0143625
0.014012
0.0133717
0.0129051
0.0125195
0.0122167
0.0119694
0.0117606
0.0115811
0.0114234
0.0112837
0.0111576
0.0110439
0.0109397
0.0108449
0.0107576
0.0106777
0.0106041
0.0105364
0.0104741
0.0104166
0.0103639
0.0103152
0.0102703
0.0102291
0.0101911
0.0101561
0.0101239
0.0100944
0.010067
0.0100421
0.0100188
0.00999721
0.00997803
0.00996026
0.00994372
0.00992857
0.00991467
0.00990129
0.00988937
0.00987819
0.00986814
0.0098587
0.00985023
0.00984216
0.00983517
0.00982847
0.00982259
0.00981717
0.00981229
0.00980797
0.00980418
0.00980074
0.00979801
0.00979539
0.00979299
0.00979097
0.00978952
0.00978836
0.00978751
0.00978701
0.00978682
0.00978818
0.00978965
0.00979109
0.00979263
0.00979422
0.00979597
0.00979784
0.00979991
0.00980204
0.00980433
0.00980657
0.00980894
0.00981114
0.00981355
0.00981566
0.00981814
0.00982012
0.00982279
0.00982456
0.00982759
0.00982904
0.00983249
0.00983412
0.00983488
0.00981931
0.0114539
0.0123351
0.0126784
0.0126135
0.0124533
0.0122733
0.0121308
0.0120061
0.0118981
0.011806
0.0117255
0.0116544
0.0115896
0.0115306
0.0114757
0.0114248
0.0113768
0.0113316
0.0112888
0.0112482
0.0112099
0.0111734
0.0111389
0.0111061
0.0110751
0.0110459
0.0110182
0.010992
0.0109674
0.0109443
0.0109224
0.010902
0.0108827
0.0108647
0.0108478
0.0108322
0.0108175
0.0108038
0.0107911
0.010779
0.0107679
0.0107575
0.0107479
0.0107388
0.0107305
0.0107227
0.0107156
0.0107089
0.0107028
0.0106972
0.0106921
0.0106873
0.0106831
0.0106791
0.0106757
0.0106726
0.0106698
0.0106673
0.0106652
0.0106633
0.0106617
0.0106604
0.0106592
0.0106599
0.010661
0.0106622
0.0106633
0.0106646
0.0106659
0.0106673
0.0106688
0.0106702
0.0106718
0.0106733
0.0106749
0.0106764
0.0106781
0.0106796
0.0106814
0.0106828
0.0106848
0.0106861
0.0106885
0.0106894
0.0106924
0.0106934
0.0106938
0.0106815
0.0122777
0.0115222
0.0115199
0.0116073
0.011671
0.0116739
0.011675