/*--------------------------------*- C++ -*----------------------------------*\
| =========                 |                                                 |
| \\      /  F ield         | OpenFOAM: The Open Source CFD Toolbox           |
|  \\    /   O peration     | Version:  2306                                  |
|   \\  /    A nd           | Website:  www.openfoam.com                      |
|    \\/     M anipulation  |                                                 |
\*---------------------------------------------------------------------------*/
FoamFile
{
    version     2.0;
    format      ascii;
    arch        "LSB;label=32;scalar=64";
    class       volScalarField;
    location    "1800";
    object      p;
}
// * * * * * * * * * * * * * * * * * * * * * * * * * * * * * * * * * * * * * //

dimensions      [0 2 -2 0 0 0 0];

internalField   nonuniform List<scalar> 
20540
(
190.086
66.2901
190.084
61.8721
190.081
58.5862
190.077
56.7696
190.07
55.6489
190.062
54.8088
190.05
54.1314
190.036
53.5771
190.017
53.1174
189.994
52.731
189.965
52.4037
189.929
52.1268
189.887
51.895
189.836
51.705
189.776
51.5553
189.706
51.4452
189.626
51.3744
189.534
51.3421
189.43
51.3467
189.316
51.3848
189.196
51.4511
189.072
51.5384
188.943
51.6425
188.788
51.7788
188.564
52.0036
188.222
52.3946
187.771
52.9543
187.293
53.5678
186.847
54.1484
186.451
54.6661
186.177
55.007
186.054
55.1308
186.076
55.0477
186.243
54.7579
186.558
54.2551
186.981
53.6017
187.448
52.91
187.944
52.2031
188.411
51.5639
188.768
51.1051
189.009
50.822
189.183
50.634
189.334
50.483
189.479
50.3533
189.62
50.2481
189.753
50.1735
189.875
50.1335
189.984
50.1304
190.081
50.1654
190.166
50.2385
190.239
50.3499
190.302
50.4995
190.355
50.6876
190.399
50.9157
190.436
51.1869
190.466
51.5065
190.49
51.8829
190.509
52.3298
190.525
52.8682
190.536
53.5257
190.545
54.341
190.552
55.4305
190.557
57.2036
190.56
60.4192
190.562
64.747
1.04686
7.3615
1.09051
-6.23662
-12.0795
-17.5367
-22.8998
-27.9838
-32.805
-37.4068
-41.8028
-46.0016
-50.0169
-53.859
-57.5382
-61.0629
-64.4417
-67.6818
-70.7903
-73.7737
-76.6377
-79.3885
-82.0307
-84.5694
-87.0093
-89.3546
-91.6094
-93.7778
-95.8633
-97.8694
-99.7994
-101.657
-103.444
-105.165
-106.822
-108.418
-109.957
-111.44
-112.871
-114.254
-115.591
-116.887
-118.144
-119.366
-120.559
-121.727
-122.874
-124.007
-125.132
-126.255
-127.383
-128.524
-129.687
-130.881
-132.116
-133.401
-134.748
-136.17
-137.677
-139.289
-141.014
-142.878
-144.889
-146.72
-148.243
-149.805
-151.419
-153.085
-154.803
-156.576
-158.403
-160.287
-162.228
-164.232
-166.295
-168.433
-170.629
-172.925
-175.27
-177.77
-180.279
-183.08
-185.76
-189.093
-191.941
-196.333
-199.732
-206.68
1.05127
7.3627
1.09096
-6.23636
-12.0793
-17.5365
-22.8997
-27.9837
-32.8049
-37.4067
-41.8028
-46.0016
-50.0169
-53.8589
-57.5382
-61.0628
-64.4417
-67.6818
-70.7903
-73.7737
-76.6377
-79.3885
-82.0307
-84.5694
-87.0093
-89.3546
-91.6094
-93.7778
-95.8633
-97.8694
-99.7994
-101.657
-103.444
-105.165
-106.822
-108.418
-109.957
-111.44
-112.871
-114.254
-115.591
-116.887
-118.144
-119.366
-120.559
-121.727
-122.874
-124.007
-125.132
-126.255
-127.383
-128.524
-129.687
-130.881
-132.116
-133.401
-134.748
-136.17
-137.677
-139.289
-141.014
-142.878
-144.889
-146.721
-148.243
-149.806
-151.419
-153.085
-154.804
-156.576
-158.403
-160.287
-162.228
-164.233
-166.296
-168.434
-170.63
-172.926
-175.271
-177.771
-180.28
-183.081
-185.761
-189.095
-191.943
-196.335
-199.739
-206.496
1.05202
7.36492
1.09189
-6.23578
-12.0789
-17.5362
-22.8995
-27.9835
-32.8047
-37.4066
-41.8027
-46.0015
-50.0168
-53.8589
-57.5381
-61.0628
-64.4417
-67.6817
-70.7903
-73.7736
-76.6377
-79.3884
-82.0306
-84.5693
-87.0093
-89.3546
-91.6094
-93.7778
-95.8633
-97.8694
-99.7994
-101.657
-103.444
-105.165
-106.822
-108.418
-109.957
-111.44
-112.871
-114.254
-115.591
-116.887
-118.144
-119.366
-120.559
-121.727
-122.874
-124.007
-125.132
-126.255
-127.383
-128.524
-129.687
-130.881
-132.116
-133.401
-134.748
-136.17
-137.678
-139.289
-141.014
-142.879
-144.89
-146.721
-148.243
-149.806
-151.42
-153.086
-154.804
-156.577
-158.404
-160.288
-162.229
-164.234
-166.297
-168.435
-170.632
-172.928
-175.273
-177.773
-180.282
-183.085
-185.764
-189.099
-191.949
-196.338
-199.751
-206.202
1.05094
7.36782
1.09331
-6.23487
-12.0782
-17.5357
-22.8991
-27.9832
-32.8045
-37.4064
-41.8025
-46.0013
-50.0167
-53.8587
-57.538
-61.0627
-64.4416
-67.6817
-70.7902
-73.7736
-76.6376
-79.3884
-82.0306
-84.5693
-87.0093
-89.3546
-91.6093
-93.7777
-95.8632
-97.8693
-99.7994
-101.657
-103.444
-105.165
-106.822
-108.418
-109.957
-111.44
-112.871
-114.254
-115.591
-116.887
-118.144
-119.366
-120.559
-121.727
-122.874
-124.007
-125.132
-126.255
-127.383
-128.524
-129.688
-130.882
-132.116
-133.401
-134.748
-136.17
-137.678
-139.289
-141.015
-142.879
-144.89
-146.722
-148.244
-149.807
-151.421
-153.087
-154.805
-156.578
-158.405
-160.29
-162.231
-164.236
-166.299
-168.438
-170.634
-172.931
-175.276
-177.777
-180.286
-183.09
-185.77
-189.105
-191.958
-196.342
-199.762
-205.931
1.04583
7.3707
1.09504
-6.23368
-12.0773
-17.535
-22.8985
-27.9827
-32.8041
-37.4061
-41.8022
-46.0011
-50.0165
-53.8586
-57.5379
-61.0625
-64.4414
-67.6816
-70.7901
-73.7735
-76.6375
-79.3883
-82.0305
-84.5692
-87.0092
-89.3545
-91.6093
-93.7777
-95.8632
-97.8693
-99.7993
-101.657
-103.444
-105.165
-106.822
-108.418
-109.957
-111.44
-112.871
-114.254
-115.591
-116.887
-118.144
-119.366
-120.559
-121.727
-122.874
-124.007
-125.132
-126.255
-127.383
-128.525
-129.688
-130.882
-132.116
-133.401
-134.748
-136.171
-137.678
-139.29
-141.015
-142.88
-144.891
-146.723
-148.245
-149.808
-151.422
-153.089
-154.807
-156.58
-158.407
-160.292
-162.234
-164.239
-166.302
-168.441
-170.638
-172.935
-175.28
-177.782
-180.292
-183.096
-185.777
-189.113
-191.969
-196.344
-199.762
-205.739
1.03373
7.37314
1.09689
-6.23229
-12.0762
-17.5342
-22.8979
-27.9822
-32.8037
-37.4057
-41.8019
-46.0008
-50.0162
-53.8583
-57.5377
-61.0624
-64.4413
-67.6814
-70.79
-73.7734
-76.6374
-79.3882
-82.0304
-84.5691
-87.0091
-89.3544
-91.6092
-93.7776
-95.8631
-97.8692
-99.7993
-101.657
-103.444
-105.165
-106.822
-108.418
-109.957
-111.44
-112.871
-114.254
-115.591
-116.887
-118.144
-119.366
-120.559
-121.727
-122.874
-124.007
-125.132
-126.255
-127.383
-128.525
-129.688
-130.882
-132.116
-133.402
-134.749
-136.171
-137.679
-139.29
-141.016
-142.881
-144.892
-146.724
-148.247
-149.81
-151.424
-153.091
-154.809
-156.583
-158.41
-160.295
-162.237
-164.242
-166.306
-168.445
-170.643
-172.94
-175.286
-177.789
-180.298
-183.104
-185.785
-189.122
-191.981
-196.344
-199.744
-205.614
1.01169
7.37482
1.09873
-6.23075
-12.0748
-17.5331
-22.897
-27.9815
-32.8031
-37.4052
-41.8014
-46.0004
-50.0159
-53.858
-57.5374
-61.0621
-64.4411
-67.6812
-70.7898
-73.7732
-76.6373
-79.3881
-82.0303
-84.569
-87.009
-89.3543
-91.6091
-93.7775
-95.8631
-97.8692
-99.7992
-101.656
-103.444
-105.165
-106.822
-108.418
-109.956
-111.44
-112.871
-114.254
-115.591
-116.887
-118.144
-119.366
-120.559
-121.727
-122.874
-124.007
-125.132
-126.255
-127.383
-128.525
-129.688
-130.882
-132.117
-133.402
-134.749
-136.172
-137.68
-139.291
-141.017
-142.882
-144.893
-146.726
-148.249
-149.812
-151.426
-153.093
-154.812
-156.585
-158.413
-160.299
-162.241
-164.246
-166.311
-168.451
-170.648
-172.947
-175.292
-177.796
-180.306
-183.113
-185.794
-189.131
-191.993
-196.34
-199.707
-205.5
0.976623
7.3753
1.10034
-6.22916
-12.0733
-17.5318
-22.896
-27.9806
-32.8023
-37.4045
-41.8009
-45.9999
-50.0155
-53.8577
-57.5371
-61.0618
-64.4408
-67.681
-70.7896
-73.773
-76.6371
-79.3879
-82.0301
-84.5689
-87.0089
-89.3542
-91.609
-93.7774
-95.8629
-97.8691
-99.7991
-101.656
-103.444
-105.165
-106.822
-108.418
-109.956
-111.44
-112.871
-114.254
-115.591
-116.887
-118.144
-119.366
-120.559
-121.727
-122.874
-124.008
-125.132
-126.255
-127.383
-128.525
-129.688
-130.882
-132.117
-133.403
-134.75
-136.172
-137.68
-139.292
-141.018
-142.883
-144.895
-146.727
-148.251
-149.814
-151.429
-153.096
-154.815
-156.589
-158.417
-160.303
-162.245
-164.252
-166.316
-168.457
-170.655
-172.954
-175.3
-177.805
-180.314
-183.123
-185.803
-189.138
-192.003
-196.328
-199.65
-205.345
0.92517
7.3739
1.10144
-6.22768
-12.0717
-17.5304
-22.8947
-27.9795
-32.8014
-37.4038
-41.8002
-45.9993
-50.0149
-53.8572
-57.5366
-61.0614
-64.4405
-67.6807
-70.7893
-73.7727
-76.6369
-79.3877
-82.0299
-84.5687
-87.0087
-89.3541
-91.6088
-93.7773
-95.8628
-97.8689
-99.799
-101.656
-103.444
-105.165
-106.822
-108.418
-109.956
-111.44
-112.871
-114.254
-115.591
-116.886
-118.144
-119.366
-120.559
-121.727
-122.874
-124.008
-125.132
-126.255
-127.384
-128.525
-129.689
-130.883
-132.117
-133.403
-134.751
-136.173
-137.681
-139.293
-141.02
-142.885
-144.897
-146.73
-148.253
-149.817
-151.432
-153.099
-154.819
-156.593
-158.422
-160.308
-162.251
-164.257
-166.322
-168.463
-170.662
-172.961
-175.308
-177.813
-180.322
-183.132
-185.812
-189.143
-192.008
-196.302
-199.573
-205.131
0.853689
7.36977
1.10164
-6.22654
-12.0701
-17.5288
-22.8933
-27.9783
-32.8003
-37.4028
-41.7994
-45.9986
-50.0143
-53.8566
-57.5361
-61.061
-64.44
-67.6803
-70.7889
-73.7724
-76.6366
-79.3874
-82.0297
-84.5684
-87.0085
-89.3538
-91.6086
-93.7771
-95.8626
-97.8688
-99.7988
-101.656
-103.444
-105.165
-106.822
-108.418
-109.956
-111.44
-112.871
-114.254
-115.591
-116.886
-118.144
-119.366
-120.559
-121.727
-122.875
-124.008
-125.132
-126.256
-127.384
-128.525
-129.689
-130.883
-132.118
-133.404
-134.751
-136.174
-137.683
-139.295
-141.021
-142.887
-144.899
-146.732
-148.256
-149.82
-151.435
-153.103
-154.823
-156.598
-158.426
-160.313
-162.256
-164.263
-166.329
-168.47
-170.669
-172.969
-175.315
-177.821
-180.33
-183.139
-185.817
-189.14
-192.005
-196.255
-199.464
-204.852
0.758438
7.36182
1.10045
-6.2261
-12.0686
-17.5272
-22.8918
-27.9769
-32.799
-37.4017
-41.7984
-45.9977
-50.0135
-53.8559
-57.5355
-61.0604
-64.4395
-67.6798
-70.7885
-73.772
-76.6362
-79.387
-82.0293
-84.5681
-87.0082
-89.3536
-91.6084
-93.7768
-95.8624
-97.8686
-99.7986
-101.656
-103.443
-105.164
-106.822
-108.418
-109.956
-111.439
-112.871
-114.254
-115.591
-116.886
-118.143
-119.366
-120.559
-121.727
-122.875
-124.008
-125.133
-126.256
-127.384
-128.526
-129.689
-130.884
-132.118
-133.404
-134.752
-136.175
-137.684
-139.296
-141.023
-142.889
-144.902
-146.735
-148.259
-149.824
-151.439
-153.107
-154.827
-156.602
-158.432
-160.319
-162.262
-164.27
-166.335
-168.477
-170.675
-172.976
-175.322
-177.828
-180.335
-183.141
-185.818
-189.127
-191.988
-196.176
-199.312
-204.498
0.63584
7.34876
1.09728
-6.22683
-12.0677
-17.5257
-22.8902
-27.9753
-32.7976
-37.4004
-41.7972
-45.9966
-50.0125
-53.855
-57.5347
-61.0596
-64.4388
-67.6791
-70.7879
-73.7715
-76.6357
-79.3866
-82.0289
-84.5677
-87.0078
-89.3532
-91.6081
-93.7765
-95.8621
-97.8683
-99.7984
-101.656
-103.443
-105.164
-106.821
-108.418
-109.956
-111.439
-112.871
-114.254
-115.591
-116.886
-118.143
-119.366
-120.559
-121.727
-122.874
-124.008
-125.133
-126.256
-127.384
-128.526
-129.69
-130.884
-132.119
-133.405
-134.753
-136.176
-137.685
-139.298
-141.025
-142.891
-144.904
-146.738
-148.262
-149.827
-151.443
-153.111
-154.832
-156.607
-158.436
-160.324
-162.267
-164.275
-166.34
-168.482
-170.681
-172.981
-175.325
-177.83
-180.334
-183.135
-185.809
-189.096
-191.949
-196.052
-199.099
-204.049
0.48287
7.3291
1.09144
-6.22933
-12.0676
-17.5246
-22.8887
-27.9738
-32.7961
-37.3989
-41.7958
-45.9954
-50.0114
-53.8539
-57.5337
-61.0587
-64.438
-67.6784
-70.7872
-73.7708
-76.6351
-79.386
-82.0284
-84.5672
-87.0073
-89.3528
-91.6077
-93.7761
-95.8618
-97.8679
-99.798
-101.655
-103.443
-105.164
-106.821
-108.417
-109.956
-111.439
-112.87
-114.253
-115.591
-116.886
-118.143
-119.366
-120.559
-121.727
-122.874
-124.008
-125.133
-126.256
-127.384
-128.526
-129.69
-130.885
-132.12
-133.406
-134.754
-136.177
-137.686
-139.299
-141.027
-142.893
-144.907
-146.74
-148.265
-149.83
-151.446
-153.114
-154.835
-156.611
-158.44
-160.327
-162.271
-164.278
-166.343
-168.485
-170.682
-172.981
-175.323
-177.824
-180.325
-183.116
-185.784
-189.037
-191.877
-195.867
-198.808
-203.488
0.297702
7.30111
1.08221
-6.23431
-12.0689
-17.5242
-22.8876
-27.9723
-32.7945
-37.3974
-41.7943
-45.994
-50.0101
-53.8527
-57.5326
-61.0577
-64.437
-67.6775
-70.7864
-73.77
-76.6343
-79.3853
-82.0277
-84.5666
-87.0068
-89.3522
-91.6071
-93.7757
-95.8613
-97.8675
-99.7976
-101.655
-103.443
-105.163
-106.821
-108.417
-109.955
-111.439
-112.87
-114.253
-115.59
-116.886
-118.143
-119.366
-120.559
-121.727
-122.874
-124.008
-125.133
-126.256
-127.384
-128.526
-129.69
-130.885
-132.12
-133.406
-134.755
-136.178
-137.687
-139.3
-141.028
-142.895
-144.908
-146.742
-148.267
-149.832
-151.448
-153.116
-154.837
-156.612
-158.442
-160.328
-162.271
-164.278
-166.342
-168.482
-170.677
-172.973
-175.311
-177.805
-180.301
-183.074
-185.733
-188.938
-191.754
-195.6
-198.419
-202.796
0.0807092
7.26278
1.06887
-6.24256
-12.0724
-17.5251
-22.8873
-27.9713
-32.7932
-37.3959
-41.7928
-45.9925
-50.0086
-53.8513
-57.5313
-61.0565
-64.4359
-67.6764
-70.7853
-73.7691
-76.6334
-79.3845
-82.0269
-84.5659
-87.0061
-89.3516
-91.6065
-93.7751
-95.8607
-97.867
-99.7971
-101.654
-103.442
-105.163
-106.82
-108.417
-109.955
-111.438
-112.87
-114.253
-115.59
-116.885
-118.143
-119.365
-120.559
-121.726
-122.874
-124.007
-125.132
-126.256
-127.384
-128.526
-129.69
-130.885
-132.12
-133.406
-134.755
-136.178
-137.688
-139.301
-141.028
-142.895
-144.909
-146.742
-148.267
-149.832
-151.448
-153.116
-154.836
-156.61
-158.439
-160.325
-162.266
-164.271
-166.332
-168.469
-170.66
-172.951
-175.283
-177.766
-180.252
-182.999
-185.644
-188.779
-191.56
-195.227
-197.906
-201.956
-0.164128
7.21181
1.05081
-6.25491
-12.0788
-17.528
-22.8882
-27.9711
-32.7923
-37.3947
-41.7915
-45.991
-50.0071
-53.8499
-57.5299
-61.0551
-64.4346
-67.6752
-70.7842
-73.7679
-76.6324
-79.3835
-82.026
-84.565
-87.0052
-89.3508
-91.6057
-93.7743
-95.86
-97.8663
-99.7964
-101.654
-103.441
-105.162
-106.82
-108.416
-109.954
-111.438
-112.869
-114.252
-115.59
-116.885
-118.142
-119.365
-120.558
-121.726
-122.874
-124.007
-125.132
-126.255
-127.384
-128.526
-129.69
-130.884
-132.12
-133.406
-134.754
-136.178
-137.687
-139.3
-141.027
-142.894
-144.907
-146.74
-148.264
-149.828
-151.443
-153.11
-154.829
-156.602
-158.429
-160.312
-162.251
-164.253
-166.31
-168.441
-170.626
-172.907
-175.23
-177.695
-180.166
-182.875
-185.495
-188.539
-191.264
-194.719
-197.243
-200.946
-0.427554
7.14554
1.02749
-6.27206
-12.0888
-17.5334
-22.891
-27.9723
-32.7924
-37.3941
-41.7905
-45.9898
-50.0058
-53.8485
-57.5284
-61.0537
-64.4332
-67.6738
-70.7829
-73.7667
-76.6312
-79.3823
-82.0249
-84.5639
-87.0042
-89.3498
-91.6048
-93.7734
-95.8592
-97.8655
-99.7957
-101.653
-103.441
-105.162
-106.819
-108.415
-109.954
-111.437
-112.869
-114.252
-115.589
-116.884
-118.142
-119.365
-120.558
-121.725
-122.873
-124.006
-125.131
-126.255
-127.383
-128.525
-129.689
-130.883
-132.118
-133.404
-134.752
-136.175
-137.684
-139.297
-141.024
-142.889
-144.901
-146.733
-148.256
-149.819
-151.432
-153.097
-154.814
-156.584
-158.407
-160.287
-162.221
-164.217
-166.267
-168.389
-170.564
-172.83
-175.138
-177.576
-180.024
-182.678
-185.259
-188.185
-190.83
-194.043
-196.398
-199.747
-0.693761
7.06119
0.998454
-6.29457
-12.1031
-17.5422
-22.8964
-27.9754
-32.7939
-37.3946
-41.7903
-45.9891
-50.0048
-53.8473
-57.5272
-61.0523
-64.4318
-67.6724
-70.7815
-73.7653
-76.6299
-79.381
-82.0236
-84.5627
-87.003
-89.3487
-91.6037
-93.7724
-95.8582
-97.8645
-99.7947
-101.652
-103.44
-105.161
-106.818
-108.415
-109.953
-111.436
-112.868
-114.251
-115.588
-116.884
-118.141
-119.364
-120.557
-121.724
-122.872
-124.005
-125.13
-126.253
-127.382
-128.523
-129.687
-130.881
-132.116
-133.401
-134.749
-136.171
-137.679
-139.29
-141.016
-142.879
-144.889
-146.718
-148.239
-149.8
-151.41
-153.071
-154.784
-156.55
-158.368
-160.241
-162.167
-164.153
-166.193
-168.301
-170.46
-172.703
-174.988
-177.386
-179.798
-182.378
-184.9
-187.68
-190.214
-193.162
-195.335
-198.336
-0.940388
6.9565
0.963365
-6.32273
-12.1222
-17.5548
-22.905
-27.9811
-32.7976
-37.3967
-41.7913
-45.9895
-50.0046
-53.8468
-57.5263
-61.0513
-64.4306
-67.6712
-70.7802
-73.764
-76.6285
-79.3797
-82.0223
-84.5614
-87.0018
-89.3474
-91.6025
-93.7712
-95.857
-97.8634
-99.7936
-101.651
-103.439
-105.16
-106.817
-108.414
-109.952
-111.436
-112.867
-114.25
-115.587
-116.883
-118.14
-119.363
-120.556
-121.723
-122.871
-124.004
-125.128
-126.251
-127.379
-128.52
-129.683
-130.877
-132.111
-133.396
-134.742
-136.163
-137.669
-139.278
-141.001
-142.861
-144.867
-146.692
-148.209
-149.766
-151.371
-153.027
-154.733
-156.491
-158.3
-160.163
-162.077
-164.049
-166.072
-168.158
-170.293
-172.502
-174.752
-177.094
-179.452
-181.935
-184.369
-186.978
-189.367
-192.035
-194.014
-196.685
-1.13944
6.83053
0.922327
-6.3565
-12.1462
-17.5716
-22.9173
-27.99
-32.8038
-37.401
-41.7942
-45.9913
-50.0056
-53.8472
-57.5262
-61.0509
-64.43
-67.6703
-70.7792
-73.7629
-76.6274
-79.3785
-82.0211
-84.5602
-87.0005
-89.3462
-91.6013
-93.77
-95.8558
-97.8622
-99.7924
-101.65
-103.438
-105.159
-106.816
-108.412
-109.951
-111.434
-112.866
-114.249
-115.586
-116.881
-118.139
-119.361
-120.554
-121.721
-122.869
-124.001
-125.126
-126.248
-127.375
-128.516
-129.678
-130.87
-132.103
-133.386
-134.73
-136.149
-137.652
-139.257
-140.976
-142.831
-144.831
-146.649
-148.16
-149.711
-151.307
-152.954
-154.65
-156.396
-158.192
-160.038
-161.934
-163.883
-165.88
-167.934
-170.033
-172.193
-174.39
-176.657
-178.937
-181.296
-183.61
-186.021
-188.232
-190.616
-192.394
-194.755
-1.25833
6.68412
0.876335
-6.39554
-12.1747
-17.5923
-22.9332
-28.0023
-32.8131
-37.4081
-41.7995
-45.9951
-50.0084
-53.849
-57.5274
-61.0516
-64.4302
-67.6702
-70.7789
-73.7624
-76.6267
-79.3777
-82.0201
-84.5592
-86.9994
-89.345
-91.6002
-93.7689
-95.8546
-97.861
-99.7913
-101.649
-103.436
-105.158
-106.815
-108.411
-109.95
-111.433
-112.865
-114.247
-115.585
-116.88
-118.137
-119.359
-120.552
-121.719
-122.866
-123.998
-125.122
-126.243
-127.369
-128.509
-129.669
-130.86
-132.09
-133.37
-134.711
-136.126
-137.625
-139.225
-140.937
-142.783
-144.773
-146.58
-148.082
-149.622
-151.206
-152.839
-154.519
-156.247
-158.021
-159.843
-161.711
-163.626
-165.585
-167.592
-169.638
-171.731
-173.853
-176.019
-178.189
-180.398
-182.554
-184.746
-186.751
-188.85
-190.423
-192.495
-1.26157
6.52025
0.827693
-6.43918
-12.207
-17.6161
-22.9523
-28.0178
-32.8255
-37.418
-41.8074
-46.0014
-50.0133
-53.8529
-57.5304
-61.0538
-64.4318
-67.6713
-70.7795
-73.7627
-76.6267
-79.3775
-82.0198
-84.5587
-86.9988
-89.3443
-91.5993
-93.768
-95.8537
-97.86
-99.7902
-101.648
-103.435
-105.156
-106.814
-108.41
-109.949
-111.432
-112.863
-114.246
-115.583
-116.878
-118.135
-119.357
-120.549
-121.716
-122.862
-123.993
-125.115
-126.236
-127.36
-128.498
-129.656
-130.844
-132.07
-133.346
-134.682
-136.091
-137.582
-139.173
-140.875
-142.708
-144.683
-146.473
-147.96
-149.484
-151.05
-152.661
-154.317
-156.017
-157.76
-159.546
-161.372
-163.239
-165.142
-167.083
-169.053
-171.054
-173.071
-175.108
-177.133
-179.162
-181.127
-183.08
-184.859
-186.678
-188.046
-189.845
-1.1137
6.34521
0.779938
-6.48649
-12.2421
-17.6418
-22.9736
-28.0358
-32.8404
-37.4304
-41.8178
-46.0101
-50.0205
-53.8589
-57.5353
-61.0578
-64.4351
-67.6739
-70.7816
-73.7643
-76.628
-79.3783
-82.0204
-84.559
-86.9989
-89.3442
-91.5992
-93.7677
-95.8533
-97.8595
-99.7896
-101.647
-103.435
-105.156
-106.813
-108.409
-109.947
-111.431
-112.862
-114.244
-115.581
-116.876
-118.132
-119.354
-120.545
-121.711
-122.856
-123.986
-125.107
-126.225
-127.347
-128.481
-129.636
-130.819
-132.04
-133.31
-134.638
-136.036
-137.517
-139.094
-140.78
-142.594
-144.544
-146.31
-147.775
-149.275
-150.812
-152.391
-154.012
-155.672
-157.369
-159.102
-160.868
-162.666
-164.49
-166.339
-168.205
-170.084
-171.962
-173.836
-175.682
-177.5
-179.245
-180.945
-182.485
-184.03
-185.194
-186.731
-0.784353
6.1725
0.737167
-6.53642
-12.279
-17.668
-22.9955
-28.0548
-32.8567
-37.4444
-41.83
-46.0207
-50.0297
-53.8668
-57.5422
-61.0637
-64.4401
-67.6783
-70.7853
-73.7675
-76.6307
-79.3806
-82.0222
-84.5605
-87.0002
-89.3452
-91.5999
-93.7682
-95.8536
-97.8597
-99.7897
-101.647
-103.434
-105.155
-106.812
-108.408
-109.947
-111.43
-112.861
-114.243
-115.579
-116.873
-118.129
-119.35
-120.54
-121.705
-122.848
-123.976
-125.094
-126.209
-127.327
-128.457
-129.606
-130.782
-131.995
-133.254
-134.57
-135.955
-137.419
-138.976
-140.637
-142.421
-144.336
-146.066
-147.498
-148.962
-150.458
-151.992
-153.56
-155.161
-156.791
-158.449
-160.131
-161.833
-163.549
-165.275
-167.002
-168.723
-170.426
-172.103
-173.736
-175.319
-176.82
-178.259
-179.552
-180.829
-181.79
-183.069
-0.257151
6.02211
0.706996
-6.5874
-12.3165
-17.6929
-23.0165
-28.0734
-32.8728
-37.4586
-41.8427
-46.0321
-50.0399
-53.876
-57.5504
-61.0711
-64.4467
-67.6842
-70.7905
-73.7721
-76.6348
-79.3842
-82.0255
-84.5634
-87.0026
-89.3474
-91.6018
-93.7699
-95.8551
-97.8609
-99.7908
-101.648
-103.435
-105.156
-106.813
-108.408
-109.946
-111.429
-112.86
-114.241
-115.577
-116.871
-118.125
-119.345
-120.533
-121.696
-122.837
-123.961
-125.076
-126.186
-127.299
-128.421
-129.561
-130.727
-131.928
-133.172
-134.471
-135.834
-137.273
-138.799
-140.425
-142.165
-144.028
-145.704
-147.089
-148.501
-149.939
-151.405
-152.899
-154.416
-155.953
-157.508
-159.074
-160.646
-162.219
-163.784
-165.335
-166.861
-168.353
-169.801
-171.191
-172.519
-173.761
-174.933
-175.976
-176.992
-177.749
-178.773
0.455653
5.90947
0.706687
-6.6355
-12.3532
-17.7148
-23.0346
-28.0897
-32.8869
-37.4712
-41.8543
-46.0427
-50.0497
-53.885
-57.5587
-61.0788
-64.4538
-67.6907
-70.7965
-73.7776
-76.6399
-79.3888
-82.0297
-84.5673
-87.0062
-89.3507
-91.6048
-93.7725
-95.8575
-97.8631
-99.7928
-101.65
-103.437
-105.157
-106.814
-108.409
-109.947
-111.429
-112.859
-114.24
-115.575
-116.867
-118.12
-119.338
-120.524
-121.683
-122.821
-123.941
-125.049
-126.152
-127.257
-128.369
-129.496
-130.647
-131.829
-133.052
-134.324
-135.656
-137.058
-138.541
-140.114
-141.79
-143.577
-145.178
-146.494
-147.831
-149.185
-150.558
-151.949
-153.352
-154.763
-156.178
-157.591
-158.995
-160.384
-161.749
-163.084
-164.38
-165.628
-166.819
-167.946
-169.003
-169.978
-170.88
-171.674
-172.433
-172.986
-173.755
1.29243
5.8377
0.760915
-6.67194
-12.3859
-17.7314
-23.0481
-28.1021
-32.8973
-37.4805
-41.8628
-46.0507
-50.0572
-53.8921
-57.5654
-61.0852
-64.4599
-67.6964
-70.802
-73.7828
-76.6448
-79.3935
-82.0341
-84.5714
-87.0101
-89.3544
-91.6083
-93.7758
-95.8606
-97.866
-99.7954
-101.652
-103.439
-105.159
-106.815
-108.41
-109.947
-111.429
-112.859
-114.239
-115.572
-116.863
-118.114
-119.329
-120.511
-121.666
-122.798
-123.911
-125.011
-126.104
-127.195
-128.292
-129.401
-130.529
-131.685
-132.876
-134.11
-135.398
-136.746
-138.165
-139.662
-141.249
-142.928
-144.421
-145.642
-146.873
-148.112
-149.358
-150.61
-151.861
-153.107
-154.342
-155.559
-156.754
-157.919
-159.046
-160.131
-161.165
-162.143
-163.059
-163.908
-164.688
-165.392
-166.028
-166.574
-167.084
-167.434
-167.951
2.14756
5.78261
0.879715
-6.68265
-12.4079
-17.7384
-23.0542
-28.1086
-32.9024
-37.4848
-41.8668
-46.0545
-50.0609
-53.8957
-57.5689
-61.0887
-64.4633
-67.6999
-70.8054
-73.7861
-76.6481
-79.3967
-82.0373
-84.5746
-87.0131
-89.3573
-91.6112
-93.7786
-95.8632
-97.8685
-99.7978
-101.654
-103.441
-105.161
-106.817
-108.411
-109.948
-111.429
-112.857
-114.236
-115.568
-116.856
-118.104
-119.315
-120.493
-121.641
-122.765
-123.868
-124.956
-126.034
-127.107
-128.181
-129.263
-130.36
-131.477
-132.622
-133.802
-135.025
-136.297
-137.626
-139.017
-140.478
-142.008
-143.353
-144.443
-145.532
-146.617
-147.696
-148.767
-149.823
-150.86
-151.872
-152.853
-153.798
-154.703
-155.56
-156.367
-157.117
-157.809
-158.44
-159.006
-159.509
-159.945
-160.322
-160.626
-160.897
-161.049
-161.322
2.96854
5.70443
1.02261
-6.67078
-12.4153
-17.7319
-23.0495
-28.1067
-32.9003
-37.4825
-41.8649
-46.0529
-50.0594
-53.8945
-57.568
-61.088
-64.4629
-67.6996
-70.8054
-73.7863
-76.6484
-79.3972
-82.038
-84.5753
-87.014
-89.3583
-91.6122
-93.7797
-95.8643
-97.8696
-99.7988
-101.655
-103.442
-105.161
-106.817
-108.411
-109.947
-111.427
-112.854
-114.231
-115.56
-116.845
-118.089
-119.294
-120.465
-121.605
-122.717
-123.806
-124.877
-125.933
-126.98
-128.023
-129.067
-130.118
-131.18
-132.261
-133.365
-134.498
-135.664
-136.869
-138.113
-139.402
-140.732
-141.881
-142.799
-143.703
-144.591
-145.459
-146.305
-147.124
-147.91
-148.661
-149.37
-150.036
-150.654
-151.22
-151.734
-152.192
-152.595
-152.941
-153.231
-153.466
-153.647
-153.78
-153.857
-153.906
-153.872
-153.917
3.72293
5.63729
1.15099
-6.66493
-12.4257
-17.7242
-23.0416
-28.1007
-32.8937
-37.4757
-41.8584
-46.0467
-50.0536
-53.889
-57.5629
-61.0832
-64.4585
-67.6957
-70.8018
-73.783
-76.6455
-79.3946
-82.0355
-84.5732
-87.0121
-89.3566
-91.6107
-93.7783
-95.863
-97.8684
-99.7976
-101.654
-103.44
-105.16
-106.815
-108.409
-109.943
-111.422
-112.847
-114.222
-115.548
-116.828
-118.066
-119.264
-120.425
-121.552
-122.649
-123.718
-124.764
-125.791
-126.801
-127.8
-128.791
-129.779
-130.766
-131.758
-132.758
-133.767
-134.79
-135.826
-136.877
-137.939
-139.009
-139.907
-140.608
-141.283
-141.929
-142.544
-143.125
-143.668
-144.171
-144.631
-145.045
-145.412
-145.73
-145.998
-146.217
-146.387
-146.508
-146.582
-146.61
-146.596
-146.54
-146.448
-146.318
-146.164
-145.959
-145.794
4.23233
5.61795
1.24826
-6.65719
-12.4327
-17.721
-23.0399
-28.1002
-32.8925
-37.4739
-41.8563
-46.0443
-50.051
-53.8862
-57.56
-61.0804
-64.4557
-67.6929
-70.799
-73.7804
-76.6429
-79.3921
-82.0332
-84.5709
-87.0099
-89.3545
-91.6087
-93.7763
-95.8611
-97.8665
-99.7957
-101.652
-103.438
-105.157
-106.812
-108.405
-109.938
-111.416
-112.839
-114.21
-115.532
-116.807
-118.038
-119.226
-120.375
-121.487
-122.565
-123.611
-124.628
-125.619
-126.586
-127.532
-128.46
-129.373
-130.271
-131.159
-132.036
-132.903
-133.76
-134.606
-135.438
-136.25
-137.038
-137.67
-138.144
-138.583
-138.986
-139.35
-139.673
-139.954
-140.192
-140.386
-140.535
-140.639
-140.698
-140.714
-140.688
-140.622
-140.517
-140.375
-140.2
-139.993
-139.758
-139.498
-139.214
-138.914
-138.588
-138.272
4.45804
5.61675
1.29189
-6.65246
-12.4346
-17.7193
-23.0393
-28.1005
-32.8926
-37.4738
-41.8561
-46.0439
-50.0505
-53.8856
-57.5594
-61.0796
-64.4547
-67.6919
-70.7981
-73.7794
-76.642
-79.3912
-82.0322
-84.57
-87.009
-89.3536
-91.6078
-93.7754
-95.8602
-97.8655
-99.7946
-101.651
-103.437
-105.155
-106.809
-108.401
-109.934
-111.409
-112.83
-114.198
-115.516
-116.785
-118.009
-119.188
-120.324
-121.421
-122.479
-123.501
-124.487
-125.441
-126.363
-127.255
-128.118
-128.954
-129.762
-130.543
-131.297
-132.021
-132.715
-133.374
-133.994
-134.57
-135.093
-135.48
-135.748
-135.976
-136.162
-136.307
-136.409
-136.469
-136.485
-136.46
-136.394
-136.288
-136.144
-135.963
-135.749
-135.502
-135.227
-134.925
-134.6
-134.254
-133.89
-133.51
-133.117
-132.715
-132.303
-131.886
4.41696
5.62981
1.29084
-6.64818
-12.4302
-17.7167
-23.0372
-28.0987
-32.8912
-37.4726
-41.8551
-46.043
-50.0497
-53.885
-57.5588
-61.0791
-64.4542
-67.6914
-70.7977
-73.7791
-76.6416
-79.3908
-82.0319
-84.5697
-87.0087
-89.3533
-91.6075
-93.7751
-95.8599
-97.8651
-99.7941
-101.65
-103.436
-105.154
-106.807
-108.398
-109.93
-111.403
-112.822
-114.187
-115.5
-116.764
-117.98
-119.149
-120.273
-121.354
-122.392
-123.389
-124.345
-125.261
-126.137
-126.975
-127.773
-128.532
-129.249
-129.925
-130.557
-131.142
-131.676
-132.156
-132.575
-132.926
-133.204
-133.367
-133.45
-133.49
-133.488
-133.443
-133.356
-133.229
-133.062
-132.857
-132.617
-132.344
-132.039
-131.707
-131.348
-130.967
-130.565
-130.146
-129.711
-129.265
-128.809
-128.345
-127.876
-127.403
-126.932
-126.45
4.10851
5.65808
1.24492
-6.6445
-12.4195
-17.7135
-23.0339
-28.095
-32.8886
-37.4706
-41.8536
-46.0419
-50.0489
-53.8844
-57.5585
-61.079
-64.4545
-67.6917
-70.798
-73.7794
-76.6421
-79.3913
-82.0325
-84.5702
-87.0093
-89.3539
-91.608
-93.7756
-95.8603
-97.8655
-99.7944
-101.65
-103.435
-105.153
-106.806
-108.396
-109.926
-111.399
-112.815
-114.176
-115.485
-116.744
-117.952
-119.112
-120.224
-121.289
-122.308
-123.28
-124.206
-125.086
-125.918
-126.703
-127.438
-128.122
-128.753
-129.329
-129.846
-130.299
-130.686
-130.999
-131.234
-131.383
-131.442
-131.407
-131.33
-131.208
-131.046
-130.843
-130.6
-130.319
-130.003
-129.655
-129.277
-128.873
-128.444
-127.994
-127.526
-127.042
-126.545
-126.039
-125.524
-125.005
-124.483
-123.959
-123.438
-122.917
-122.406
-121.881
3.52258
5.70632
1.14803
-6.64271
-12.4035
-17.7114
-23.032
-28.0927
-32.8877
-37.4709
-41.8547
-46.0436
-50.0508
-53.8866
-57.561
-61.0816
-64.4571
-67.6943
-70.8006
-73.7819
-76.6445
-79.3936
-82.0346
-84.5723
-87.0113
-89.3557
-91.6098
-93.7773
-95.8618
-97.8668
-99.7955
-101.651
-103.436
-105.153
-106.806
-108.395
-109.924
-111.394
-112.808
-114.167
-115.472
-116.725
-117.926
-119.077
-120.178
-121.228
-122.229
-123.178
-124.076
-124.922
-125.713
-126.448
-127.124
-127.74
-128.291
-128.774
-129.184
-129.519
-129.772
-129.937
-130.008
-129.98
-129.849
-129.646
-129.432
-129.176
-128.88
-128.546
-128.175
-127.77
-127.336
-126.874
-126.388
-125.881
-125.356
-124.816
-124.265
-123.704
-123.137
-122.567
-121.994
-121.422
-120.852
-120.287
-119.728
-119.173
-118.634
-118.082
2.71831
5.7962
1.02362
-6.64044
-12.3876
-17.7156
-23.0377
-28.097
-32.8928
-37.4766
-41.8604
-46.049
-50.0559
-53.8914
-57.5655
-61.0857
-64.4609
-67.6978
-70.8038
-73.7847
-76.6471
-79.3959
-82.0367
-84.5741
-87.0128
-89.3571
-91.6109
-93.7782
-95.8626
-97.8674
-99.7959
-101.651
-103.436
-105.153
-106.804
-108.393
-109.921
-111.39
-112.802
-114.158
-115.46
-116.709
-117.905
-119.048
-120.139
-121.178
-122.163
-123.094
-123.969
-124.787
-125.545
-126.24
-126.868
-127.428
-127.914
-128.323
-128.65
-128.889
-129.036
-129.084
-129.03
-128.867
-128.593
-128.264
-127.948
-127.592
-127.198
-126.768
-126.305
-125.811
-125.291
-124.749
-124.187
-123.609
-123.018
-122.418
-121.81
-121.199
-120.585
-119.973
-119.364
-118.759
-118.161