/*--------------------------------*- C++ -*----------------------------------*\
| =========                 |                                                 |
| \\      /  F ield         | OpenFOAM: The Open Source CFD Toolbox           |
|  \\    /   O peration     | Version:  2306                                  |
|   \\  /    A nd           | Website:  www.openfoam.com                      |
|    \\/     M anipulation  |                                                 |
\*---------------------------------------------------------------------------*/
FoamFile
{
    version     2.0;
    format      ascii;
    arch        "LSB;label=32;scalar=64";
    class       surfaceScalarField;
    location    "1800";
    object      phi;
}
// * * * * * * * * * * * * * * * * * * * * * * * * * * * * * * * * * * * * * //

dimensions      [0 3 -1 0 0 0 0];

oriented        oriented;

internalField   nonuniform List<scalar> 
40747
(
1.02221e-05
4.65842e-06
4.06382e-06
6.15825e-06
1.23761e-05
1.02836e-05
7.50017e-06
8.93978e-06
1.49879e-05
1.70725e-05
1.05909e-05
1.18972e-05
1.81565e-05
2.52598e-05
1.3544e-05
1.52035e-05
2.20035e-05
3.51253e-05
1.64684e-05
1.9079e-05
2.66777e-05
4.70003e-05
1.943e-05
2.37162e-05
3.23628e-05
6.12758e-05
2.24742e-05
2.93185e-05
3.92853e-05
7.84101e-05
2.56376e-05
3.61219e-05
4.7726e-05
9.89366e-05
2.89539e-05
4.44098e-05
5.80343e-05
0.000123469
3.24597e-05
5.45284e-05
7.0647e-05
0.000152705
3.62014e-05
6.69053e-05
8.61129e-05
0.000187424
4.02429e-05
8.20715e-05
0.000105125
0.000228473
4.46775e-05
0.00010069
0.000128564
0.000276739
4.96453e-05
0.000123596
0.000157555
0.0003331
5.53556e-05
0.000151844
0.000193544
0.000398337
6.21185e-05
0.000186781
0.0002384
0.00047299
7.03827e-05
0.000230136
0.000294548
0.000557152
8.07786e-05
0.000284152
0.000365141
0.000650146
9.41561e-05
0.000351763
0.000454274
0.000750091
0.000111597
0.000436834
0.000567233
0.000853312
0.000134351
0.000544479
0.000710729
0.000953649
0.000163595
0.000681485
0.000893037
0.00104178
0.000199818
0.000856813
0.00112395
0.00110479
0.000241638
0.00108212
0.00141453
0.00112614
0.000284262
0.0013719
0.00177585
0.00108732
0.000318394
0.00174172
0.00221265
0.000976005
0.000329713
0.00220132
0.002714
0.00080404
0.00030332
0.00274039
0.00328444
0.00059478
0.000241907
0.00334585
0.00395765
0.000357255
0.000157342
0.00404221
0.00377848
0.000143287
7.50767e-05
0.00386074
0.00377263
-6.48326e-05
-6.63915e-06
0.00385434
0.00377307
-0.000273389
-8.8323e-05
0.00385475
0.00377976
-0.000488643
-0.000170452
0.00386189
0.0038392
-0.000720574
-0.000252122
0.00392087
0.00320616
-0.000925866
-0.0003112
0.00326524
0.00266549
-0.00109495
-0.000335872
0.00269016
0.00218607
-0.00120427
-0.000323373
0.00217357
0.00176484
-0.00124148
-0.000288268
0.00172974
0.00141375
-0.00121801
-0.000244605
0.00137009
0.0011294
-0.0011518
-0.000201655
0.00108645
0.000901935
-0.00105911
-0.000164344
0.000864624
0.000721281
-0.000952968
-0.000134181
0.000691118
0.000578343
-0.000842981
-0.000110735
0.000554897
0.000465289
-0.000735653
-9.28466e-05
0.0004474
0.00037569
-0.000634985
-7.92471e-05
0.000362091
0.000304436
-0.00054314
-6.88195e-05
0.000294008
0.000247536
-0.000461013
-6.06708e-05
0.000239388
0.000201903
-0.00038867
-5.41274e-05
0.000195359
0.000165147
-0.000325673
-4.87011e-05
0.000159721
0.000135422
-0.000271303
-4.40499e-05
0.00013077
0.000111291
-0.000224707
-3.99406e-05
0.000107181
9.16347e-05
-0.000184996
-3.62173e-05
8.79113e-05
7.55749e-05
-0.000151306
-3.27769e-05
7.21345e-05
6.24183e-05
-0.000122827
-2.95513e-05
5.91927e-05
5.16146e-05
-9.88241e-05
-2.64941e-05
4.85574e-05
4.2725e-05
-7.86435e-05
-2.35719e-05
3.98028e-05
3.53975e-05
-6.17102e-05
-2.07572e-05
3.25828e-05
2.93486e-05
-4.75249e-05
-1.80238e-05
2.66151e-05
2.43485e-05
-3.56579e-05
-1.53415e-05
2.16661e-05
2.0211e-05
-2.57413e-05
-1.26701e-05
1.75397e-05
1.6784e-05
-1.74624e-05
-9.94951e-06
1.40633e-05
1.39433e-05
-1.05558e-05
-7.07633e-06
1.10701e-05
1.15869e-05
-4.79792e-06
-3.85036e-06
8.3609e-06
9.63116e-06
5.78079e-06
2.61895e-06
3.5393e-06
2.01748e-06
6.01468e-07
1.86061e-06
1.56872e-07
1.77203e-06
8.85753e-08
1.71308e-06
5.89519e-08
1.67165e-06
4.14289e-08
1.64104e-06
3.06175e-08
1.61746e-06
2.35755e-08
1.59884e-06
1.86161e-08
1.58385e-06
1.49951e-08
1.57156e-06
1.22857e-08
1.56135e-06
1.02068e-08
1.55279e-06
8.56702e-09
1.54552e-06
7.26517e-09
1.53932e-06
6.2031e-09
1.53398e-06
5.33707e-09
1.52937e-06
4.6156e-09
1.52536e-06
4.00974e-09
1.52185e-06
3.50452e-09
1.51878e-06
3.07283e-09
1.51607e-06
2.7072e-09
1.51368e-06
2.39428e-09
1.51156e-06
2.12174e-09
1.50967e-06
1.88913e-09
1.50799e-06
1.68329e-09
1.50648e-06
1.50409e-09
1.50513e-06
1.35276e-09
1.50391e-06
1.21628e-09
1.50281e-06
1.10027e-09
1.50182e-06
9.92176e-10
1.50092e-06
8.99064e-10
1.50011e-06
8.11694e-10
1.49938e-06
7.33807e-10
1.49871e-06
6.66492e-10
1.49811e-06
6.00832e-10
1.49757e-06
5.40486e-10
1.49709e-06
4.86931e-10
1.49665e-06
4.35402e-10
1.49627e-06
3.85447e-10
1.49593e-06
3.3572e-10
1.49564e-06
2.85572e-10
1.49541e-06
2.32845e-10
1.49524e-06
1.76143e-10
1.49512e-06
1.13177e-10
1.49508e-06
4.3499e-11
1.49511e-06
-3.14858e-11
1.49523e-06
-1.20723e-10
1.49545e-06
-2.20403e-10
1.49578e-06
-3.30941e-10
1.49624e-06
-4.58221e-10
1.49685e-06
-6.01999e-10
1.49761e-06
-7.68067e-10
1.49857e-06
-9.53011e-10
1.49973e-06
-1.16588e-09
1.50114e-06
-1.40573e-09
1.50282e-06
-1.67622e-09
1.50479e-06
-1.97688e-09
1.50712e-06
-2.32238e-09
1.50982e-06
-2.70795e-09
1.51297e-06
-3.14079e-09
1.51659e-06
-3.62759e-09
1.52076e-06
-4.17072e-09
1.52557e-06
-4.80572e-09
1.52914e-06
-3.57031e-09
1.53294e-06
-3.79401e-09
1.53697e-06
-4.03675e-09
1.54126e-06
-4.28861e-09
1.5458e-06
-4.53992e-09
1.5506e-06
-4.7957e-09
1.55566e-06
-5.0602e-09
1.56101e-06
-5.34708e-09
1.56665e-06
-5.63575e-09
1.57259e-06
-5.94782e-09
1.57887e-06
-6.27483e-09
1.5855e-06
-6.62969e-09
1.59251e-06
-7.01157e-09
1.59994e-06
-7.43338e-09
1.60786e-06
-7.91329e-09
1.61631e-06
-8.44778e-09
1.62541e-06
-9.10246e-09
1.63524e-06
-9.83097e-09
1.64614e-06
-1.08952e-08
1.65834e-06
-1.21986e-08
1.67138e-06
-1.30376e-08
1.69125e-06
-1.98696e-08
1.70587e-06
-1.46239e-08
1.74582e-06
-3.99433e-08
-7.50313e-07
2.49613e-06
5.80927e-06
6.66981e-06
4.79519e-06
1.61554e-06
4.49461e-06
4.57455e-07
4.32061e-06
2.62573e-07
4.20297e-06
1.76596e-07
4.1196e-06
1.24794e-07
4.05765e-06
9.25713e-08
4.00974e-06
7.14862e-08
3.97178e-06
5.65676e-08
3.94114e-06
4.56387e-08
3.91598e-06
3.74421e-08
3.89505e-06
3.11403e-08
3.87745e-06
2.61615e-08
3.86252e-06
2.22029e-08
3.84975e-06
1.89699e-08
3.83876e-06
1.63307e-08
3.82924e-06
1.41304e-08
3.82097e-06
1.2281e-08
3.81374e-06
1.07377e-08
3.80739e-06
9.41837e-09
3.8018e-06
8.3002e-09
3.79685e-06
7.34274e-09
3.79247e-06
6.50873e-09
3.78856e-06
5.79625e-09
3.78508e-06
5.16606e-09
3.78197e-06
4.61686e-09
3.77917e-06
4.15275e-09
3.77665e-06
3.7345e-09
3.77437e-06
3.37855e-09
3.77232e-06
3.04713e-09
3.77046e-06
2.76125e-09
3.76878e-06
2.4937e-09
3.76726e-06
2.25428e-09
3.76587e-06
2.04739e-09
3.76463e-06
1.84623e-09
3.76351e-06
1.66043e-09
3.7625e-06
1.49541e-09
3.7616e-06
1.33719e-09
3.7608e-06
1.18291e-09
3.76011e-06
1.02888e-09
3.75952e-06
8.74036e-10
3.75905e-06
7.10872e-10
3.75869e-06
5.35198e-10
3.75846e-06
3.3976e-10
3.75838e-06
1.22983e-10
3.75846e-06
-1.09865e-10
3.75873e-06
-3.87615e-10
3.75921e-06
-6.98627e-10
3.75992e-06
-1.04328e-09
3.7609e-06
-1.44042e-09
3.76219e-06
-1.88901e-09
3.76383e-06
-2.40784e-09
3.76586e-06
-2.98522e-09
3.76835e-06
-3.6489e-09
3.77134e-06
-4.39707e-09
3.77491e-06
-5.24158e-09
3.77911e-06
-6.17961e-09
3.78405e-06
-7.25704e-09
3.7898e-06
-8.45754e-09
3.79647e-06
-9.81028e-09
3.80416e-06
-1.13228e-08
3.81301e-06
-1.30188e-08
3.8232e-06
-1.49877e-08
3.83075e-06
-1.11267e-08
3.8388e-06
-1.18337e-08
3.84734e-06
-1.2576e-08
3.85641e-06
-1.33582e-08
3.86601e-06
-1.41395e-08
3.87614e-06
-1.49312e-08
3.88684e-06
-1.57522e-08
3.89812e-06
-1.66329e-08
3.91002e-06
-1.75312e-08
3.92256e-06
-1.84822e-08
3.93579e-06
-1.95077e-08
3.94973e-06
-2.05696e-08
3.96451e-06
-2.17942e-08
3.98009e-06
-2.30054e-08
3.99679e-06
-2.46169e-08
4.01436e-06
-2.60195e-08
4.03367e-06
-2.84074e-08
4.05383e-06
-2.99909e-08
4.07719e-06
-3.42489e-08
4.10151e-06
-3.65156e-08
4.13009e-06
-4.16194e-08
4.16852e-06
-5.82976e-08
4.19887e-06
-4.49705e-08
4.31544e-06
-1.56517e-07
-9.83472e-07
4.54861e-06
9.1055e-06
9.46146e-06
7.84691e-06
2.87412e-06
7.42306e-06
8.8131e-07
7.17042e-06
5.1521e-07
6.99668e-06
3.50336e-07
6.87264e-06
2.48834e-07
6.78004e-06
1.85173e-07
6.70819e-06
1.43336e-07
6.65115e-06
1.13606e-07
6.60502e-06
9.17642e-08
6.56711e-06
7.53547e-08
6.53553e-06
6.27196e-08
6.50896e-06
5.27251e-08
6.4864e-06
4.47699e-08
6.4671e-06
3.82686e-08
6.45047e-06
3.29571e-08
6.43608e-06
2.85272e-08
6.42356e-06
2.48014e-08
6.4126e-06
2.16904e-08
6.40299e-06
1.90303e-08
6.39452e-06
1.67747e-08
6.38702e-06
1.48425e-08
6.38037e-06
1.31595e-08
6.37445e-06
1.17206e-08
6.36916e-06
1.04489e-08
6.36444e-06
9.33922e-09
6.36019e-06
8.40065e-09
6.35637e-06
7.55601e-09
6.35292e-06
6.8358e-09
6.3498e-06
6.16619e-09
6.34697e-06
5.58793e-09
6.34442e-06
5.04763e-09
6.34211e-06
4.56327e-09
6.34002e-06
4.14453e-09
6.33812e-06
3.73746e-09
6.33643e-06
3.36044e-09
6.3349e-06
3.02544e-09
6.33353e-06
2.704e-09
6.33232e-06
2.38977e-09
6.33128e-06
2.07555e-09
6.33039e-06
1.75857e-09
6.32968e-06
1.42431e-09
6.32915e-06
1.0639e-09
6.32883e-06
6.62722e-10
6.32874e-06
2.1582e-10
6.32889e-06
-2.64074e-10
6.32934e-06
-8.35769e-10
6.33012e-06
-1.48042e-09
6.33128e-06
-2.19451e-09
6.33285e-06
-3.01682e-09
6.33491e-06
-3.94733e-09
6.33753e-06
-5.02268e-09
6.34076e-06
-6.2206e-09
6.34471e-06
-7.59652e-09
6.34946e-06
-9.1477e-09
6.35512e-06
-1.09e-08
6.36179e-06
-1.2846e-08
6.36961e-06
-1.50803e-08
6.37873e-06
-1.75674e-08
6.38929e-06
-2.03759e-08
6.40148e-06
-2.35077e-08
6.41549e-06
-2.70309e-08
6.4316e-06
-3.10991e-08
6.44356e-06
-2.30807e-08
6.45629e-06
-2.45604e-08
6.46979e-06
-2.60797e-08
6.48414e-06
-2.77e-08
6.49932e-06
-2.93216e-08
6.51535e-06
-3.0959e-08
6.53226e-06
-3.26622e-08
6.5501e-06
-3.44694e-08
6.56891e-06
-3.63408e-08
6.58871e-06
-3.82818e-08
6.60963e-06
-4.0432e-08
6.63163e-06
-4.25655e-08
6.65502e-06
-4.51784e-08
6.67954e-06
-4.75273e-08
6.70599e-06
-5.10683e-08
6.73355e-06
-5.358e-08
6.76419e-06
-5.90423e-08
6.79561e-06
-6.14077e-08
6.83267e-06
-7.13074e-08
6.87026e-06
-7.41092e-08
6.91551e-06
-8.68665e-08
6.9738e-06
-1.16585e-07
7.01907e-06
-9.0236e-08
7.20896e-06
-3.4641e-07
-9.23457e-07
7.14895e-06
1.26618e-05
1.20032e-05
1.12262e-05
4.3097e-06
1.06838e-05
1.42369e-06
1.03493e-05
8.49673e-07
1.0115e-05
5.84638e-07
9.94634e-06
4.17512e-07
9.81982e-06
3.11693e-07
9.72134e-06
2.41824e-07
9.64299e-06
1.91954e-07
9.57954e-06
1.55212e-07
9.52733e-06
1.27561e-07
9.48381e-06
1.06241e-07
9.44717e-06
8.93596e-08
9.41603e-06
7.59092e-08
9.38939e-06
6.49111e-08
9.36643e-06
5.59194e-08
9.34654e-06
4.84183e-08
9.32924e-06
4.2106e-08
9.31409e-06
3.68324e-08
9.3008e-06
3.23228e-08
9.28908e-06
2.8497e-08
9.2787e-06
2.52188e-08
9.2695e-06
2.23638e-08
9.2613e-06
1.99207e-08
9.25399e-06
1.77634e-08
9.24745e-06
1.58789e-08
9.24157e-06
1.42832e-08
9.23628e-06
1.28496e-08
9.23149e-06
1.16246e-08
9.22717e-06
1.04875e-08
9.22325e-06
9.50448e-09
9.21971e-06
8.58752e-09
9.21651e-06
7.76426e-09
9.21361e-06
7.05196e-09
9.21098e-06
6.35986e-09
9.20863e-06
5.71723e-09
9.20651e-06
5.146e-09
9.20462e-06
4.59753e-09
9.20295e-06
4.06017e-09
9.2015e-06
3.52242e-09
9.20028e-06
2.97802e-09
9.1993e-06
2.4038e-09
9.19858e-06
1.78403e-09
9.19815e-06
1.09409e-09
9.19805e-06
3.22591e-10
9.19829e-06
-5.06563e-10
9.19894e-06
-1.48997e-09
9.20007e-06
-2.60742e-09
9.20172e-06
-3.84677e-09
9.20398e-06
-5.27073e-09
9.20692e-06
-6.88504e-09
9.21064e-06
-8.74903e-09
9.21525e-06
-1.08276e-08
9.22087e-06
-1.32131e-08
9.22763e-06
-1.59024e-08
9.23567e-06
-1.89424e-08
9.24514e-06
-2.23183e-08
9.25625e-06
-2.61916e-08
9.26919e-06
-3.05008e-08
9.28419e-06
-3.53731e-08
9.30148e-06
-4.07975e-08
9.32136e-06
-4.69121e-08
9.3442e-06
-5.39407e-08
9.36115e-06
-4.00239e-08
9.3792e-06
-4.26059e-08
9.39833e-06
-4.5212e-08
9.41864e-06
-4.80099e-08
9.44014e-06
-5.08193e-08
9.46283e-06
-5.36473e-08
9.48677e-06
-5.65966e-08
9.51199e-06
-5.9693e-08
9.53859e-06
-6.29417e-08
9.56656e-06
-6.62497e-08
9.59613e-06
-6.99974e-08
9.62715e-06
-7.35819e-08
9.66016e-06
-7.8189e-08
9.69465e-06
-8.20169e-08
9.73195e-06
-8.83683e-08
9.77056e-06
-9.21885e-08
9.81368e-06
-1.02163e-07
9.85748e-06
-1.05205e-07
9.90931e-06
-1.23132e-07
9.96143e-06
-1.26229e-07
1.00243e-05
-1.49728e-07
1.01026e-05
-1.94854e-07
1.01673e-05
-1.54998e-07
1.03945e-05
-5.73535e-07
-8.3875e-07
1.03097e-05
1.6775e-05
1.43072e-05
1.52062e-05
5.87856e-06
1.45469e-05
2.08298e-06
1.41232e-05
1.27341e-06
1.38197e-05
8.88104e-07
1.35989e-05
6.38284e-07
1.34323e-05
4.78256e-07
1.33022e-05
3.71986e-07
1.31984e-05
2.95765e-07
1.31142e-05
2.39425e-07
1.30448e-05
1.96944e-07
1.29869e-05
1.64139e-07
1.29381e-05
1.38134e-07
1.28966e-05
1.17393e-07
1.28611e-05
1.00424e-07
1.28305e-05
8.65406e-08
1.2804e-05
7.4956e-08
1.27809e-05
6.5202e-08
1.27606e-05
5.70482e-08
1.27429e-05
5.00756e-08
1.27272e-05
4.41569e-08
1.27134e-05
3.9084e-08
1.27011e-05
3.46667e-08
1.26901e-05
3.08832e-08
1.26803e-05
2.75454e-08
1.26716e-05
2.46265e-08
1.26637e-05
2.2152e-08
1.26566e-05
1.99326e-08
1.26502e-05
1.8032e-08
1.26444e-05
1.62709e-08
1.26392e-05
1.47466e-08
1.26345e-05
1.33276e-08
1.26302e-05
1.20515e-08
1.26263e-05
1.09464e-08
1.26228e-05
9.87374e-09
1.26196e-05
8.87509e-09
1.26168e-05
7.98726e-09
1.26142e-05
7.13465e-09
1.2612e-05
6.2974e-09
1.26101e-05
5.45929e-09
1.26084e-05
4.60839e-09
1.26071e-05
3.711e-09
1.26062e-05
2.74196e-09
1.26056e-05
1.66338e-09
1.26055e-05
4.53806e-10
1.26058e-05
-8.48966e-10
1.26067e-05
-2.38364e-09
1.26082e-05
-4.13969e-09
1.26105e-05
-6.09346e-09
1.26135e-05
-8.33096e-09
1.26175e-05
-1.08711e-08
1.26226e-05
-1.38022e-08
1.26288e-05
-1.70737e-08
1.26364e-05
-2.08246e-08
1.26456e-05
-2.5053e-08
1.26565e-05
-2.98348e-08
1.26693e-05
-3.51457e-08
1.26844e-05
-4.12337e-08
1.27019e-05
-4.80038e-08
1.27222e-05
-5.56647e-08
1.27455e-05
-6.41838e-08
1.27724e-05
-7.37988e-08
1.28033e-05
-8.48058e-08
1.28262e-05
-6.29103e-08
1.28506e-05
-6.69874e-08
1.28764e-05
-7.10454e-08
1.29038e-05
-7.54131e-08
1.29328e-05
-7.98157e-08
1.29634e-05
-8.42354e-08
1.29957e-05
-8.88552e-08
1.30296e-05
-9.36557e-08
1.30654e-05
-9.87481e-08
1.3103e-05
-1.03848e-07
1.31428e-05
-1.09736e-07
1.31844e-05
-1.15189e-07
1.32287e-05
-1.22481e-07
1.32748e-05
-1.28149e-07
1.33247e-05
-1.38296e-07
1.33762e-05
-1.43625e-07
1.34337e-05
-1.59656e-07
1.34918e-05
-1.63314e-07
1.35603e-05
-1.91614e-07
1.3629e-05
-1.94937e-07
1.37118e-05
-2.32571e-07
1.38105e-05
-2.93488e-07
1.39041e-05
-2.48599e-07
1.41324e-05
-8.01858e-07
-8.90109e-07
1.41838e-05
2.1681e-05
1.63424e-05
2.00194e-05
7.54016e-06
1.92493e-05
2.85305e-06
1.87293e-05
1.79346e-06
1.83466e-05
1.27074e-06
1.80645e-05
9.20391e-07
1.78501e-05
6.92691e-07
1.76817e-05
5.40383e-07
1.7547e-05
4.30509e-07
1.74374e-05
3.48976e-07
1.7347e-05
2.87351e-07
1.72715e-05
2.39675e-07
1.72078e-05
2.01832e-07
1.71535e-05
1.71613e-07
1.71071e-05
1.46873e-07
1.7067e-05
1.26614e-07
1.70323e-05
1.09705e-07
1.7002e-05
9.54587e-08
1.69755e-05
8.35422e-08
1.69522e-05
7.33508e-08
1.69317e-05
6.46954e-08
1.69135e-05
5.72741e-08
1.68974e-05
5.08129e-08
1.6883e-05
4.52732e-08
1.68701e-05
4.03916e-08
1.68586e-05
3.61169e-08
1.68483e-05
3.24885e-08
1.6839e-05
2.92407e-08
1.68306e-05
2.64518e-08
1.6823e-05
2.38728e-08
1.68161e-05
2.16378e-08
1.68099e-05
1.95619e-08
1.68042e-05
1.76918e-08
1.67991e-05
1.6071e-08
1.67945e-05
1.44998e-08
1.67903e-05
1.30329e-08
1.67866e-05
1.17289e-08
1.67832e-05
1.04771e-08
1.67803e-05
9.24479e-09
1.67777e-05
8.01126e-09
1.67756e-05
6.75614e-09
1.67739e-05
5.43315e-09
1.67726e-05
4.00459e-09
1.67719e-05
2.41516e-09
1.67717e-05
6.29182e-10
1.67721e-05
-1.30079e-09
1.67733e-05
-3.55634e-09
1.67753e-05
-6.15034e-09
1.67783e-05
-9.05049e-09
1.67823e-05
-1.23608e-08
1.67876e-05
-1.6121e-08
1.67942e-05
-2.04582e-08
1.68025e-05
-2.53023e-08
1.68125e-05
-3.08509e-08
1.68245e-05
-3.71048e-08
1.68389e-05
-4.41793e-08
1.68558e-05
-5.20382e-08
1.68756e-05
-6.10373e-08
1.68986e-05
-7.10411e-08
1.69253e-05
-8.2366e-08
1.69561e-05
-9.49477e-08
1.69915e-05
-1.09159e-07
1.7032e-05
-1.25366e-07
1.70621e-05
-9.29704e-08
1.70941e-05
-9.90161e-08
1.7128e-05
-1.04964e-07
1.7164e-05
-1.11361e-07
1.7202e-05
-1.17836e-07
1.72421e-05
-1.24318e-07
1.72843e-05
-1.3111e-07
1.73288e-05
-1.38096e-07
1.73756e-05
-1.45576e-07
1.74247e-05
-1.52955e-07
1.74766e-05
-1.61612e-07
1.75308e-05
-1.69402e-07
1.75885e-05
-1.80169e-07
1.76484e-05
-1.88079e-07
1.77133e-05
-2.03121e-07
1.77798e-05
-2.10192e-07
1.78541e-05
-2.3393e-07
1.7929e-05
-2.38225e-07
1.80167e-05
-2.79271e-07
1.81045e-05
-2.82787e-07
1.82108e-05
-3.38793e-07
1.83302e-05
-4.12903e-07
1.84632e-05
-3.81654e-07
1.8672e-05
-1.01059e-06
-1.1141e-06
1.8896e-05
2.7613e-05
1.8048e-05
2.5903e-05
9.2501e-06
2.50363e-05
3.7198e-06
2.44159e-05
2.41382e-06
2.39441e-05
1.74252e-06
2.35904e-05
1.27416e-06
2.33188e-05
9.642e-07
2.31043e-05
7.5495e-07
2.29319e-05
6.02931e-07
2.27913e-05
4.89572e-07
2.2675e-05
4.03627e-07
2.25777e-05
3.36987e-07
2.24955e-05
2.84001e-07
2.24255e-05
2.41627e-07
2.23655e-05
2.06906e-07
2.23136e-05
1.78444e-07
2.22686e-05
1.5468e-07
2.22295e-05
1.34644e-07
2.21951e-05
1.17872e-07
2.2165e-05
1.03525e-07
2.21383e-05
9.13335e-08
2.21147e-05
8.08753e-08
2.20938e-05
7.17714e-08
2.20751e-05
6.39572e-08
2.20584e-05
5.70797e-08
2.20435e-05
5.10478e-08
2.203e-05
4.59217e-08
2.20179e-05
4.13429e-08
2.2007e-05
3.73993e-08
2.19971e-05
3.37596e-08
2.19881e-05
3.06017e-08
2.198e-05
2.76762e-08
2.19727e-05
2.50353e-08
2.1966e-05
2.27448e-08
2.196e-05
2.05282e-08
2.19546e-05
1.84527e-08
2.19497e-05
1.66079e-08
2.19453e-05
1.48387e-08
2.19415e-05
1.30925e-08
2.19382e-05
1.1345e-08
2.19354e-05
9.56407e-09
2.19331e-05
7.68852e-09
2.19314e-05
5.66439e-09
2.19304e-05
3.41381e-09
2.19302e-05
8.82092e-10
2.19308e-05
-1.86462e-09
2.19323e-05
-5.05038e-09
2.19348e-05
-8.72254e-09
2.19386e-05
-1.28518e-08
2.19438e-05
-1.75544e-08
2.19506e-05
-2.28935e-08
2.19592e-05
-2.90503e-08
2.19698e-05
-3.59303e-08
2.19828e-05
-4.3803e-08
2.19983e-05
-5.26742e-08
2.20169e-05
-6.27106e-08
2.20387e-05
-7.38628e-08
2.20643e-05
-8.66184e-08
2.2094e-05
-1.00792e-07
2.21285e-05
-1.16841e-07
2.21682e-05
-1.34655e-07
2.22139e-05
-1.54788e-07
2.22662e-05
-1.77662e-07
2.23049e-05
-1.31704e-07
2.23462e-05
-1.40289e-07
2.23899e-05
-1.48655e-07
2.24361e-05
-1.57623e-07
2.2485e-05
-1.66734e-07
2.25366e-05
-1.75836e-07
2.25908e-05
-1.8539e-07
2.26479e-05
-1.95122e-07
2.27079e-05
-2.05624e-07
2.27708e-05
-2.15846e-07
2.28372e-05
-2.27995e-07
2.29064e-05
-2.38662e-07
2.29801e-05
-2.53794e-07
2.30564e-05
-2.64416e-07
2.31388e-05
-2.85548e-07
2.32233e-05
-2.94682e-07
2.33173e-05
-3.27853e-07
2.3412e-05
-3.32933e-07
2.35219e-05
-3.89179e-07
2.36319e-05
-3.92821e-07
2.37655e-05
-4.72391e-07
2.39069e-05
-5.54304e-07
2.40873e-05
-5.62027e-07
2.42786e-05
-1.20189e-06
-1.44892e-06
2.46134e-05
3.48319e-05
1.9338e-05
3.31256e-05
1.09564e-05
3.21869e-05
4.65851e-06
3.14682e-05
3.13253e-06
3.08991e-05
2.31163e-06
3.04631e-05
1.71014e-06
3.01243e-05
1.30297e-06
2.98544e-05
1.02486e-06
2.96363e-05
8.2103e-07
2.94578e-05
6.68104e-07
2.93097e-05
5.51696e-07
2.91855e-05
4.61174e-07
2.90805e-05
3.89044e-07
2.89908e-05
3.31256e-07
2.89139e-05
2.8385e-07
2.88474e-05
2.44936e-07
2.87896e-05
2.1243e-07
2.87393e-05
1.85e-07
2.86951e-05
1.62018e-07
2.86563e-05
1.42351e-07
2.8622e-05
1.25629e-07
2.85916e-05
1.11276e-07
2.85646e-05
9.87824e-08
2.85405e-05
8.80454e-08
2.8519e-05
7.86082e-08
2.84997e-05
7.03163e-08
2.84824e-05
6.32605e-08
2.84668e-05
5.69728e-08
2.84526e-05
5.15385e-08
2.84399e-05
4.65334e-08
2.84283e-05
4.21852e-08
2.84178e-05
3.81687e-08
2.84083e-05
3.45353e-08
2.83997e-05
3.13813e-08
2.83919e-05
2.83355e-08
2.83848e-05
2.54751e-08
2.83785e-05
2.29332e-08
2.83729e-05
2.04988e-08
2.83679e-05
1.80899e-08
2.83635e-05
1.56804e-08
2.83599e-05
1.32217e-08
2.83569e-05
1.06359e-08
2.83548e-05
7.84804e-09
2.83534e-05
4.75126e-09
2.8353e-05
1.26637e-09
2.83537e-05
-2.52964e-09
2.83556e-05
-6.90512e-09
2.83588e-05
-1.1947e-08
2.83636e-05
-1.76459e-08
2.83702e-05
-2.41323e-08
2.83788e-05
-3.14896e-08
2.83897e-05
-3.99691e-08
2.84032e-05
-4.94486e-08
2.84197e-05
-6.02851e-08
2.84395e-05
-7.24916e-08
2.84631e-05
-8.63013e-08
2.84909e-05
-1.01651e-07
2.85235e-05
-1.19186e-07
2.85613e-05
-1.38661e-07
2.86052e-05
-1.60712e-07
2.86557e-05
-1.85168e-07
2.87138e-05
-2.12817e-07
2.87802e-05
-2.44121e-07
2.88294e-05
-1.80893e-07
2.88818e-05
-1.927e-07
2.89373e-05
-2.0412e-07
2.8996e-05
-2.16299e-07
2.9058e-05
-2.2871e-07
2.91232e-05
-2.41084e-07
2.91919e-05
-2.54095e-07
2.9264e-05
-2.67226e-07
2.93399e-05
-2.81484e-07
2.94192e-05
-2.95204e-07
2.95029e-05
-3.11666e-07
2.95901e-05
-3.25843e-07
2.96826e-05
-3.46323e-07
2.97784e-05
-3.60237e-07
2.98816e-05
-3.8871e-07
2.99873e-05
-4.00396e-07
3.01042e-05
-4.44725e-07
3.02222e-05
-4.50966e-07
3.0358e-05
-5.24943e-07
3.04939e-05
-5.28667e-07
3.0659e-05
-6.37525e-07
3.08256e-05
-7.20865e-07
3.10556e-05
-7.92079e-07
3.12523e-05
-1.39855e-06
-1.82096e-06
3.16243e-05
4.36457e-05
2.01021e-05
4.20049e-05
1.25972e-05
4.10314e-05
5.63197e-06
4.02254e-05
3.93856e-06
3.95549e-05
2.98212e-06
3.90273e-05
2.23772e-06
3.86108e-05
1.71946e-06
3.82755e-05
1.36018e-06
3.80026e-05
1.09395e-06
3.7778e-05
8.92649e-07
3.75911e-05
7.38621e-07
3.74339e-05
6.18402e-07
3.73006e-05
5.22337e-07
3.71866e-05
4.45198e-07
3.70887e-05
3.81815e-07
3.70039e-05
3.297e-07
3.69302e-05
2.86137e-07
3.68659e-05
2.49335e-07
3.68094e-05
2.18469e-07
3.67597e-05
1.92039e-07
3.67158e-05
1.6955e-07
3.66769e-05
1.50234e-07
3.66422e-05
1.3342e-07
3.66113e-05
1.18949e-07
3.65837e-05
1.06249e-07
3.6559e-05
9.50666e-08
3.65367e-05
8.55385e-08
3.65166e-05
7.70691e-08
3.64984e-05
6.97204e-08
3.6482e-05
6.29663e-08
3.64671e-05
5.70905e-08
3.64536e-05
5.16802e-08
3.64413e-05
4.67752e-08
3.64302e-05
4.25135e-08
3.64201e-05
3.84081e-08
3.64111e-05
3.45411e-08
3.64029e-05
3.11054e-08
3.63956e-05
2.78209e-08
3.63891e-05
2.45627e-08
3.63835e-05
2.13058e-08
3.63787e-05
1.798e-08
3.63749e-05
1.44877e-08
3.6372e-05
1.07284e-08
3.63702e-05
6.55798e-09
3.63696e-05
1.86614e-09
3.63703e-05
-3.26297e-09
3.63726e-05
-9.1476e-09
3.63766e-05
-1.59168e-08
3.63825e-05
-2.35923e-08
3.63907e-05
-3.23364e-08
3.64015e-05
-4.22494e-08
3.64152e-05
-5.36615e-08
3.64321e-05
-6.64227e-08
3.64529e-05
-8.09968e-08
3.64778e-05
-9.74057e-08
3.65074e-05
-1.15967e-07
3.65424e-05
-1.36606e-07
3.65834e-05
-1.60151e-07
3.6631e-05
-1.86288e-07
3.66862e-05
-2.15878e-07
3.67497e-05
-2.48666e-07
3.68226e-05
-2.85739e-07
3.69061e-05
-3.27583e-07
3.69678e-05
-2.42622e-07
3.70336e-05
-2.58461e-07
3.71032e-05
-2.73695e-07
3.71767e-05
-2.89838e-07
3.72543e-05
-3.06328e-07
3.7336e-05
-3.2274e-07
3.74219e-05
-3.40016e-07
3.7512e-05
-3.57307e-07
3.76067e-05
-3.7616e-07
3.77056e-05
-3.94145e-07
3.78098e-05
-4.15836e-07
3.79182e-05
-4.34282e-07
3.80331e-05
-4.6116e-07
3.81519e-05
-4.79113e-07
3.82794e-05
-5.16179e-07
3.84102e-05
-5.31185e-07
3.85538e-05
-5.88312e-07
3.86993e-05
-5.96429e-07
3.8865e-05
-6.90622e-07
3.9031e-05
-6.94712e-07
3.92316e-05
-8.38136e-07
3.94293e-05
-9.18521e-07
3.97067e-05
-1.06948e-06
3.99367e-05
-1.62854e-06
-2.19943e-06
4.03151e-05
5.44258e-05
2.02046e-05
5.29239e-05
1.40992e-05
5.19665e-05
6.58928e-06
5.10966e-05
4.80853e-06
5.03279e-05
3.75077e-06
4.97026e-05
2.863e-06
4.91989e-05
2.22315e-06
4.87879e-05
1.7712e-06
4.84502e-05
1.43162e-06
4.81706e-05
1.17232e-06
4.79366e-05
9.72579e-07
4.77391e-05
8.15935e-07
4.75711e-05
6.90301e-07
4.74272e-05
5.89123e-07
4.73032e-05
5.0581e-07
4.71957e-05
4.37163e-07
4.71021e-05
3.79722e-07
4.70203e-05
3.3113e-07
4.69485e-05
2.90322e-07
4.68852e-05
2.55347e-07
4.68292e-05
2.25565e-07
4.67795e-05
1.9996e-07
4.67352e-05
1.77669e-07
4.66957e-05
1.58453e-07
4.66604e-05
1.41613e-07
4.66287e-05
1.26752e-07
4.66002e-05
1.1407e-07
4.65744e-05
1.02828e-07
4.65511e-05
9.30306e-08
4.653e-05
8.40454e-08
4.65109e-05
7.62162e-08
4.64935e-05
6.90312e-08
4.64778e-05
6.25043e-08
4.64635e-05
5.68264e-08
4.64506e-05
5.13721e-08
4.64389e-05
4.62205e-08
4.64283e-05
4.1643e-08
4.64189e-05
3.72766e-08
4.64105e-05
3.29357e-08
4.64032e-05
2.85997e-08
4.6397e-05
2.41706e-08
4.6392e-05
1.95284e-08
4.63882e-05
1.45411e-08
4.63857e-05
9.01798e-09
4.63848e-05
2.80947e-09
4.63855e-05
-3.99781e-09
4.63882e-05
-1.17807e-08
4.6393e-05
-2.07147e-08
4.64002e-05
-3.08577e-08
4.64103e-05
-4.24253e-08
4.64236e-05
-5.55436e-08
4.64406e-05
-7.06269e-08
4.64617e-05
-8.74905e-08
4.64874e-05
-1.06733e-07
4.65184e-05
-1.28385e-07
4.65553e-05
-1.52873e-07
4.65988e-05
-1.80111e-07
4.66498e-05
-2.1114e-07
4.67091e-05
-2.45565e-07
4.67778e-05
-2.84527e-07
4.68568e-05
-3.2766e-07
4.69474e-05
-3.76429e-07
4.70512e-05
-4.31327e-07
4.71279e-05
-3.19296e-07
4.72095e-05
-3.40117e-07
4.72959e-05
-3.6007e-07
4.73872e-05
-3.81063e-07
4.74834e-05
-4.02537e-07
4.75845e-05
-4.23888e-07
4.76909e-05
-4.46356e-07
4.78023e-05
-4.68691e-07
4.79192e-05
-4.93092e-07
4.80413e-05
-5.16243e-07
4.81696e-05
-5.44167e-07
4.83032e-05
-5.67809e-07
4.84442e-05
-6.02177e-07
4.85902e-05
-6.25143e-07
4.87461e-05
-6.72022e-07
4.89063e-05
-6.91471e-07
4.90809e-05
-7.6288e-07
4.92586e-05
-7.741e-07
4.94586e-05
-8.90594e-07
4.96601e-05
-8.9627e-07
4.98999e-05
-1.07788e-06
5.01367e-05
-1.15534e-06
5.04581e-05
-1.39086e-06
5.07384e-05
-1.9089e-06
-2.59013e-06
5.11292e-05
6.76258e-05
1.94842e-05
6.63487e-05
1.53762e-05
6.54724e-05
7.46556e-06
6.45771e-05
5.70389e-06
6.37244e-05
4.60343e-06
6.30015e-05
3.5859e-06
6.24041e-05
2.8205e-06
6.19082e-05
2.26713e-06
6.14958e-05
1.84399e-06
6.11513e-05
1.51683e-06
6.08612e-05
1.26263e-06
6.06151e-05
1.06205e-06
6.0405e-05
9.00393e-07
6.02244e-05
7.6972e-07
6.00684e-05
6.61813e-07
5.99329e-05
5.72658e-07
5.98147e-05
4.9795e-07
5.97112e-05
4.3464e-07
5.96201e-05
3.81387e-07
5.95398e-05
3.35689e-07
5.94686e-05
2.96736e-07
5.94054e-05
2.63208e-07
5.93491e-05
2.34011e-07
5.92987e-05
2.08794e-07
5.92536e-05
1.86726e-07
5.92132e-05
1.67205e-07
5.91767e-05
1.50517e-07
5.91438e-05
1.35764e-07
5.9114e-05
1.22848e-07
5.9087e-05
1.11027e-07
5.90625e-05
1.00707e-07
5.90403e-05
9.12698e-08
5.90201e-05
8.26814e-08
5.90018e-05
7.51981e-08
5.89851e-05
6.80318e-08
5.89701e-05
6.12473e-08
5.89565e-05
5.52161e-08
5.89443e-05
4.94768e-08
5.89335e-05
4.37617e-08
5.8924e-05
3.80579e-08
5.8916e-05
3.22313e-08
5.89094e-05
2.61374e-08
5.89043e-05
1.96057e-08
5.8901e-05
1.23887e-08
5.88995e-05
4.28672e-09
5.89001e-05
-4.61689e-09
5.89031e-05
-1.47682e-08
5.89088e-05
-2.63975e-08
5.89175e-05
-3.96012e-08
5.89298e-05
-5.46689e-08
5.8946e-05
-7.17686e-08
5.89668e-05
-9.14082e-08
5.89927e-05
-1.13358e-07
5.90243e-05
-1.38381e-07
5.90625e-05
-1.66518e-07
5.91079e-05
-1.98334e-07
5.91616e-05
-2.33733e-07
5.92244e-05
-2.73995e-07
5.92975e-05
-3.18642e-07
5.93821e-05
-3.69151e-07
5.94795e-05
-4.25011e-07
5.95912e-05
-4.88158e-07
5.9719e-05
-5.5909e-07
5.98134e-05
-4.13659e-07
5.99138e-05
-4.40568e-07
6.00201e-05
-4.66303e-07
6.01322e-05
-4.9319e-07
6.02504e-05
-5.20703e-07
6.03745e-05
-5.48041e-07
6.05049e-05
-5.76755e-07
6.06414e-05
-6.05164e-07
6.07845e-05
-6.36189e-07
6.09338e-05
-6.6556e-07
6.10905e-05
-7.00814e-07
6.12535e-05
-7.30781e-07
6.14251e-05
-7.73765e-07
6.16029e-05
-8.02985e-07
6.17918e-05
-8.60902e-07
6.19865e-05
-8.86213e-07
6.21969e-05
-9.73208e-07
6.24122e-05
-9.89462e-07
6.26512e-05
-1.12955e-06
6.28947e-05
-1.13974e-06
6.31772e-05
-1.36039e-06
6.34619e-05
-1.44009e-06
6.38261e-05
-1.75502e-06
6.41625e-05
-2.24525e-06
-3.00473e-06
6.45771e-05
8.38022e-05
1.77535e-05
8.28504e-05
1.6328e-05
8.21335e-05
8.18241e-06
8.12684e-05
6.56902e-06
8.03606e-05
5.5112e-06
7.95502e-05
4.39632e-06
7.88586e-05
3.51208e-06
7.82717e-05
2.85407e-06
7.7776e-05
2.33967e-06
7.73572e-05
1.9356e-06
7.70016e-05
1.61818e-06
7.6698e-05
1.36569e-06
7.64375e-05
1.16093e-06
7.62126e-05
9.94613e-07
7.60176e-05
8.56753e-07
7.58478e-05
7.42453e-07
7.56993e-05
6.46481e-07
7.5569e-05
5.6497e-07
7.54541e-05
4.96269e-07
7.53526e-05
4.37215e-07
7.52625e-05
3.86816e-07
7.51824e-05
3.43368e-07
7.51109e-05
3.05515e-07
7.50469e-05
2.72751e-07
7.49895e-05
2.44115e-07
7.4938e-05
2.18719e-07
7.48916e-05
1.96965e-07
7.48496e-05
1.77787e-07
7.48115e-05
1.60911e-07
7.47771e-05
1.45499e-07
7.47458e-05
1.32017e-07
7.47173e-05
1.19727e-07
7.46915e-05
1.08528e-07
7.46679e-05
9.8749e-08
7.46465e-05
8.94157e-08
7.46272e-05
8.0564e-08
7.46098e-05
7.26876e-08
7.4594e-05
6.52098e-08
7.45801e-05
5.77576e-08
7.45678e-05
5.03267e-08
7.45573e-05
4.27375e-08
7.45486e-05
3.48185e-08
7.45419e-05
2.63531e-08
7.45372e-05
1.70261e-08
7.4535e-05
6.57376e-09
7.45353e-05
-4.93114e-09
7.45385e-05
-1.80164e-08
7.45451e-05
-3.29783e-08
7.45555e-05
-4.99552e-08
7.45702e-05
-6.93323e-08
7.45897e-05
-9.13372e-08
7.46149e-05
-1.16582e-07
7.46463e-05
-1.4479e-07
7.46849e-05
-1.76913e-07
7.47314e-05
-2.13006e-07
7.47869e-05
-2.53816e-07
7.48524e-05
-2.99225e-07
7.49292e-05
-3.50781e-07
7.50185e-05
-4.07934e-07
7.51219e-05
-4.72551e-07
7.52408e-05
-5.4394e-07
7.53773e-05
-6.24617e-07
7.55333e-05
-7.15087e-07
7.56485e-05
-5.28812e-07
7.5771e-05
-5.63088e-07
7.59005e-05
-5.95851e-07
7.60372e-05
-6.2986e-07
7.61812e-05
-6.64637e-07
7.63323e-05
-6.99179e-07
7.64909e-05
-7.35315e-07
7.66567e-05
-7.71008e-07
7.68304e-05
-8.09862e-07
7.70115e-05
-8.46676e-07
7.72012e-05
-8.90478e-07
7.73985e-05
-9.28068e-07
7.76056e-05
-9.80915e-07
7.78205e-05
-1.01786e-06
7.80477e-05
-1.08806e-06
7.82825e-05
-1.12106e-06
7.8534e-05
-1.22462e-06
7.87933e-05
-1.24877e-06
7.90763e-05
-1.4126e-06
7.9369e-05
-1.43241e-06
7.96984e-05
-1.68977e-06
8.00394e-05
-1.78109e-06
8.04482e-05
-2.1638e-06
8.08415e-05
-2.63858e-06
-3.44658e-06
8.12834e-05
0.000103642
1.48019e-05
0.000103131
1.68387e-05
0.000102664
8.64909e-06
0.000101903
7.33077e-06
0.000100987
6.42718e-06
0.000100113
5.26986e-06
9.93366e-05
4.28865e-06
9.86587e-05
3.53193e-06
9.80747e-05
2.92365e-06
9.75741e-05
2.4362e-06
9.71444e-05
2.04784e-06
9.67744e-05
1.73574e-06
9.64547e-05
1.48058e-06
9.61773e-05
1.27204e-06
9.59358e-05
1.09832e-06