/*--------------------------------*- C++ -*----------------------------------*\
| =========                 |                                                 |
| \\      /  F ield         | OpenFOAM: The Open Source CFD Toolbox           |
|  \\    /   O peration     | Version:  2306                                  |
|   \\  /    A nd           | Website:  www.openfoam.com                      |
|    \\/     M anipulation  |                                                 |
\*---------------------------------------------------------------------------*/
FoamFile
{
    version     2.0;
    format      ascii;
    arch        "LSB;label=32;scalar=64";
    class       volSymmTensorField;
    location    "1800";
    object      turbulenceProperties:devReff;
}
// * * * * * * * * * * * * * * * * * * * * * * * * * * * * * * * * * * * * * //

dimensions      [0 2 -2 0 0 0 0];

internalField   nonuniform List<symmTensor> 
20540
(
(1.80901 -6.21949 -0 -1.80898 -0 -2.98966e-05)
(15.606 -15.8664 -0 -15.2648 -0 -0.341156)
(1.80542 -12.9399 -0 -1.80546 -0 4.01463e-05)
(11.419 -33.0574 -0 -11.6913 -0 0.272372)
(1.7998 -13.8681 -0 -1.7998 -0 5.70691e-06)
(8.37167 -35.5473 -0 -8.45753 -0 0.0858681)
(1.79187 -14.657 -0 -1.79186 -0 -1.09933e-05)
(6.51664 -37.7332 -0 -6.49146 -0 -0.0251787)
(1.78115 -15.2987 -0 -1.78114 -0 -6.27878e-06)
(5.33037 -39.6011 -0 -5.30862 -0 -0.0217492)
(1.76704 -15.7814 -0 -1.76704 -0 -4.29058e-06)
(4.47087 -41.1296 -0 -4.46508 -0 -0.00579056)
(1.74893 -16.1119 -0 -1.74893 -0 -4.24603e-06)
(3.79861 -42.3465 -0 -3.79771 -0 -0.000895247)
(1.72607 -16.2992 -0 -1.72607 -0 -5.98523e-06)
(3.25781 -43.2864 -0 -3.25716 -0 -0.000655595)
(1.69763 -16.3503 -0 -1.69762 -0 -9.32355e-06)
(2.8169 -43.9816 -0 -2.81613 -0 -0.000767874)
(1.66266 -16.2698 -0 -1.66265 -0 -1.47633e-05)
(2.45469 -44.4583 -0 -2.45402 -0 -0.000670853)
(1.62012 -16.0591 -0 -1.62009 -0 -2.31411e-05)
(2.15745 -44.7362 -0 -2.15688 -0 -0.000572044)
(1.56889 -15.7165 -0 -1.56886 -0 -3.32247e-05)
(1.9166 -44.8272 -0 -1.91606 -0 -0.00053626)
(1.50788 -15.2381 -0 -1.50784 -0 -3.76966e-05)
(1.72679 -44.7354 -0 -1.72626 -0 -0.000531448)
(1.43606 -14.6181 -0 -1.43602 -0 -3.75835e-05)
(1.58455 -44.4547 -0 -1.58403 -0 -0.000525463)
(1.35259 -13.851 -0 -1.35253 -0 -5.98299e-05)
(1.48745 -43.9698 -0 -1.48695 -0 -0.000502833)
(1.25662 -12.9312 -0 -1.2565 -0 -0.000116783)
(1.43301 -43.2543 -0 -1.43256 -0 -0.000449844)
(1.14736 -11.8532 -0 -1.14717 -0 -0.000181766)
(1.41757 -42.2688 -0 -1.4172 -0 -0.000372568)
(1.02495 -10.6175 -0 -1.0247 -0 -0.000247777)
(1.43475 -40.9572 -0 -1.43449 -0 -0.0002598)
(0.891067 -9.23244 -0 -0.89075 -0 -0.000317757)
(1.47359 -39.2401 -0 -1.47354 -0 -5.27011e-05)
(0.749273 -7.71562 -0 -0.748988 -0 -0.000284831)
(1.51687 -37.015 -0 -1.5171 -0 0.000233782)
(0.605393 -6.09778 -0 -0.605496 -0 0.000102831)
(1.5393 -34.1603 -0 -1.53962 -0 0.000321663)
(0.46668 -4.42727 -0 -0.467522 -0 0.000841919)
(1.50684 -30.5486 -0 -1.50651 -0 -0.000330397)
(0.337901 -2.77431 -0 -0.338729 -0 0.000827864)
(1.38146 -26.0866 -0 -1.37988 -0 -0.00158022)
(0.212959 -1.21122 -0 -0.211379 -0 -0.00158018)
(1.13801 -20.7979 -0 -1.13777 -0 -0.00024475)
(0.0671848 0.21195 -0 -0.0614579 -0 -0.00572689)
(0.793052 -14.9378 -0 -0.799884 -0 0.00683194)
(-0.12102 1.32727 -0 0.127467 -0 -0.00644637)
(0.412952 -9.05482 -0 -0.42238 -0 0.00942862)
(-0.314921 1.81022 -0 0.315713 -0 -0.000792347)
(0.0854908 -4.25328 -0 -0.0841835 -0 -0.00130729)
(-0.42494 1.58208 -0 0.426348 -0 -0.00140806)
(-0.182101 -1.44658 -0 0.185672 -0 -0.00357098)
(-0.443549 1.02776 -0 0.450465 -0 -0.00691587)
(-0.408497 0.0752837 -0 0.405662 -0 0.0028355)
(-0.420222 0.507453 -0 0.428108 -0 -0.00788608)
(-0.502371 0.442437 -0 0.496413 -0 0.00595839)
(-0.393374 0.189673 -0 0.400936 -0 -0.00756184)
(-0.52337 0.30287 -0 0.517235 -0 0.00613429)
(-0.381446 0.0434638 -0 0.389345 -0 -0.00789896)
(-0.522368 0.0880903 -0 0.515465 -0 0.0069029)
(-0.382221 -0.055725 -0 0.390089 -0 -0.0078682)
(-0.522447 -0.121116 -0 0.515478 -0 0.00696894)
(-0.395864 -0.209521 -0 0.403423 -0 -0.00755848)
(-0.522384 -0.33364 -0 0.516167 -0 0.00621655)
(-0.423553 -0.532909 -0 0.431407 -0 -0.00785425)
(-0.49636 -0.452308 -0 0.490411 -0 0.00594946)
(-0.444 -1.0402 -0 0.450845 -0 -0.00684484)
(-0.398541 -0.0490276 -0 0.395529 -0 0.00301237)
(-0.421465 -1.56158 -0 0.422758 -0 -0.00129295)
(-0.171951 1.49205 -0 0.175136 -0 -0.00318515)
(-0.308752 -1.74643 -0 0.309599 -0 -0.000847178)
(0.0935555 4.30195 -0 -0.0927737 -0 -0.000781803)
(-0.114305 -1.2169 -0 0.120866 -0 -0.00656029)
(0.420549 9.09724 -0 -0.43057 -0 0.0100215)
(0.0722478 -0.067111 -0 -0.0665697 -0 -0.00567814)
(0.80265 14.9928 -0 -0.810068 -0 0.00741803)
(0.217976 1.38163 -0 -0.216548 -0 -0.00142824)
(1.15068 20.8901 -0 -1.15082 -0 0.000137063)
(0.347159 2.98135 -0 -0.348049 -0 0.000890087)
(1.39373 26.2227 -0 -1.39249 -0 -0.0012436)
(0.484093 4.68777 -0 -0.484882 -0 0.000789342)
(1.51377 30.7358 -0 -1.51381 -0 4.11664e-05)
(0.633748 6.42674 -0 -0.633778 -0 3.07877e-05)
(1.53553 34.3985 -0 -1.53612 -0 0.000594183)
(0.790423 8.12727 -0 -0.790089 -0 -0.000334162)
(1.49701 37.3001 -0 -1.49742 -0 0.000410109)
(0.946117 9.73875 -0 -0.945755 -0 -0.000362549)
(1.43243 39.5668 -0 -1.4325 -0 6.9275e-05)
(1.09441 11.2268 -0 -1.09412 -0 -0.000289183)
(1.36748 41.3206 -0 -1.36731 -0 -0.000177153)
(1.23124 12.5686 -0 -1.23107 -0 -0.000176734)
(1.31985 42.6661 -0 -1.31953 -0 -0.000319442)
(1.35502 13.7538 -0 -1.35494 -0 -8.5114e-05)
(1.30098 43.6853 -0 -1.30058 -0 -0.000397392)
(1.46578 14.7834 -0 -1.46571 -0 -7.2409e-05)
(1.31771 44.4328 -0 -1.31728 -0 -0.000437439)
(1.5632 15.6561 -0 -1.56312 -0 -7.82889e-05)
(1.37417 44.9545 -0 -1.37372 -0 -0.000459333)
(1.64755 16.3761 -0 -1.64749 -0 -6.01205e-05)
(1.47271 45.2809 -0 -1.47223 -0 -0.000474311)
(1.71965 16.9498 -0 -1.71961 -0 -3.90653e-05)
(1.61495 45.4291 -0 -1.61447 -0 -0.000480797)
(1.7806 17.3834 -0 -1.78058 -0 -2.50599e-05)
(1.8029 45.4081 -0 -1.80241 -0 -0.000488506)
(1.83165 17.6816 -0 -1.83163 -0 -1.63928e-05)
(2.03969 45.2186 -0 -2.03916 -0 -0.000528797)
(1.87402 17.8473 -0 -1.87401 -0 -1.07197e-05)
(2.33047 44.8531 -0 -2.32984 -0 -0.000630067)
(1.90888 17.8809 -0 -1.90887 -0 -6.85998e-06)
(2.68358 44.2977 -0 -2.68286 -0 -0.00072868)
(1.93728 17.7797 -0 -1.93727 -0 -4.20933e-06)
(3.11246 43.5313 -0 -3.11183 -0 -0.000623465)
(1.96015 17.5376 -0 -1.96015 -0 -2.47439e-06)
(3.63775 42.5265 -0 -3.63686 -0 -0.000881562)
(1.97834 17.1458 -0 -1.97833 -0 -1.82092e-06)
(4.29028 41.2497 -0 -4.28453 -0 -0.0057514)
(1.99254 16.5927 -0 -1.99254 -0 -2.97663e-06)
(5.12475 39.6636 -0 -5.10328 -0 -0.0214692)
(2.00339 15.8673 -0 -2.00338 -0 -7.93567e-06)
(6.27847 37.7328 -0 -6.25378 -0 -0.0246914)
(2.01142 14.9647 -0 -2.01142 -0 5.44063e-06)
(8.08806 35.438 -0 -8.17217 -0 0.0841052)
(2.01707 13.907 -0 -2.01707 -0 -8.63182e-07)
(11.0706 32.8249 -0 -11.3367 -0 0.266141)
(2.02079 6.67241 -0 -2.02079 -0 2.73537e-06)
(15.1698 15.726 -0 -14.8379 -0 -0.331943)
(0.0133799 -15.7216 -0 -0.0138548 -0 0.000474838)
(0.00209654 -10.1766 -0 -0.00214292 -0 4.6378e-05)
(0.000551072 -9.06265 -0 -0.00056293 -0 1.18579e-05)
(0.000317491 -8.4925 -0 -0.000323389 -0 5.89758e-06)
(0.000216886 -8.12344 -0 -0.000220369 -0 3.48375e-06)
(0.000156952 -7.87054 -0 -0.000159296 -0 2.34438e-06)
(0.00011968 -7.68851 -0 -0.000121395 -0 1.71518e-06)
(9.52329e-05 -7.55048 -0 -9.65434e-05 -0 1.31042e-06)
(7.77853e-05 -7.44275 -0 -7.88238e-05 -0 1.03846e-06)
(6.48499e-05 -7.35686 -0 -6.56986e-05 -0 8.48638e-07)
(5.50213e-05 -7.28709 -0 -5.57287e-05 -0 7.07437e-07)
(4.73544e-05 -7.22953 -0 -4.7955e-05 -0 6.00663e-07)
(4.11873e-05 -7.18144 -0 -4.1703e-05 -0 5.15752e-07)
(3.62035e-05 -7.14094 -0 -3.66531e-05 -0 4.49564e-07)
(3.20449e-05 -7.10639 -0 -3.24393e-05 -0 3.94415e-07)
(2.85867e-05 -7.07691 -0 -2.89358e-05 -0 3.49126e-07)
(2.56366e-05 -7.05134 -0 -2.59479e-05 -0 3.11285e-07)
(2.30972e-05 -7.02932 -0 -2.33761e-05 -0 2.78882e-07)
(2.09381e-05 -7.01002 -0 -2.11901e-05 -0 2.52003e-07)
(1.90421e-05 -6.99322 -0 -1.927e-05 -0 2.2792e-07)
(1.7403e-05 -6.97838 -0 -1.76106e-05 -0 2.07602e-07)
(1.59664e-05 -6.96535 -0 -1.61566e-05 -0 1.90144e-07)
(1.46785e-05 -6.95375 -0 -1.48526e-05 -0 1.74083e-07)
(1.35588e-05 -6.94352 -0 -1.37192e-05 -0 1.60312e-07)
(1.25349e-05 -6.93432 -0 -1.26833e-05 -0 1.48392e-07)
(1.16199e-05 -6.92621 -0 -1.17565e-05 -0 1.36514e-07)
(1.08441e-05 -6.91887 -0 -1.09717e-05 -0 1.27616e-07)
(1.01169e-05 -6.91231 -0 -1.02364e-05 -0 1.19443e-07)
(9.49595e-06 -6.90636 -0 -9.60776e-06 -0 1.11804e-07)
(8.88452e-06 -6.901 -0 -8.98838e-06 -0 1.03857e-07)
(8.35402e-06 -6.89617 -0 -8.45144e-06 -0 9.74181e-08)
(7.82642e-06 -6.89177 -0 -7.91831e-06 -0 9.18877e-08)
(7.34126e-06 -6.88784 -0 -7.42627e-06 -0 8.50088e-08)
(6.91983e-06 -6.88424 -0 -7.00026e-06 -0 8.04348e-08)
(6.47308e-06 -6.88099 -0 -6.54933e-06 -0 7.62491e-08)
(6.04281e-06 -6.87807 -0 -6.11334e-06 -0 7.05208e-08)
(5.64987e-06 -6.87544 -0 -5.71663e-06 -0 6.67555e-08)
(5.24334e-06 -6.87307 -0 -5.30721e-06 -0 6.38761e-08)
(4.81787e-06 -6.87097 -0 -4.87619e-06 -0 5.83255e-08)
(4.35435e-06 -6.86911 -0 -4.40802e-06 -0 5.36617e-08)
(3.84517e-06 -6.86753 -0 -3.89472e-06 -0 4.95521e-08)
(3.25586e-06 -6.86618 -0 -3.30015e-06 -0 4.42829e-08)
(2.55841e-06 -6.86514 -0 -2.59796e-06 -0 3.95577e-08)
(1.7105e-06 -6.86438 -0 -1.74245e-06 -0 3.19529e-08)
(6.89577e-07 -6.86398 -0 -7.13949e-07 -0 2.43718e-08)
(-4.94779e-07 -6.86394 -0 4.79243e-07 -0 1.55364e-08)
(-2.01211e-06 -6.86431 -0 2.01014e-06 -0 1.97324e-09)
(-3.8203e-06 -6.86518 -0 3.83035e-06 -0 -1.00518e-08)
(-5.95905e-06 -6.86658 -0 5.98362e-06 -0 -2.45737e-08)
(-8.5708e-06 -6.86859 -0 8.61397e-06 -0 -4.31711e-08)
(-1.16879e-05 -6.87129 -0 1.17528e-05 -0 -6.48323e-08)
(-1.5485e-05 -6.87478 -0 1.55789e-05 -0 -9.39217e-08)
(-1.99441e-05 -6.8792 -0 2.00694e-05 -0 -1.2539e-07)
(-2.5334e-05 -6.88459 -0 2.5497e-05 -0 -1.62975e-07)
(-3.17062e-05 -6.89119 -0 3.19174e-05 -0 -2.11213e-07)
(-3.92562e-05 -6.89905 -0 3.9517e-05 -0 -2.60815e-07)
(-4.80543e-05 -6.90845 -0 4.83871e-05 -0 -3.3278e-07)
(-5.86331e-05 -6.9194 -0 5.90315e-05 -0 -3.98463e-07)
(-7.0953e-05 -6.93237 -0 7.14632e-05 -0 -5.10252e-07)
(-8.55022e-05 -6.94729 -0 8.60984e-05 -0 -5.96199e-07)
(-0.000102463 -6.96474 -0 0.000103229 -0 -7.65643e-07)
(-0.000122466 -6.98465 -0 0.000123316 -0 -8.49951e-07)
(-0.000146437 -7.00778 -0 0.00014757 -0 -1.13277e-06)
(-0.000169858 -7.02984 -0 0.000171312 -0 -1.45418e-06)
(-0.0001904 -7.04894 -0 0.00019177 -0 -1.37018e-06)
(-0.00021282 -7.0691 -0 0.000214578 -0 -1.75739e-06)
(-0.000237986 -7.09061 -0 0.00023993 -0 -1.94396e-06)
(-0.000265102 -7.11341 -0 0.000267278 -0 -2.1759e-06)
(-0.000294618 -7.13755 -0 0.000297102 -0 -2.48395e-06)
(-0.000327193 -7.16301 -0 0.000329938 -0 -2.74508e-06)
(-0.000363747 -7.18992 -0 0.000366933 -0 -3.18649e-06)
(-0.000403645 -7.21833 -0 0.00040709 -0 -3.44447e-06)
(-0.000448013 -7.24831 -0 0.000452155 -0 -4.14178e-06)
(-0.000498118 -7.27989 -0 0.000502345 -0 -4.22749e-06)
(-0.000552772 -7.31343 -0 0.000558392 -0 -5.61952e-06)
(-0.000617644 -7.34848 -0 0.000622533 -0 -4.88906e-06)
(-0.000685228 -7.38644 -0 0.000693493 -0 -8.26538e-06)
(-0.000775674 -7.42516 -0 0.000780318 -0 -4.64424e-06)
(-0.000857851 -7.46938 -0 0.000871942 -0 -1.40909e-05)
(-0.000999672 -7.51152 -0 0.00100033 -0 -6.62541e-07)
(-0.00108858 -7.56628 -0 0.00111787 -0 -2.92956e-05)
(-0.00136343 -7.60959 -0 0.00134707 -0 1.63517e-05)
(-0.00143713 -7.68644 -0 0.00150978 -0 -7.2648e-05)
(-0.00192765 -7.7243 -0 0.00185247 -0 7.51861e-05)
(-0.00248933 -7.84172 -0 0.0026834 -0 -0.000194066)
(-0.00271376 -7.89801 -0 0.00250037 -0 0.000213389)
(-0.00574284 -8.03629 -0 0.00641159 -0 -0.000668744)
(-0.11278 -8.31796 1.84631e-21 0.103288 -0 0.00949246)
(0.0160579 -10.7742 -0 -0.0151182 -0 -0.000939672)
(0.00422416 -7.18456 -0 -0.00420767 -0 -1.64812e-05)
(0.00123168 -6.44589 -0 -0.00123334 -0 1.65853e-06)
(0.000719145 -6.06494 -0 -0.000720903 -0 1.75831e-06)
(0.00049576 -5.8182 -0 -0.00049726 -0 1.50006e-06)
(0.000359904 -5.64804 -0 -0.000361081 -0 1.17671e-06)
(0.00027493 -5.52518 -0 -0.000275893 -0 9.6232e-07)
(0.000219071 -5.43192 -0 -0.000219865 -0 7.93629e-07)
(0.000179075 -5.35902 -0 -0.000179735 -0 6.60042e-07)
(0.000149367 -5.30081 -0 -0.000149927 -0 5.59432e-07)
(0.000126781 -5.2535 -0 -0.000127262 -0 4.81125e-07)
(0.000109146 -5.21442 -0 -0.000109564 -0 4.17464e-07)
(9.49577e-05 -5.18177 -0 -9.53243e-05 -0 3.66596e-07)
(8.34814e-05 -5.15425 -0 -8.3805e-05 -0 3.23553e-07)
(7.39065e-05 -5.13076 -0 -7.41945e-05 -0 2.88013e-07)
(6.5942e-05 -5.11072 -0 -6.6201e-05 -0 2.58982e-07)
(5.91458e-05 -5.09332 -0 -5.93785e-05 -0 2.32763e-07)
(5.32952e-05 -5.07834 -0 -5.35061e-05 -0 2.10862e-07)
(4.83165e-05 -5.06521 -0 -4.85073e-05 -0 1.90825e-07)
(4.39493e-05 -5.05378 -0 -4.41246e-05 -0 1.75263e-07)
(4.01693e-05 -5.04368 -0 -4.03294e-05 -0 1.60136e-07)
(3.68566e-05 -5.03481 -0 -3.70041e-05 -0 1.47516e-07)
(3.38886e-05 -5.02691 -0 -3.40248e-05 -0 1.36187e-07)
(3.13059e-05 -5.01995 -0 -3.14325e-05 -0 1.2663e-07)
(2.89444e-05 -5.01369 -0 -2.90606e-05 -0 1.1616e-07)
(2.68371e-05 -5.00816 -0 -2.6947e-05 -0 1.09878e-07)
(2.50428e-05 -5.00316 -0 -2.51451e-05 -0 1.02305e-07)
(2.33644e-05 -4.99869 -0 -2.34587e-05 -0 9.43215e-08)
(2.19308e-05 -4.99465 -0 -2.20203e-05 -0 8.9554e-08)
(2.05237e-05 -4.99099 -0 -2.06092e-05 -0 8.55138e-08)
(1.92982e-05 -4.98771 -0 -1.93783e-05 -0 8.00648e-08)
(1.80815e-05 -4.98471 -0 -1.81563e-05 -0 7.48469e-08)
(1.69632e-05 -4.98203 -0 -1.70346e-05 -0 7.14047e-08)
(1.5986e-05 -4.97957 -0 -1.6052e-05 -0 6.59904e-08)
(1.49539e-05 -4.97736 -0 -1.50158e-05 -0 6.19104e-08)
(1.39563e-05 -4.97536 -0 -1.40137e-05 -0 5.74027e-08)
(1.304e-05 -4.97357 -0 -1.30916e-05 -0 5.16272e-08)
(1.20922e-05 -4.97194 -0 -1.21391e-05 -0 4.68192e-08)
(1.10983e-05 -4.9705 -0 -1.11399e-05 -0 4.1624e-08)
(1.00089e-05 -4.96922 -0 -1.00436e-05 -0 3.47065e-08)
(8.80922e-06 -4.96811 -0 -8.83685e-06 -0 2.76281e-08)
(7.42066e-06 -4.96717 -0 -7.43839e-06 -0 1.77329e-08)
(5.76995e-06 -4.96641 -0 -5.77562e-06 -0 5.66844e-09)
(3.7632e-06 -4.96584 -0 -3.75294e-06 -0 -1.02618e-08)
(1.33683e-06 -4.9655 -0 -1.30808e-06 -0 -2.87473e-08)
(-1.47326e-06 -4.96538 -0 1.52353e-06 -0 -5.02765e-08)
(-5.073e-06 -4.96551 -0 5.15214e-06 -0 -7.91371e-08)
(-9.39747e-06 -4.96596 -0 9.51622e-06 -0 -1.18754e-07)
(-1.44963e-05 -4.96674 -0 1.46571e-05 -0 -1.60731e-07)
(-2.07251e-05 -4.96789 -0 2.09386e-05 -0 -2.13557e-07)
(-2.81745e-05 -4.96946 -0 2.84546e-05 -0 -2.80167e-07)
(-3.72306e-05 -4.97152 -0 3.75859e-05 -0 -3.55328e-07)
(-4.78817e-05 -4.97414 -0 4.83326e-05 -0 -4.50931e-07)
(-6.07224e-05 -4.97734 -0 6.12755e-05 -0 -5.53109e-07)
(-7.5918e-05 -4.98129 -0 7.66086e-05 -0 -6.90573e-07)
(-9.39383e-05 -4.986 -0 9.47824e-05 -0 -8.44135e-07)
(-0.000114915 -4.99163 -0 0.000115949 -0 -1.03349e-06)
(-0.00014012 -4.99819 -0 0.00014136 -0 -1.24001e-06)
(-0.000169439 -5.00597 -0 0.00017095 -0 -1.51075e-06)
(-0.00020413 -5.0149 -0 0.000205918 -0 -1.78706e-06)
(-0.000244454 -5.02536 -0 0.000246652 -0 -2.19771e-06)
(-0.000292098 -5.03726 -0 0.000294638 -0 -2.54023e-06)
(-0.000348846 -5.05107 -0 0.000351963 -0 -3.11737e-06)
(-0.000404285 -5.06418 -0 0.000407977 -0 -3.6922e-06)
(-0.000453251 -5.07553 -0 0.000457026 -0 -3.77543e-06)
(-0.000505932 -5.08752 -0 0.00051036 -0 -4.42779e-06)
(-0.000565527 -5.10023 -0 0.000570439 -0 -4.91215e-06)
(-0.000629815 -5.11366 -0 0.000635287 -0 -5.47154e-06)
(-0.000699582 -5.12783 -0 0.000705708 -0 -6.12604e-06)
(-0.000776651 -5.14271 -0 0.000783432 -0 -6.78022e-06)
(-0.000862423 -5.15839 -0 0.000870025 -0 -7.60216e-06)
(-0.000956894 -5.17488 -0 0.000965264 -0 -8.36962e-06)
(-0.00106042 -5.19215 -0 0.00106991 -0 -9.49754e-06)
(-0.00117928 -5.2103 -0 0.00118948 -0 -1.02003e-05)
(-0.00130524 -5.22938 -0 0.00131729 -0 -1.20548e-05)
(-0.00146058 -5.24928 -0 0.00147274 -0 -1.21651e-05)
(-0.00161229 -5.2705 -0 0.00162829 -0 -1.60034e-05)
(-0.00183295 -5.29216 -0 0.00184651 -0 -1.35562e-05)
(-0.00200663 -5.31628 -0 0.00203012 -0 -2.34938e-05)
(-0.00236257 -5.33948 -0 0.00237402 -0 -1.14553e-05)
(-0.00252212 -5.36825 -0 0.00256377 -0 -4.16487e-05)
(-0.00321694 -5.39171 -0 0.00321082 -0 6.11419e-06)
(-0.00328369 -5.43014 -0 0.00337987 -0 -9.61825e-05)
(-0.00451214 -5.44955 -0 0.00443171 -0 8.04289e-05)
(-0.00559249 -5.50528 -0 0.00583864 -0 -0.000246146)
(-0.00565015 -5.52725 -0 0.00534815 -0 0.000301994)
(-0.0189134 -5.58417 -0 0.0194977 -0 -0.000584337)
(-0.045177 -5.76715 -3.87319e-21 0.047509 -0 -0.00233198)
(0.0272998 -11.5281 -0 -0.0277377 -0 0.000437929)
(0.00814907 -7.85429 -0 -0.00812308 -0 -2.59892e-05)
(0.00264762 -7.08556 -0 -0.00264608 -0 -1.53501e-06)
(0.00158028 -6.68375 -0 -0.00158049 -0 2.02853e-07)
(0.0011042 -6.42344 -0 -0.00110462 -0 4.25014e-07)
(0.000806167 -6.24314 -0 -0.000806642 -0 4.75161e-07)
(0.000617902 -6.1126 -0 -0.00061837 -0 4.68111e-07)
(0.000493565 -6.0134 -0 -0.000493978 -0 4.12878e-07)
(0.00040407 -5.93574 -0 -0.000404429 -0 3.59017e-07)
(0.000337389 -5.87366 -0 -0.000337708 -0 3.19189e-07)
(0.000286606 -5.82314 -0 -0.000286888 -0 2.81905e-07)
(0.000246904 -5.78141 -0 -0.000247156 -0 2.52236e-07)
(0.000214921 -5.7465 -0 -0.000215145 -0 2.24516e-07)
(0.000189029 -5.71708 -0 -0.000189232 -0 2.03372e-07)
(0.000167415 -5.69194 -0 -0.000167599 -0 1.83898e-07)
(0.00014942 -5.6705 -0 -0.000149587 -0 1.66435e-07)
(0.000134069 -5.65188 -0 -0.000134221 -0 1.526e-07)
(0.000120842 -5.63584 -0 -0.000120982 -0 1.39742e-07)
(0.000109582 -5.62177 -0 -0.000109711 -0 1.29232e-07)
(9.97014e-05 -5.60952 -0 -9.98202e-05 -0 1.18739e-07)
(9.11462e-05 -5.59871 -0 -9.12558e-05 -0 1.09654e-07)
(8.36465e-05 -5.5892 -0 -8.3749e-05 -0 1.02526e-07)
(7.6929e-05 -5.58074 -0 -7.70242e-05 -0 9.52046e-08)
(7.10732e-05 -5.57327 -0 -7.11613e-05 -0 8.80765e-08)
(6.57379e-05 -5.56656 -0 -6.58223e-05 -0 8.4422e-08)
(6.09538e-05 -5.56063 -0 -6.10309e-05 -0 7.70717e-08)
(5.68786e-05 -5.55528 -0 -5.6951e-05 -0 7.24677e-08)
(5.30849e-05 -5.55048 -0 -5.31548e-05 -0 6.99009e-08)
(4.98218e-05 -5.54615 -0 -4.98869e-05 -0 6.51088e-08)
(4.66309e-05 -5.54223 -0 -4.66915e-05 -0 6.06227e-08)
(4.38475e-05 -5.53871 -0 -4.39034e-05 -0 5.59001e-08)
(4.11013e-05 -5.53549 -0 -4.11579e-05 -0 5.65864e-08)
(3.85565e-05 -5.53262 -0 -3.86064e-05 -0 4.98416e-08)
(3.63384e-05 -5.52998 -0 -3.63853e-05 -0 4.68916e-08)
(3.39983e-05 -5.52761 -0 -3.40472e-05 -0 4.89101e-08)
(3.17127e-05 -5.52546 -0 -3.17554e-05 -0 4.27456e-08)
(2.96187e-05 -5.52354 -0 -2.96586e-05 -0 3.98683e-08)
(2.74502e-05 -5.52179 -0 -2.74917e-05 -0 4.15226e-08)
(2.51521e-05 -5.52023 -0 -2.51864e-05 -0 3.42228e-08)
(2.26376e-05 -5.51884 -0 -2.26681e-05 -0 3.04617e-08)
(1.98462e-05 -5.51764 -0 -1.98755e-05 -0 2.93341e-08)
(1.66095e-05 -5.51661 -0 -1.66321e-05 -0 2.26444e-08)
(1.27663e-05 -5.51577 -0 -1.27869e-05 -0 2.05745e-08)
(8.08952e-06 -5.51512 -0 -8.10221e-06 -0 1.26842e-08)
(2.39912e-06 -5.51471 -0 -2.40309e-06 -0 3.97054e-09)
(-4.1887e-06 -5.51452 -0 4.19387e-06 -0 -5.16715e-09)
(-1.25867e-05 -5.51459 -0 1.2601e-05 -0 -1.42898e-08)
(-2.27769e-05 -5.51498 -0 2.28042e-05 -0 -2.73427e-08)
(-3.48021e-05 -5.5157 -0 3.4851e-05 -0 -4.88672e-08)
(-4.94492e-05 -5.51679 -0 4.95147e-05 -0 -6.54698e-08)
(-6.70059e-05 -5.51831 -0 6.70926e-05 -0 -8.66879e-08)
(-8.83381e-05 -5.5203 -0 8.84633e-05 -0 -1.25223e-07)
(-0.000113436 -5.52286 -0 0.000113595 -0 -1.58706e-07)
(-0.000143677 -5.526 -0 0.000143874 -0 -1.97008e-07)
(-0.000179439 -5.52988 -0 0.000179688 -0 -2.48229e-07)
(-0.00022186 -5.5345 -0 0.000222152 -0 -2.92348e-07)
(-0.000271276 -5.54005 -0 0.000271654 -0 -3.78363e-07)
(-0.000330511 -5.54651 -0 0.000330926 -0 -4.14438e-07)
(-0.000399448 -5.55418 -0 0.00039999 -0 -5.42038e-07)
(-0.000481024 -5.56297 -0 0.00048162 -0 -5.96292e-07)
(-0.000575725 -5.57326 -0 0.000576506 -0 -7.80229e-07)
(-0.000687657 -5.58495 -0 0.000688414 -0 -7.56713e-07)
(-0.000820563 -5.59852 -0 0.000821604 -0 -1.04096e-06)
(-0.00095073 -5.61137 -0 0.000952064 -0 -1.33379e-06)
(-0.00106575 -5.62249 -0 0.00106665 -0 -9.00253e-07)
(-0.00118858 -5.63424 -0 0.00118993 -0 -1.35243e-06)
(-0.00132795 -5.64664 -0 0.00132928 -0 -1.33683e-06)
(-0.00147865 -5.65972 -0 0.00148008 -0 -1.43295e-06)
(-0.00164177 -5.67348 -0 0.00164336 -0 -1.5913e-06)
(-0.00182208 -5.68791 -0 0.00182367 -0 -1.58632e-06)
(-0.00202123 -5.70306 -0 0.00202298 -0 -1.75402e-06)
(-0.00224253 -5.71896 -0 0.00224414 -0 -1.60737e-06)
(-0.00248198 -5.73553 -0 0.00248401 -0 -2.02615e-06)
(-0.00276073 -5.75293 -0 0.00276204 -0 -1.31395e-06)
(-0.00304933 -5.77106 -0 0.00305197 -0 -2.64028e-06)
(-0.00341568 -5.79 -0 0.00341574 -0 -5.31157e-08)
(-0.0037569 -5.8099 -0 0.00376137 -0 -4.46889e-06)
(-0.00428161 -5.83037 -0 0.00427736 -0 4.24463e-06)
(-0.00465773 -5.85254 -0 0.00466848 -0 -1.07515e-05)
(-0.00550857 -5.87437 -0 0.0054901 -0 1.84657e-05)
(-0.00582946 -5.89991 -0 0.00586249 -0 -3.30326e-05)
(-0.0074442 -5.92218 -0 0.00737703 -0 6.71741e-05)
(-0.00758176 -5.95476 -0 0.00769241 -0 -0.000110651)
(-0.0102678 -5.97237 -0 0.0100465 -0 0.000221324)
(-0.0127516 -6.02048 -0 0.0130618 -0 -0.00031016)
(-0.0118261 -6.02904 -0 0.0112479 -0 0.000578122)
(-0.0464908 -6.10715 -0 0.0471077 -0 -0.000616875)
(0.00312986 -6.02157 -0 0.00693575 -0 -0.0100656)
(0.0373121 -11.2736 -0 -0.0372939 -0 -1.81145e-05)
(0.0126399 -7.70387 -0 -0.0125796 -0 -6.03075e-05)
(0.00451521 -6.96609 -0 -0.00449846 -0 -1.67471e-05)
(0.00277053 -6.57678 -0 -0.00276161 -0 -8.92213e-06)
(0.00196779 -6.32586 -0 -0.00196159 -0 -6.2061e-06)
(0.00144771 -6.15177 -0 -0.00144327 -0 -4.44325e-06)
(0.00111466 -6.02562 -0 -0.00111132 -0 -3.33359e-06)
(0.000893248 -5.92976 -0 -0.000890592 -0 -2.65626e-06)
(0.000732873 -5.8547 -0 -0.000730699 -0 -2.17318e-06)
(0.000612866 -5.79468 -0 -0.00061106 -0 -1.80586e-06)
(0.000521245 -5.74583 -0 -0.000519715 -0 -1.53078e-06)
(0.000449464 -5.70547 -0 -0.000448148 -0 -1.31595e-06)
(0.000391554 -5.6717 -0 -0.00039041 -0 -1.14384e-06)
(0.000344597 -5.64325 -0 -0.000343593 -0 -1.00415e-06)
(0.000305372 -5.61892 -0 -0.000304484 -0 -8.88019e-07)
(0.00027268 -5.59818 -0 -0.000271889 -0 -7.90875e-07)
(0.000244779 -5.58016 -0 -0.00024407 -0 -7.08764e-07)
(0.000220722 -5.56465 -0 -0.000220085 -0 -6.37433e-07)
(0.000200218 -5.55104 -0 -0.000199641 -0 -5.77622e-07)
(0.000182234 -5.53919 -0 -0.00018171 -0 -5.23735e-07)
(0.000166643 -5.52872 -0 -0.000166164 -0 -4.78792e-07)
(0.000152971 -5.51952 -0 -0.000152533 -0 -4.37881e-07)
(0.000140731 -5.51133 -0 -0.000140329 -0 -4.01988e-07)
(0.000130043 -5.50411 -0 -0.000129673 -0 -3.70764e-07)
(0.000120321 -5.49762 -0 -0.000119979 -0 -3.42211e-07)
(0.000111593 -5.49188 -0 -0.000111277 -0 -3.15937e-07)
(0.000104133 -5.48671 -0 -0.000103838 -0 -2.94694e-07)
(9.72133e-05 -5.48207 -0 -9.69386e-05 -0 -2.74682e-07)
(9.12381e-05 -5.47787 -0 -9.09812e-05 -0 -2.56885e-07)
(8.54194e-05 -5.47408 -0 -8.51804e-05 -0 -2.39008e-07)
(8.03278e-05 -5.47068 -0 -8.01016e-05 -0 -2.26129e-07)
(7.53236e-05 -5.46756 -0 -7.5115e-05 -0 -2.08568e-07)
(7.06778e-05 -5.46478 -0 -7.04808e-05 -0 -1.96958e-07)
(6.66134e-05 -5.46223 -0 -6.6426e-05 -0 -1.87345e-07)
(6.23348e-05 -5.45994 -0 -6.21648e-05 -0 -1.69993e-07)
(5.81353e-05 -5.45786 -0 -5.79751e-05 -0 -1.60192e-07)
(5.42809e-05 -5.456 -0 -5.41303e-05 -0 -1.50622e-07)
(5.02862e-05 -5.45429 -0 -5.01519e-05 -0 -1.34254e-07)
(4.60383e-05 -5.45278 -0 -4.59137e-05 -0 -1.24599e-07)
(4.13834e-05 -5.45142 -0 -4.12712e-05 -0 -1.12216e-07)
(3.61866e-05 -5.45025 -0 -3.60935e-05 -0 -9.30983e-08)
(3.01634e-05 -5.44922 -0 -3.00868e-05 -0 -7.65706e-08)
(2.30048e-05 -5.44838 -0 -2.29528e-05 -0 -5.20058e-08)
(1.42992e-05 -5.44771 -0 -1.42708e-05 -0 -2.83908e-08)
(3.6623e-06 -5.44726 -0 -3.66705e-06 -0 4.75049e-09)
(-8.68068e-06 -5.44701 -0 8.63953e-06 -0 4.11459e-08)
(-2.42656e-05 -5.447 -0 2.41727e-05 -0 9.28571e-08)
(-4.33788e-05 -5.44728 -0 4.32271e-05 -0 1.51717e-07)
(-6.59965e-05 -5.44784 -0 6.57827e-05 -0 2.13873e-07)
(-9.34251e-05 -5.44874 -0 9.31236e-05 -0 3.01526e-07)
(-0.000126372 -5.45002 -0 0.000125967 -0 4.04556e-07)
(-0.000166342 -5.45171 -0 0.000165821 -0 5.21216e-07)
(-0.00021343 -5.45391 -0 0.000212766 -0 6.63905e-07)
(-0.000270068 -5.45661 -0 0.000269217 -0 8.51076e-07)
(-0.000337061 -5.45997 -0 0.000336012 -0 1.04823e-06)
(-0.000416532 -5.46397 -0 0.000415224 -0 1.30824e-06)
(-0.000509111 -5.46879 -0 0.000507543 -0 1.56784e-06)
(-0.000619919 -5.4744 -0 0.000617962 -0 1.95716e-06)
(-0.000748804 -5.48107 -0 0.000746498 -0 2.30589e-06)
(-0.000901338 -5.48871 -0 0.000898492 -0 2.84631e-06)
(-0.00107827 -5.49765 -0 0.00107499 -0 3.27443e-06)
(-0.00128735 -5.50779 -0 0.00128321 -0 4.14388e-06)
(-0.00153463 -5.51956 -0 0.00152993 -0 4.70049e-06)
(-0.00177735 -5.53066 -0 0.00177218 -0 5.16955e-06)
(-0.00199221 -5.54028 -0 0.00198559 -0 6.62263e-06)
(-0.00221986 -5.55044 -0 0.00221304 -0 6.81758e-06)
(-0.00247821 -5.56112 -0 0.00247039 -0 7.82023e-06)
(-0.00275835 -5.57234 -0 0.0027496 -0 8.749e-06)
(-0.00306087 -5.58412 -0 0.00305123 -0 9.63628e-06)
(-0.00339556 -5.59643 -0 0.00338472 -0 1.08408e-05)
(-0.00376231 -5.60932 -0 0.00375043 -0 1.1884e-05)
(-0.00417281 -5.62281 -0 0.00415924 -0 1.35744e-05)
(-0.0046116 -5.63678 -0 0.00459712 -0 1.44889e-05)
(-0.00512856 -5.65145 -0 0.00511118 -0 1.73792e-05)
(-0.00565206 -5.66655 -0 0.00563487 -0 1.71902e-05)
(-0.00633364 -5.68239 -0 0.00631024 -0 2.33979e-05)
(-0.00694142 -5.69866 -0 0.00692263 -0 1.87863e-05)
(-0.00792152 -5.71569 -0 0.00788648 -0 3.50414e-05)
(-0.00856851 -5.73329 -0 0.00855387 -0 1.46427e-05)
(-0.0101557 -5.75145 -0 0.0100926 -0 6.31305e-05)
(-0.0106771 -5.77068 -0 0.010689 -0 -1.19156e-05)
(-0.0135973 -5.78961 -0 0.0134534 -0 0.000143899)
(-0.0138423 -5.81257 -0 0.0139553 -0 -0.000112943)
(-0.0185422 -5.82628 -0 0.0181753 -0 0.000366818)
(-0.0225925 -5.86375 -0 0.0229588 -0 -0.000366356)
(-0.0217365 -5.8492 -0 0.0209577 -0 0.000778867)
(-0.0733447 -5.97985 -0 0.0740963 -0 -0.000751604)
(0.0227567 -5.56726 -0 -0.0198264 -0 -0.00293029)
(0.0465117 -11.0681 -0 -0.0464604 -0 -5.1319e-05)
(0.0173788 -7.57927 -0 -0.0173564 -0 -2.23207e-05)
(0.00673544 -6.86443 -0 -0.00672643 -0 -9.01039e-06)
(0.00426898 -6.4822 -0 -0.00426422 -0 -4.75833e-06)
(0.00308966 -6.23725 -0 -0.00308602 -0 -3.63822e-06)
(0.00229413 -6.06701 -0 -0.00229143 -0 -2.69979e-06)
(0.00177581 -5.94348 -0 -0.00177376 -0 -2.05205e-06)
(0.0014284 -5.84962 -0 -0.00142672 -0 -1.68272e-06)
(0.00117494 -5.77609 -0 -0.00117353 -0 -1.41e-06)
(0.000984306 -5.71725 -0 -0.000983119 -0 -1.18704e-06)
(0.000838314 -5.66935 -0 -0.000837295 -0 -1.01894e-06)
(0.000723656 -5.62977 -0 -0.000722772 -0 -8.84692e-07)
(0.000630988 -5.59664 -0 -0.000630212 -0 -7.75687e-07)
(0.000555717 -5.56873 -0 -0.000555032 -0 -6.8547e-07)
(0.000492782 -5.54485 -0 -0.000492172 -0 -6.09688e-07)
(0.000440262 -5.52451 -0 -0.000439717 -0 -5.45134e-07)
(0.000395424 -5.50682 -0 -0.000394933 -0 -4.90756e-07)
(0.00035673 -5.4916 -0 -0.000356287 -0 -4.425e-07)
(0.000323713 -5.47823 -0 -0.00032331 -0 -4.02304e-07)
(0.000294754 -5.46661 -0 -0.000294389 -0 -3.64776e-07)
(0.000269625 -5.45633 -0 -0.000269291 -0 -3.34669e-07)
(0.000247577 -5.4473 -0 -0.000247271 -0 -3.05874e-07)
(0.000227847 -5.43926 -0 -0.000227566 -0 -2.8102e-07)
(0.000210588 -5.43218 -0 -0.000210328 -0 -2.59451e-07)
(0.000194923 -5.42581 -0 -0.000194684 -0 -2.39358e-07)
(0.000180825 -5.42017 -0 -0.000180605 -0 -2.20399e-07)
(0.000168745 -5.4151 -0 -0.000168539 -0 -2.0602e-07)
(0.000157586 -5.41054 -0 -0.000157394 -0 -1.91829e-07)
(0.000147898 -5.40642 -0 -0.000147719 -0 -1.79069e-07)
(0.000138504 -5.40269 -0 -0.000138338 -0 -1.65955e-07)
(0.000130262 -5.39936 -0 -0.000130104 -0 -1.58176e-07)
(0.000122204 -5.3963 -0 -0.00012206 -0 -1.43543e-07)
(0.000114694 -5.39358 -0 -0.000114557 -0 -1.36815e-07)
(0.000108111 -5.39108 -0 -0.00010798 -0 -1.31523e-07)
(0.000101205 -5.38882 -0 -0.000101089 -0 -1.1587e-07)
(9.43841e-05 -5.38678 -0 -9.42732e-05 -0 -1.10849e-07)
(8.81245e-05 -5.38495 -0 -8.80195e-05 -0 -1.05039e-07)
(8.16433e-05 -5.38327 -0 -8.15532e-05 -0 -9.00207e-08)
(7.47153e-05 -5.38177 -0 -7.463e-05 -0 -8.53456e-08)
(6.71264e-05 -5.38042 -0 -6.70486e-05 -0 -7.77893e-08)
(5.86234e-05 -5.37925 -0 -5.85619e-05 -0 -6.14423e-08)
(4.87767e-05 -5.37823 -0 -4.87259e-05 -0 -5.0813e-08)
(3.70787e-05 -5.37737 -0 -3.70474e-05 -0 -3.13129e-08)
(2.28623e-05 -5.37667 -0 -2.28457e-05 -0 -1.65899e-08)
(5.4467e-06 -5.37618 -0 -5.45506e-06 -0 8.36175e-09)
(-1.48589e-05 -5.37587 -0 1.48261e-05 -0 3.27519e-08)
(-4.01821e-05 -5.37576 -0 4.01144e-05 -0 6.77137e-08)
(-7.14778e-05 -5.37593 -0 7.1363e-05 -0 1.14792e-07)
(-0.000108754 -5.37634 -0 0.000108601 -0 1.53749e-07)
(-0.000153723 -5.37706 -0 0.000153509 -0 2.1354e-07)
(-0.000207786 -5.37811 -0 0.000207495 -0 2.90398e-07)
(-0.000273337 -5.37953 -0 0.00027297 -0 3.66916e-07)
(-0.000350612 -5.38139 -0 0.000350147 -0 4.64489e-07)
(-0.000443428 -5.38369 -0 0.000442823 -0 6.04912e-07)
(-0.000553188 -5.38657 -0 0.000552454 -0 7.34133e-07)
(-0.000683395 -5.39 -0 0.000682471 -0 9.24173e-07)
(-0.000835102 -5.39415 -0 0.000834019 -0 1.08294e-06)
(-0.00101638 -5.39898 -0 0.001015 -0 1.383e-06)
(-0.00122714 -5.40475 -0 0.00122556 -0 1.57971e-06)
(-0.00147652 -5.41133 -0 0.00147452 -0 1.99592e-06)
(-0.00176552 -5.41904 -0 0.00176333 -0 2.18762e-06)
(-0.00210696 -5.42778 -0 0.00210403 -0 2.93457e-06)
(-0.00250913 -5.4379 -0 0.00250602 -0 3.11033e-06)
(-0.00290435 -5.44744 -0 0.00290118 -0 3.17324e-06)
(-0.00325533 -5.45567 -0 0.00325059 -0 4.74142e-06)
(-0.00362448 -5.46439 -0 0.00362007 -0 4.40813e-06)
(-0.00404242 -5.47351 -0 0.00403726 -0 5.15331e-06)
(-0.00449691 -5.48306 -0 0.00449116 -0 5.75646e-06)
(-0.00498663 -5.49304 -0 0.00498041 -0 6.22368e-06)
(-0.00552889 -5.50344 -0 0.00552184 -0 7.05357e-06)
(-0.00611851 -5.51429 -0 0.00611099 -0 7.51989e-06)
(-0.00678224 -5.52562 -0 0.00677343 -0 8.81272e-06)
(-0.007484 -5.53722 -0 0.00747517 -0 8.82571e-06)
(-0.00831891 -5.54945 -0 0.00830739 -0 1.15168e-05)
(-0.00914789 -5.56181 -0 0.00913833 -0 9.55874e-06)
(-0.0102494 -5.57491 -0 0.0102329 -0 1.65481e-05)
(-0.0111965 -5.58791 -0 0.0111888 -0 7.67112e-06)
(-0.0127799 -5.60195 -0 0.0127516 -0 2.82817e-05)
(-0.0137607 -5.6154 -0 0.0137647 -0 -3.99255e-06)