/*--------------------------------*- C++ -*----------------------------------*\
| =========                 |                                                 |
| \\      /  F ield         | OpenFOAM: The Open Source CFD Toolbox           |
|  \\    /   O peration     | Version:  2306                                  |
|   \\  /    A nd           | Website:  www.openfoam.com                      |
|    \\/     M anipulation  |                                                 |
\*---------------------------------------------------------------------------*/
FoamFile
{
    version     2.0;
    format      ascii;
    arch        "LSB;label=32;scalar=64";
    class       volVectorField;
    location    "1800";
    object      U;
}
// * * * * * * * * * * * * * * * * * * * * * * * * * * * * * * * * * * * * * //

dimensions      [0 1 -1 0 0 0 0];

internalField   nonuniform List<vector> 
20540
(
(38.3231 0.000939227 0)
(27.9749 0.00270911 0)
(38.3517 0.00301201 0)
(27.9989 0.0080143 0)
(38.389 0.00551422 0)
(28.0304 0.0125475 0)
(38.437 0.00853288 0)
(28.071 0.0165257 0)
(38.4982 0.012172 0)
(28.123 0.0203799 0)
(38.5751 0.016555 0)
(28.1886 0.0242945 0)
(38.6709 0.0218277 0)
(28.2708 0.0283183 0)
(38.7892 0.0281617 0)
(28.3729 0.0324838 0)
(38.9342 0.0357577 0)
(28.499 0.0368326 0)
(39.1108 0.0448477 0)
(28.6539 0.0414119 0)
(39.3247 0.0556976 0)
(28.8436 0.0462761 0)
(39.582 0.068607 0)
(29.075 0.0514968 0)
(39.89 0.0839066 0)
(29.3566 0.0571768 0)
(40.2561 0.101951 0)
(29.6986 0.0634692 0)
(40.688 0.123103 0)
(30.1133 0.0706041 0)
(41.1931 0.147703 0)
(30.6152 0.0789257 0)
(41.7773 0.176028 0)
(31.2219 0.0889389 0)
(42.4435 0.208223 0)
(31.9538 0.101366 0)
(43.1894 0.244191 0)
(32.8341 0.117206 0)
(44.0021 0.283445 0)
(33.8888 0.137775 0)
(44.8509 0.324933 0)
(35.1453 0.164689 0)
(45.6761 0.366847 0)
(36.6289 0.199659 0)
(46.3771 0.406232 0)
(38.3563 0.243917 0)
(46.8228 0.438098 0)
(40.3224 0.297123 0)
(46.9177 0.455149 0)
(42.4754 0.356126 0)
(46.6743 0.449989 0)
(44.6696 0.413631 0)
(46.1981 0.418101 0)
(46.5479 0.45141 0)
(45.6491 0.359966 0)
(47.5265 0.437055 0)
(45.1848 0.280636 0)
(47.6518 0.370856 0)
(44.884 0.189526 0)
(47.4596 0.269691 0)
(44.7541 0.100018 0)
(47.2831 0.155748 0)
(44.7122 0.0155933 0)
(47.2027 0.0457395 0)
(44.7148 -0.0678127 0)
(47.2085 -0.0635848 0)
(44.7635 -0.152528 0)
(47.3007 -0.173519 0)
(44.903 -0.241378 0)
(47.4846 -0.285491 0)
(45.2064 -0.330699 0)
(47.6683 -0.38305 0)
(45.6644 -0.408584 0)
(47.5258 -0.44645 0)
(46.1993 -0.465671 0)
(46.5262 -0.458801 0)
(46.6559 -0.496896 0)
(44.6253 -0.41963 0)
(46.8714 -0.501427 0)
(42.4032 -0.360781 0)
(46.7332 -0.483295 0)
(40.2147 -0.300312 0)
(46.231 -0.449801 0)
(38.2049 -0.245605 0)
(45.4685 -0.408309 0)
(36.4272 -0.199975 0)
(44.5818 -0.363856 0)
(34.89 -0.163908 0)
(43.6724 -0.319501 0)
(33.579 -0.136226 0)
(42.8005 -0.277196 0)
(32.4708 -0.115211 0)
(41.9969 -0.238119 0)
(31.5396 -0.0992093 0)
(41.2751 -0.202855 0)
(30.7601 -0.086849 0)
(40.6383 -0.171574 0)
(30.1094 -0.077072 0)
(40.0842 -0.144193 0)
(29.5673 -0.0690989 0)
(39.6073 -0.120467 0)
(29.1163 -0.062376 0)
(39.2003 -0.100069 0)
(28.7416 -0.0565218 0)
(38.8552 -0.0826411 0)
(28.4307 -0.0512793 0)
(38.5645 -0.0678244 0)
(28.1734 -0.0464782 0)
(38.3208 -0.0552788 0)
(27.9607 -0.0420067 0)
(38.1176 -0.0446909 0)
(27.7855 -0.0377902 0)
(37.9492 -0.0357791 0)
(27.6416 -0.0337771 0)
(37.8102 -0.0282944 0)
(27.5238 -0.0299273 0)
(37.6964 -0.0220198 0)
(27.428 -0.0262052 0)
(37.6037 -0.0167673 0)
(27.3505 -0.0225779 0)
(37.529 -0.0123759 0)
(27.2882 -0.0190194 0)
(37.4692 -0.00870818 0)
(27.2386 -0.0154868 0)
(37.4221 -0.00564743 0)
(27.1997 -0.0118076 0)
(37.3855 -0.00309485 0)
(27.1695 -0.00757323 0)
(37.3573 -0.000967515 0)
(27.1463 -0.0025684 0)
(9.31453 0.00427889 0)
(6.30628 0.000380037 0)
(5.68933 9.05424e-05 0)
(5.3696 5.05365e-05 0)
(5.16144 3.36447e-05 0)
(5.0181 2.40703e-05 0)
(4.91453 1.82205e-05 0)
(4.83577 1.4409e-05 0)
(4.77416 1.1718e-05 0)
(4.72494 9.74042e-06 0)
(4.68491 8.24194e-06 0)
(4.65183 7.08067e-06 0)
(4.62417 6.14614e-06 0)
(4.60085 5.39718e-06 0)
(4.58095 4.77139e-06 0)
(4.56395 4.25059e-06 0)
(4.5492 3.80992e-06 0)
(4.53649 3.4296e-06 0)
(4.52535 3.10914e-06 0)
(4.51564 2.82406e-06 0)
(4.50708 2.58042e-06 0)
(4.49954 2.36692e-06 0)
(4.49284 2.17465e-06 0)
(4.48693 2.00704e-06 0)
(4.48161 1.85819e-06 0)
(4.47692 1.71775e-06 0)
(4.47267 1.6038e-06 0)
(4.46887 1.49918e-06 0)
(4.46544 1.40506e-06 0)
(4.46233 1.31129e-06 0)
(4.45954 1.23259e-06 0)
(4.45699 1.15744e-06 0)
(4.45471 1.08139e-06 0)
(4.45263 1.02146e-06 0)
(4.45075 9.58076e-07 0)
(4.44906 8.92306e-07 0)
(4.44754 8.37473e-07 0)
(4.44617 7.81799e-07 0)
(4.44495 7.16966e-07 0)
(4.44387 6.5169e-07 0)
(4.44296 5.80507e-07 0)
(4.44218 4.96841e-07 0)
(4.44157 4.03018e-07 0)
(4.44113 2.86198e-07 0)
(4.4409 1.46017e-07 0)
(4.44087 -1.62668e-08 0)
(4.44108 -2.24436e-07 0)
(4.44158 -4.63079e-07 0)
(4.44239 -7.53829e-07 0)
(4.44355 -1.10462e-06 0)
(4.44511 -1.51936e-06 0)
(4.44712 -2.03938e-06 0)
(4.44966 -2.63451e-06 0)
(4.45277 -3.37019e-06 0)
(4.45658 -4.22594e-06 0)
(4.46111 -5.23441e-06 0)
(4.46653 -6.43027e-06 0)
(4.47284 -7.84035e-06 0)
(4.48031 -9.52564e-06 0)
(4.48891 -1.14696e-05 0)
(4.49896 -1.37712e-05 0)
(4.51042 -1.64171e-05 0)
(4.52374 -1.97463e-05 0)
(4.53643 -2.30427e-05 0)
(4.54741 -2.5688e-05 0)
(4.559 -2.89057e-05 0)
(4.57137 -3.23032e-05 0)
(4.58447 -3.5992e-05 0)
(4.59833 -4.00454e-05 0)
(4.61294 -4.44382e-05 0)
(4.62838 -4.95198e-05 0)
(4.64468 -5.48452e-05 0)
(4.66186 -6.11696e-05 0)
(4.67997 -6.7687e-05 0)
(4.69917 -7.59286e-05 0)
(4.71925 -8.36658e-05 0)
(4.74095 -9.52033e-05 0)
(4.76314 -0.000103912 0)
(4.78838 -0.000122166 0)
(4.81256 -0.000129914 0)
(4.84376 -0.000163602 0)
(4.86866 -0.000165647 0)
(4.91251 -0.000239187 0)
(4.93419 -0.000203748 0)
(5.00198 -0.000458271 0)
(5.03359 -0.000276182 0)
(5.11991 -0.000762093 0)
(5.22898 -0.0312544 0)
(16.342 0.00740638 0)
(12.2667 0.00168033 0)
(11.2983 0.000467017 0)
(10.7829 0.000273844 0)
(10.441 0.000189187 0)
(10.2032 0.000137992 0)
(10.0303 0.000105861 0)
(9.89821 8.46167e-05 0)
(9.79451 6.93587e-05 0)
(9.71145 5.79915e-05 0)
(9.64374 4.93196e-05 0)
(9.58769 4.25291e-05 0)
(9.54077 3.70525e-05 0)
(9.50116 3.2613e-05 0)
(9.46731 2.89011e-05 0)
(9.43837 2.58099e-05 0)
(9.41325 2.31656e-05 0)
(9.39158 2.08873e-05 0)
(9.37259 1.89456e-05 0)
(9.35602 1.72419e-05 0)
(9.34139 1.57651e-05 0)
(9.32852 1.44703e-05 0)
(9.31707 1.33086e-05 0)
(9.30696 1.22989e-05 0)
(9.29786 1.13709e-05 0)
(9.28984 1.05475e-05 0)
(9.28257 9.84539e-06 0)
(9.27608 9.1846e-06 0)
(9.27019 8.62457e-06 0)
(9.26488 8.07318e-06 0)
(9.2601 7.5924e-06 0)
(9.25573 7.11208e-06 0)
(9.25183 6.67483e-06 0)
(9.24826 6.2905e-06 0)
(9.24505 5.8841e-06 0)
(9.24215 5.49468e-06 0)
(9.23954 5.13574e-06 0)
(9.23719 4.76515e-06 0)
(9.23512 4.37972e-06 0)
(9.23327 3.95615e-06 0)
(9.23171 3.49227e-06 0)
(9.23038 2.95572e-06 0)
(9.22936 2.31752e-06 0)
(9.22862 1.54094e-06 0)
(9.22824 6.08607e-07 0)
(9.22822 -4.73502e-07 0)
(9.22862 -1.86429e-06 0)
(9.22953 -3.52417e-06 0)
(9.23096 -5.47772e-06 0)
(9.23302 -7.86997e-06 0)
(9.23578 -1.07282e-05 0)
(9.23933 -1.41969e-05 0)
(9.24382 -1.82823e-05 0)
(9.24929 -2.31982e-05 0)
(9.25599 -2.90325e-05 0)
(9.26396 -3.59323e-05 0)
(9.27348 -4.3973e-05 0)
(9.28458 -5.36243e-05 0)
(9.29769 -6.48776e-05 0)
(9.31278 -7.8114e-05 0)
(9.33041 -9.36321e-05 0)
(9.35052 -0.00011175 0)
(9.37384 -0.000133629 0)
(9.39607 -0.00015502 0)
(9.4153 -0.000173279 0)
(9.43558 -0.0001938 0)
(9.4572 -0.000216544 0)
(9.48009 -0.00024105 0)
(9.50432 -0.000267762 0)
(9.52984 -0.000297137 0)
(9.5568 -0.000330188 0)
(9.58522 -0.000366007 0)
(9.6152 -0.000406162 0)
(9.64671 -0.000450729 0)
(9.6802 -0.000500617 0)
(9.71505 -0.00055725 0)
(9.75289 -0.000620566 0)
(9.79125 -0.000696418 0)
(9.83528 -0.000779119 0)
(9.8768 -0.000888855 0)
(9.93124 -0.000999158 0)
(9.97364 -0.00118666 0)
(10.0496 -0.00135684 0)
(10.0866 -0.00160064 0)
(10.201 -0.0024274 0)
(10.2576 -0.00203263 0)
(10.379 -0.00637836 0)
(10.7741 -0.0585467 0)
(20.5468 0.0119834 0)
(16.4949 0.00344378 0)
(15.3786 0.00105248 0)
(14.7656 0.000631126 0)
(14.3497 0.000442311 0)
(14.0579 0.000324953 0)
(13.8447 0.000250456 0)
(13.6811 0.00020091 0)
(13.5524 0.000165097 0)
(13.4491 0.000138302 0)
(13.3648 0.0001178 0)
(13.2949 0.000101712 0)
(13.2364 8.87053e-05 0)
(13.1869 7.81482e-05 0)
(13.1446 6.93081e-05 0)
(13.1085 6.19326e-05 0)
(13.077 5.56243e-05 0)
(13.0499 5.01797e-05 0)
(13.0262 4.55391e-05 0)
(13.0054 4.14589e-05 0)
(12.9871 3.79228e-05 0)
(12.971 3.48203e-05 0)
(12.9566 3.20357e-05 0)
(12.944 2.96098e-05 0)
(12.9326 2.7392e-05 0)
(12.9225 2.54064e-05 0)
(12.9134 2.37177e-05 0)
(12.9052 2.21379e-05 0)
(12.8979 2.07852e-05 0)
(12.8912 1.94561e-05 0)
(12.8852 1.8298e-05 0)
(12.8797 1.71518e-05 0)
(12.8748 1.60909e-05 0)
(12.8703 1.51675e-05 0)
(12.8663 1.41944e-05 0)
(12.8626 1.32461e-05 0)
(12.8594 1.23786e-05 0)
(12.8564 1.14842e-05 0)
(12.8538 1.0537e-05 0)
(12.8515 9.50327e-06 0)
(12.8496 8.36569e-06 0)
(12.8479 7.04372e-06 0)
(12.8467 5.47804e-06 0)
(12.8458 3.56865e-06 0)
(12.8454 1.26103e-06 0)
(12.8454 -1.41143e-06 0)
(12.846 -4.83679e-06 0)
(12.8472 -8.94954e-06 0)
(12.8491 -1.38016e-05 0)
(12.8519 -1.97246e-05 0)
(12.8555 -2.68085e-05 0)
(12.8602 -3.5428e-05 0)
(12.8661 -4.55552e-05 0)
(12.8733 -5.77599e-05 0)
(12.8821 -7.22066e-05 0)
(12.8926 -8.93094e-05 0)
(12.9051 -0.000109251 0)
(12.9196 -0.000133129 0)
(12.9368 -0.000160987 0)
(12.9565 -0.000193797 0)
(12.9796 -0.000232087 0)
(13.0059 -0.000276968 0)
(13.0365 -0.00033083 0)
(13.0655 -0.000383457 0)
(13.0907 -0.000428896 0)
(13.1172 -0.000479054 0)
(13.1455 -0.000535077 0)
(13.1754 -0.000595549 0)
(13.2071 -0.000661227 0)
(13.2404 -0.000733501 0)
(13.2757 -0.000814192 0)
(13.3128 -0.000902496 0)
(13.352 -0.00100011 0)
(13.3931 -0.00111038 0)
(13.4369 -0.00123024 0)
(13.4823 -0.00137197 0)
(13.5319 -0.00152029 0)
(13.5816 -0.0017147 0)
(13.6395 -0.00189836 0)
(13.6929 -0.00219169 0)
(13.7647 -0.00241213 0)
(13.8187 -0.00292954 0)
(13.9179 -0.00323199 0)
(13.9661 -0.003948 0)
(14.1106 -0.00568156 0)
(14.1876 -0.00458651 0)
(14.3184 -0.0181041 0)
(14.9052 -0.0722988 0)
(23.1318 0.0158215 0)
(19.4281 0.00545894 0)
(18.2635 0.00180375 0)
(17.5993 0.00110371 0)
(17.1377 0.000782651 0)
(16.8105 0.000578137 0)
(16.5701 0.000447071 0)
(16.3849 0.000359493 0)
(16.2389 0.000295889 0)
(16.1215 0.000248152 0)
(16.0255 0.000211561 0)
(15.946 0.000182801 0)
(15.8793 0.000159522 0)
(15.8229 0.000140605 0)
(15.7746 0.000124755 0)
(15.7333 0.00011152 0)
(15.6975 0.000100196 0)
(15.6665 9.04168e-05 0)
(15.6393 8.2075e-05 0)
(15.6156 7.47412e-05 0)
(15.5947 6.83806e-05 0)
(15.5762 6.27981e-05 0)
(15.5598 5.7789e-05 0)
(15.5453 5.34201e-05 0)
(15.5323 4.94306e-05 0)
(15.5208 4.58544e-05 0)
(15.5103 4.28073e-05 0)
(15.501 3.99632e-05 0)
(15.4925 3.75215e-05 0)
(15.4849 3.51286e-05 0)
(15.478 3.30393e-05 0)
(15.4718 3.09767e-05 0)
(15.4661 2.90641e-05 0)
(15.461 2.73962e-05 0)
(15.4564 2.56403e-05 0)
(15.4522 2.39228e-05 0)
(15.4485 2.23494e-05 0)
(15.4451 2.07256e-05 0)
(15.4421 1.90012e-05 0)
(15.4395 1.71161e-05 0)
(15.4373 1.5032e-05 0)
(15.4354 1.26101e-05 0)
(15.434 9.73889e-06 0)
(15.433 6.23829e-06 0)
(15.4325 1.99136e-06 0)
(15.4326 -2.92778e-06 0)
(15.4333 -9.20563e-06 0)
(15.4348 -1.68015e-05 0)
(15.4371 -2.57668e-05 0)
(15.4403 -3.66871e-05 0)
(15.4446 -4.97696e-05 0)
(15.4502 -6.56725e-05 0)
(15.4571 -8.43731e-05 0)
(15.4656 -0.000106891 0)
(15.4759 -0.000133545 0)
(15.4882 -0.000165115 0)
(15.5029 -0.000201922 0)
(15.52 -0.000245968 0)
(15.5401 -0.000297322 0)
(15.5633 -0.000357882 0)
(15.5904 -0.00042844 0)
(15.6212 -0.000511298 0)
(15.657 -0.000610333 0)
(15.6911 -0.000707265 0)
(15.7206 -0.000791443 0)
(15.7516 -0.000883328 0)
(15.7847 -0.000986415 0)
(15.8198 -0.00109788 0)
(15.8568 -0.00121873 0)
(15.8958 -0.00135191 0)
(15.9371 -0.00149972 0)
(15.9804 -0.00166264 0)
(16.0263 -0.00184087 0)
(16.0742 -0.00204478 0)
(16.1255 -0.00226185 0)
(16.1782 -0.00252589 0)
(16.2363 -0.00278991 0)
(16.2937 -0.00315701 0)
(16.3616 -0.00347229 0)
(16.4228 -0.00403695 0)
(16.5069 -0.00438989 0)
(16.5683 -0.00538878 0)
(16.6831 -0.00584137 0)
(16.7387 -0.00724923 0)
(16.9017 -0.0100969 0)
(16.9881 -0.00818156 0)
(17.1394 -0.0335515 0)
(17.7039 -0.0666426 0)
(24.9197 0.019304 0)
(21.675 0.00772996 0)
(20.5255 0.0027452 0)
(19.8381 0.00171794 0)
(19.3467 0.00123362 0)
(18.9937 0.000916576 0)
(18.7326 0.000711167 0)
(18.5306 0.000573195 0)
(18.3708 0.000472508 0)
(18.2421 0.000396695 0)
(18.1367 0.000338477 0)
(18.0493 0.00029265 0)
(17.9759 0.000255518 0)
(17.9138 0.000225308 0)
(17.8606 0.000199986 0)
(17.8151 0.000178825 0)
(17.7756 0.000160716 0)
(17.7414 0.000145068 0)
(17.7115 0.000131712 0)
(17.6853 0.000119971 0)
(17.6622 0.000109781 0)
(17.6418 0.000100835 0)
(17.6237 9.28106e-05 0)
(17.6076 8.58036e-05 0)
(17.5932 7.94142e-05 0)
(17.5805 7.36791e-05 0)
(17.5689 6.87826e-05 0)
(17.5586 6.42251e-05 0)
(17.5493 6.02999e-05 0)
(17.5408 5.64639e-05 0)
(17.5332 5.31085e-05 0)
(17.5263 4.98056e-05 0)
(17.5201 4.67367e-05 0)
(17.5144 4.40557e-05 0)
(17.5092 4.1237e-05 0)
(17.5046 3.84695e-05 0)
(17.5005 3.59323e-05 0)
(17.4967 3.3312e-05 0)
(17.4934 3.05213e-05 0)
(17.4905 2.74682e-05 0)
(17.4881 2.40792e-05 0)
(17.486 2.01421e-05 0)
(17.4844 1.54716e-05 0)
(17.4833 9.78019e-06 0)
(17.4828 2.85371e-06 0)
(17.483 -5.18199e-06 0)
(17.4838 -1.53712e-05 0)
(17.4854 -2.77873e-05 0)
(17.488 -4.24746e-05 0)
(17.4916 -6.03116e-05 0)
(17.4965 -8.17095e-05 0)
(17.5027 -0.000107701 0)
(17.5105 -0.00013829 0)
(17.52 -0.00017509 0)
(17.5316 -0.000218648 0)
(17.5453 -0.000270261 0)
(17.5617 -0.000330438 0)
(17.5809 -0.000402399 0)
(17.6034 -0.000486265 0)
(17.6293 -0.000585244 0)
(17.6596 -0.000700438 0)
(17.6941 -0.000835876 0)
(17.7341 -0.000997204 0)
(17.7722 -0.00115537 0)
(17.8051 -0.00129335 0)
(17.8398 -0.00144265 0)
(17.8767 -0.00161052 0)
(17.9157 -0.0017924 0)
(17.9571 -0.00198928 0)
(18.0005 -0.00220652 0)
(18.0465 -0.00244628 0)
(18.0947 -0.00271216 0)
(18.1458 -0.00300041 0)
(18.1989 -0.00333363 0)
(18.256 -0.00368212 0)
(18.3142 -0.00411571 0)
(18.3788 -0.00453355 0)
(18.442 -0.00514117 0)
(18.5174 -0.00562599 0)
(18.5843 -0.00656871 0)
(18.6774 -0.00708549 0)
(18.7441 -0.00873802 0)
(18.8695 -0.0093786 0)
(18.9304 -0.0117311 0)
(19.1066 -0.0158565 0)
(19.1914 -0.0134748 0)
(19.3845 -0.0502555 0)
(19.7852 -0.0652182 0)
(26.2632 0.0224423 0)
(23.5044 0.0101829 0)
(22.4188 0.00387153 0)
(21.7318 0.0024869 0)
(21.2233 0.00181207 0)
(20.8518 0.0013558 0)
(20.5746 0.00105615 0)
(20.359 0.000853551 0)
(20.1877 0.000704873 0)
(20.0494 0.000592499 0)
(19.936 0.000506012 0)
(19.8417 0.000437814 0)
(19.7625 0.000382485 0)
(19.6955 0.000337418 0)
(19.638 0.000299619 0)
(19.5888 0.000268004 0)
(19.546 0.000240945 0)
(19.509 0.000217548 0)
(19.4766 0.000197563 0)
(19.4482 0.000179997 0)
(19.4231 0.000164742 0)
(19.401 0.000151344 0)
(19.3814 0.000139331 0)
(19.364 0.000128827 0)
(19.3484 0.000119265 0)
(19.3345 0.000110668 0)
(19.322 0.000103315 0)
(19.3108 9.64904e-05 0)
(19.3006 9.05909e-05 0)
(19.2915 8.4843e-05 0)
(19.2832 7.98059e-05 0)
(19.2756 7.4865e-05 0)
(19.2689 7.02626e-05 0)
(19.2627 6.62361e-05 0)
(19.2571 6.20112e-05 0)
(19.2521 5.78456e-05 0)
(19.2476 5.40258e-05 0)
(19.2435 5.00817e-05 0)
(19.2399 4.58669e-05 0)
(19.2367 4.12546e-05 0)
(19.2341 3.61188e-05 0)
(19.2318 3.01562e-05 0)
(19.2301 2.30824e-05 0)
(19.2289 1.44671e-05 0)
(19.2284 3.95772e-06 0)
(19.2285 -8.26948e-06 0)
(19.2294 -2.36538e-05 0)
(19.2312 -4.25045e-05 0)
(19.234 -6.48948e-05 0)
(19.2379 -9.19988e-05 0)
(19.2432 -0.000124535 0)
(19.2499 -0.000164041 0)
(19.2584 -0.000210562 0)
(19.2688 -0.000266482 0)
(19.2814 -0.000332663 0)
(19.2964 -0.000411104 0)
(19.3142 -0.000502572 0)
(19.3351 -0.000611859 0)
(19.3596 -0.000739179 0)
(19.3878 -0.000889514 0)
(19.4207 -0.00106433 0)
(19.4583 -0.00127002 0)
(19.5017 -0.00151425 0)
(19.543 -0.00175398 0)
(19.5788 -0.00196395 0)
(19.6165 -0.00218954 0)
(19.6565 -0.00244321 0)
(19.6988 -0.00271866 0)
(19.7436 -0.00301639 0)
(19.7907 -0.00334527 0)
(19.8405 -0.00370624 0)
(19.8925 -0.00410859 0)
(19.9478 -0.00454119 0)
(20.0051 -0.00504564 0)
(20.0667 -0.00556504 0)
(20.1293 -0.0062232 0)
(20.1989 -0.0068383 0)
(20.2665 -0.00776407 0)
(20.3477 -0.00846165 0)
(20.4187 -0.00990032 0)
(20.5185 -0.0106206 0)
(20.5891 -0.0131049 0)
(20.7217 -0.0139833 0)
(20.7861 -0.0175736 0)
(20.9727 -0.0229756 0)
(21.0474 -0.0211945 0)
(21.2948 -0.0659566 0)
(21.4917 -0.0757909 0)
(27.3345 0.0251586 0)
(25.0493 0.0127424 0)
(24.0658 0.00516372 0)
(23.401 0.00341815 0)
(22.8875 0.0025339 0)
(22.5043 0.0019122 0)
(22.2151 0.00149687 0)
(21.9885 0.00121369 0)
(21.8076 0.00100447 0)
(21.661 0.000845599 0)
(21.5406 0.000722973 0)
(21.4403 0.000626071 0)
(21.3559 0.000547333 0)
(21.2843 0.000483104 0)
(21.223 0.000429194 0)
(21.1703 0.000384056 0)
(21.1246 0.000345415 0)
(21.085 0.000311978 0)
(21.0502 0.000283396 0)
(21.0198 0.000258271 0)
(20.993 0.000236438 0)
(20.9693 0.000217255 0)
(20.9482 0.000200061 0)
(20.9295 0.000185006 0)
(20.9127 0.000171326 0)
(20.8978 0.000159001 0)
(20.8844 0.000148441 0)
(20.8724 0.000138672 0)
(20.8615 0.000130191 0)
(20.8516 0.000121953 0)
(20.8427 0.000114722 0)
(20.8346 0.000107657 0)
(20.8273 0.000101056 0)
(20.8207 9.52757e-05 0)
(20.8147 8.92249e-05 0)
(20.8092 8.32325e-05 0)
(20.8044 7.77387e-05 0)
(20.8 7.20717e-05 0)
(20.7961 6.59935e-05 0)
(20.7927 5.93432e-05 0)
(20.7898 5.192e-05 0)
(20.7874 4.33105e-05 0)
(20.7855 3.31008e-05 0)
(20.7842 2.06745e-05 0)
(20.7836 5.49314e-06 0)
(20.7837 -1.22365e-05 0)
(20.7846 -3.43708e-05 0)
(20.7865 -6.15778e-05 0)
(20.7895 -9.40643e-05 0)
(20.7937 -0.000133292 0)
(20.7993 -0.000180373 0)
(20.8065 -0.000237523 0)
(20.8156 -0.000304859 0)
(20.8266 -0.000385727 0)
(20.8401 -0.000481417 0)
(20.8561 -0.000594849 0)
(20.8752 -0.000727144 0)
(20.8974 -0.000885064 0)
(20.9236 -0.00106898 0)
(20.9537 -0.00128618 0)
(20.9889 -0.00153857 0)
(21.0289 -0.00183569 0)
(21.0753 -0.00218736 0)
(21.1192 -0.00253281 0)
(21.1573 -0.00283652 0)
(21.1975 -0.00316093 0)
(21.2401 -0.0035252 0)
(21.2851 -0.00392155 0)
(21.3327 -0.00434939 0)
(21.3827 -0.00482245 0)
(21.4355 -0.00533888 0)
(21.4907 -0.00591693 0)
(21.5493 -0.00653383 0)
(21.6099 -0.00725824 0)
(21.6751 -0.00799415 0)
(21.741 -0.0089401 0)
(21.8146 -0.00980259 0)
(21.8855 -0.0111336 0)
(21.9709 -0.0120951 0)
(22.0452 -0.0141572 0)
(22.1496 -0.0151326 0)
(22.2232 -0.0186349 0)
(22.3603 -0.0198071 0)
(22.427 -0.0249951 0)
(22.6215 -0.0314705 0)
(22.682 -0.0319814 0)
(22.9801 -0.079997 0)
(23.0129 -0.0972458 0)
(28.2276 0.0273379 0)
(26.385 0.0153337 0)
(25.5322 0.00659027 0)
(24.9105 0.00451325 0)
(24.4043 0.00341451 0)
(24.0165 0.00260405 0)
(23.7195 0.00205087 0)
(23.4845 0.00166964 0)
(23.2957 0.0013856 0)
(23.1421 0.00116865 0)
(23.0155 0.00100057 0)
(22.9098 0.000867398 0)
(22.8206 0.000758963 0)
(22.7449 0.000670358 0)
(22.68 0.000595908 0)
(22.6242 0.000533492 0)
(22.5757 0.000480043 0)
(22.5336 0.000433753 0)
(22.4967 0.000394148 0)
(22.4643 0.000359325 0)
(22.4358 0.000329046 0)
(22.4105 0.000302427 0)
(22.3881 0.000278575 0)
(22.3682 0.000257657 0)
(22.3503 0.00023869 0)
(22.3344 0.000221561 0)
(22.3201 0.000206859 0)
(22.3072 0.000193307 0)
(22.2956 0.000181483 0)
(22.2851 0.000170036 0)
(22.2756 0.000159968 0)
(22.2669 0.000150177 0)
(22.2591 0.000141001 0)
(22.252 0.000132956 0)
(22.2456 0.000124561 0)
(22.2398 0.000116208 0)
(22.2346 0.000108554 0)
(22.2298 0.000100673 0)
(22.2257 9.21869e-05 0)
(22.222 8.29068e-05 0)
(22.2189 7.2529e-05 0)
(22.2163 6.05094e-05 0)
(22.2143 4.62685e-05 0)
(22.2128 2.89502e-05 0)
(22.2122 7.77503e-06 0)
(22.2122 -1.70574e-05 0)
(22.2132 -4.78507e-05 0)
(22.2151 -8.5729e-05 0)
(22.2182 -0.000131189 0)
(22.2226 -0.000186029 0)
(22.2285 -0.0002518 0)
(22.2361 -0.000331602 0)
(22.2456 -0.000425676 0)
(22.2572 -0.000538555 0)
(22.2714 -0.000672089 0)
(22.2882 -0.000830386 0)
(22.3083 -0.00101505 0)
(22.3317 -0.00123527 0)
(22.3592 -0.00149163 0)
(22.3909 -0.00179441 0)
(22.4279 -0.00214599 0)
(22.47 -0.00255999 0)
(22.5187 -0.00304858 0)
(22.5649 -0.0035286 0)
(22.6049 -0.00395219 0)
(22.647 -0.00440251 0)
(22.6917 -0.00490685 0)
(22.7389 -0.00545656 0)
(22.7888 -0.00604922 0)
(22.8411 -0.00670506 0)
(22.8963 -0.00741737 0)
(22.954 -0.00821728 0)
(23.0151 -0.00906547 0)
(23.0782 -0.0100666 0)
(23.1462 -0.0110726 0)
(23.2147 -0.0123788 0)
(23.2911 -0.0135484 0)
(23.3647 -0.0153812 0)
(23.4529 -0.0166711 0)
(23.5298 -0.0194925 0)
(23.6368 -0.0207923 0)
(23.713 -0.0255123 0)
(23.8524 -0.0270404 0)
(23.9205 -0.0342486 0)
(24.1198 -0.0414676 0)
(24.1676 -0.0461669 0)
(24.4976 -0.0935854 0)
(24.4438 -0.124228 0)
(28.9991 0.028835 0)
(27.5601 0.0178716 0)
(26.8565 0.00810234 0)
(26.2972 0.00576219 0)
(25.8116 0.00446491 0)
(25.4268 0.00344934 0)
(25.1266 0.00273729 0)
(24.8863 0.00223978 0)
(24.6915 0.00186519 0)
(24.5321 0.00157695 0)
(24.4002 0.00135255 0)
(24.2896 0.00117414 0)
(24.1962 0.00102849 0)
(24.1167 0.00090921 0)
(24.0484 0.000808845 0)
(23.9897 0.000724565 0)
(23.9385 0.000652357 0)
(23.8941 0.000589753 0)
(23.8551 0.000536136 0)
(23.8209 0.000488969 0)
(23.7906 0.000447929 0)
(23.7639 0.000411825 0)
(23.7401 0.000379482 0)
(23.719 0.000351067 0)
(23.7001 0.00032536 0)
(23.6832 0.000302083 0)
(23.668 0.000282065 0)
(23.6543 0.000263688 0)
(23.6419 0.000247562 0)
(23.6307 0.000232003 0)
(23.6206 0.000218293 0)
(23.6114 0.000205026 0)
(23.6031 0.000192552 0)
(23.5956 0.000181603 0)
(23.5887 0.00017022 0)
(23.5825 0.000158842 0)
(23.5769 0.00014842 0)
(23.5719 0.000137717 0)
(23.5675 0.000126147 0)
(23.5635 0.000113504 0)
(23.5602 9.93463e-05 0)
(23.5573 8.29768e-05 0)
(23.5552 6.36086e-05 0)
(23.5536 4.00798e-05 0)
(23.5528 1.13049e-05 0)
(23.5528 -2.25759e-05 0)
(23.5537 -6.43716e-05 0)
(23.5557 -0.000115736 0)
(23.5589 -0.000177616 0)
(23.5634 -0.000252291 0)
(23.5695 -0.00034181 0)
(23.5773 -0.000450343 0)
(23.5872 -0.000578321 0)
(23.5992 -0.000731764 0)
(23.614 -0.000913222 0)
(23.6315 -0.00112832 0)
(23.6523 -0.00137931 0)
(23.6767 -0.00167831 0)
(23.7053 -0.00202623 0)
(23.7383 -0.00243712 0)
(23.7767 -0.00291388 0)
(23.8204 -0.00347537 0)
(23.8711 -0.00413622 0)
(23.919 -0.00478528 0)
(23.9604 -0.00536 0)
(24.0041 -0.00596878 0)
(24.0505 -0.00664824 0)
(24.0993 -0.00738982 0)
(24.1509 -0.00818848 0)
(24.205 -0.00907279 0)
(24.2622 -0.0100287 0)
(24.3216 -0.0111046 0)
(24.3847 -0.0122396 0)
(24.4497 -0.0135831 0)
(24.5196 -0.0149231 0)
(24.59 -0.0166714 0)
(24.6683 -0.0182209 0)
(24.7438 -0.0206603 0)
(24.8337 -0.0223621 0)
(24.9125 -0.0260861 0)
(25.0206 -0.0278022 0)
(25.0989 -0.0339523 0)
(25.2385 -0.0359179 0)
(25.3079 -0.0455882 0)
(25.508 -0.0532729 0)
(25.5488 -0.0636941 0)
(25.8862 -0.108658 0)
(25.8121 -0.152742 0)
(29.6853 0.0294706 0)
(28.6088 0.0202546 0)
(28.0632 0.00963036 0)
(27.5832 0.00713732 0)
(27.1317 0.00568663 0)
(26.7587 0.00446244 0)
(26.4608 0.00357484 0)
(26.2184 0.00294373 0)
(26.0199 0.0024622 0)
(25.8563 0.00208815 0)
(25.72 0.00179512 0)
(25.6054 0.00156108 0)
(25.5082 0.00136936 0)
(25.4253 0.00121192 0)
(25.3539 0.00107918 0)
(25.2923 0.000967483 0)
(25.2387 0.000871715 0)
(25.192 0.000788574 0)
(25.151 0.000717276 0)
(25.115 0.000654508 0)
(25.0831 0.000599854 0)
(25.055 0.000551727 0)
(25.0298 0.000508622 0)
(25.0075 0.000470676 0)
(24.9875 0.000436429 0)
(24.9696 0.000405325 0)
(24.9536 0.000378526 0)
(24.9391 0.000354027 0)
(24.926 0.000332394 0)
(24.9141 0.000311593 0)
(24.9034 0.000293225 0)
(24.8936 0.000275547 0)
(24.8848 0.000258872 0)
(24.8767 0.000244217 0)
(24.8695 0.000229045 0)
(24.8629 0.000213812 0)
(24.8569 0.000199865 0)
(24.8516 0.000185586 0)
(24.8468 0.000170096 0)
(24.8426 0.000153183 0)
(24.839 0.000134227 0)
(24.836 0.000112353 0)
(24.8336 8.65184e-05 0)
(24.8319 5.51766e-05 0)
(24.8309 1.68575e-05 0)
(24.8309 -2.84228e-05 0)
(24.8317 -8.40732e-05 0)
(24.8337 -0.000152344 0)
(24.8368 -0.00023478 0)
(24.8414 -0.000334354 0)
(24.8476 -0.000453728 0)
(24.8556 -0.00059834 0)
(24.8657 -0.000768862 0)
(24.8781 -0.000973164 0)
(24.8933 -0.00121467 0)
(24.9113 -0.00150091 0)
(24.9327 -0.00183502 0)
(24.9578 -0.00223259 0)
(24.9872 -0.002695 0)
(25.0212 -0.00324098 0)
(25.0607 -0.003874 0)
(25.1056 -0.00461953 0)
(25.1577 -0.00549491 0)
(25.2069 -0.00635394 0)
(25.2494 -0.00711684 0)
(25.2943 -0.00792295 0)
(25.3418 -0.00881909 0)
(25.3919 -0.00979799 0)
(25.4448 -0.0108514 0)
(25.5001 -0.0120178 0)
(25.5586 -0.0132735 0)
(25.6193 -0.0146884 0)
(25.6837 -0.0161757 0)
(25.75 -0.0179369 0)
(25.8211 -0.0196871 0)
(25.8928 -0.0219689 0)
(25.9721 -0.0239875 0)
(26.0489 -0.0271467 0)
(26.1393 -0.0293673 0)
(26.2197 -0.0341419 0)
(26.3274 -0.0363997 0)
(26.4075 -0.0441925 0)
(26.5454 -0.0467249 0)
(26.6165 -0.059245 0)
(26.8129 -0.0673547 0)
(26.8532 -0.0842963 0)
(27.1782 -0.126938 0)
(27.1149 -0.181705 0)
(30.3114 0.0290277 0)
(29.5571 0.0223628 0)
(29.1698 0.0110827 0)
(28.7823 0.00858816 0)
(28.3782 0.00706569 0)
(28.0265 0.00564952 0)
(27.7371 0.0045788 0)
(27.497 0.0038005 0)
(27.2975 0.00319655 0)
(27.1314 0.00272173 0)
(26.9921 0.00234669 0)
(26.8743 0.0020454 0)
(26.7739 0.00179746 0)
(26.6881 0.00159313 0)
(26.6139 0.00142041 0)
(26.5498 0.00127468 0)
(26.4938 0.00114958 0)
(26.445 0.0010408 0)
(26.4021 0.000947373 0)
(26.3643 0.000865028 0)
(26.3309 0.000793264 0)
(26.3013 0.000729997 0)
(26.2749 0.000673332 0)
(26.2514 0.000623337 0)
(26.2303 0.000578327 0)
(26.2114 0.000537317 0)
(26.1945 0.000501904 0)
(26.1791 0.000469677 0)
(26.1653 0.000441026 0)
(26.1527 0.000413572 0)
(26.1414 0.000389271 0)
(26.131 0.000366014 0)
(26.1217 0.000344016 0)
(26.1132 0.000324648 0)
(26.1054 0.000304692 0)
(26.0984 0.000284578 0)
(26.0921 0.00026616 0)
(26.0864 0.000247372 0)
(26.0813 0.00022693 0)
(26.0768 0.00020463 0)
(26.0729 0.000179624 0)
(26.0697 0.000150832 0)
(26.0671 0.0001169 0)
(26.0652 7.58068e-05 0)
(26.0641 2.56002e-05 0)
(26.0639 -3.39056e-05 0)
(26.0646 -0.000106843 0)
(26.0665 -0.000196164 0)
(26.0696 -0.000304097 0)
(26.0742 -0.000434613 0)
(26.0804 -0.000591173 0)
(26.0885 -0.000780658 0)
(26.0988 -0.00100407 0)
(26.1114 -0.00127155 0)
(26.1268 -0.00158759 0)
(26.1451 -0.0019621 0)
(26.1669 -0.0023994 0)
(26.1925 -0.0029191 0)
(26.2225 -0.0035233 0)
(26.2571 -0.00423647 0)
(26.2973 -0.00506267 0)
(26.3431 -0.0060356 0)
(26.3961 -0.00717574 0)
(26.4462 -0.00829313 0)
(26.4895 -0.00928784 0)
(26.5351 -0.0103373 0)
(26.5834 -0.0114992 0)
(26.6343 -0.0127689 0)
(26.6879 -0.0141343 0)
(26.7441 -0.015645 0)
(26.8033 -0.0172666 0)
(26.8648 -0.0190933 0)
(26.9299 -0.0210102 0)
(26.9969 -0.0232745 0)
(27.0685 -0.0255263 0)
(27.141 -0.0284429 0)
(27.2205 -0.0310391 0)
(27.298 -0.035041 0)
(27.3881 -0.0379116 0)
(27.4694 -0.0438885 0)
(27.5757 -0.0468565 0)
(27.6572 -0.056487 0)
(27.7917 -0.0598126 0)
(27.865 -0.0754349 0)
(28.0538 -0.0842951 0)
(28.0984 -0.107797 0)
(28.3998 -0.149183 0)
(28.3537 -0.212012 0)
(30.896 0.0272511 0)
(30.4261 0.0240555 0)
(30.1901 0.0123461 0)
(29.9034 0.0100374 0)
(29.5589 0.00856607 0)
(29.2387 0.0070025 0)
(28.965 0.00575654 0)
(28.732 0.0048254 0)
(28.5349 0.0040871 0)
(28.3688 0.00349765 0)
(28.2281 0.00302712 0)
(28.1083 0.00264625 0)
(28.0056 0.00233093 0)
(27.9174 0.00206989 0)
(27.8409 0.00184844 0)
(27.7746 0.00166096 0)
(27.7165 0.00149977 0)
(27.6658 0.00135929 0)
(27.621 0.0012384 0)
(27.5816 0.00113169 0)
(27.5467 0.00103859 0)
(27.5157 0.000956384 0)
(27.488 0.000882749 0)
(27.4633 0.000817613 0)
(27.4412 0.000759117 0)
(27.4213 0.000705638 0)
(27.4034 0.000659341 0)
(27.3873 0.000617407 0)
(27.3727 0.000579853 0)
(27.3594 0.000543996 0)
(27.3474 0.000512165 0)
(27.3365 0.000481878 0)
(27.3266 0.000453166 0)
(27.3176 0.000427824 0)
(27.3094 0.000401852 0)
(27.3019 0.000375589 0)
(27.2952 0.000351526 0)
(27.2891 0.000327073 0)
(27.2837 0.000300413 0)
(27.2789 0.000271357 0)
(27.2747 0.000238769 0)
(27.2712 0.000201334 0)
(27.2684 0.000157326 0)
(27.2662 0.000104149 0)
(27.265 3.92459e-05 0)
(27.2646 -3.78642e-05 0)
(27.2652 -0.000132184 0)
(27.2669 -0.000247513 0)
(27.27 -0.000386867 0)
(27.2745 -0.000555484 0)
(27.2807 -0.000757922 0)
(27.2888 -0.00100274 0)
(27.2991 -0.00129136 0)
(27.3117 -0.00163664 0)
(27.3272 -0.00204438 0)
(27.3457 -0.00252757 0)
(27.3677 -0.00309182 0)
(27.3935 -0.0037615 0)
(27.4239 -0.00453982 0)
(27.4588 -0.00545811 0)
(27.4994 -0.00652101 0)
(27.5457 -0.00777243 0)
(27.5992 -0.0092366 0)
(27.6497 -0.0106693 0)
(27.6933 -0.0119468 0)
(27.7394 -0.0132936 0)
(27.788 -0.0147793 0)
(27.8393 -0.0164022 0)
(27.8933 -0.0181468 0)
(27.9498 -0.0200733 0)
(28.0092 -0.0221382 0)
(28.0711 -0.0244606 0)
(28.1362 -0.0268968 0)
(28.2035 -0.0297621 0)
(28.275 -0.0326214 0)
(28.3476 -0.0362877 0)
(28.4267 -0.0395905 0)
(28.5044 -0.0445687 0)
(28.5934 -0.0482545 0)
(28.6751 -0.0555814 0)
(28.7791 -0.059489 0)
(28.8616 -0.0711068 0)
(28.9914 -0.0755845 0)
(29.0671 -0.0943895 0)
(29.2455 -0.104658 0)
(29.2963 -0.13425 0)
(29.5707 -0.17552 0)
(29.5383 -0.244384 0)
(31.4539 0.0238485 0)
(31.2334 0.0251698 0)
(31.1367 0.013287 0)
(30.9537 0.0113789 0)
(30.6785 0.0101235 0)
(30.3996 0.0084918 0)
(30.1495 0.00710115 0)
(29.9295 0.00602514 0)
(29.739 0.00514811 0)
(29.5758 0.00443397 0)
(29.4359 0.00385607 0)
(29.3156 0.00338365 0)
(29.2118 0.00298947 0)
(29.122 0.00266121 0)
(29.0438 0.00238142 0)
(28.9757 0.00214351 0)
(28.9159 0.00193846 0)
(28.8635 0.00175927 0)
(28.8171 0.0016047 0)
(28.7762 0.00146796 0)
(28.7399 0.00134849 0)
(28.7075 0.00124281 0)
(28.6786 0.0011481 0)
(28.6528 0.00106408 0)
(28.6296 0.000988792 0)
(28.6088 0.000919726 0)
(28.59 0.000859761 0)
(28.573 0.000805701 0)
(28.5577 0.000756913 0)
(28.5437 0.000710498 0)
(28.5311 0.000669157 0)
(28.5195 0.00063004 0)
(28.5091 0.000592905 0)
(28.4995 0.000560019 0)
(28.4908 0.000526505 0)
(28.4829 0.000492545 0)
(28.4758 0.000461387 0)
(28.4693 0.000429838 0)
(28.4636 0.000395414 0)
(28.4584 0.000357933 0)
(28.4539 0.000315895 0)
(28.4501 0.000267728 0)
(28.447 0.00021125 0)
(28.4447 0.000143196 0)
(28.4431 6.02491e-05 0)
(28.4425 -3.84835e-05 0)
(28.443 -0.000159039 0)
(28.4445 -0.000306257 0)
(28.4474 -0.000484066 0)
(28.4518 -0.000699262 0)