/*--------------------------------*- C++ -*----------------------------------*\
| =========                 |                                                 |
| \\      /  F ield         | OpenFOAM: The Open Source CFD Toolbox           |
|  \\    /   O peration     | Version:  2306                                  |
|   \\  /    A nd           | Website:  www.openfoam.com                      |
|    \\/     M anipulation  |                                                 |
\*---------------------------------------------------------------------------*/
FoamFile
{
    version     2.0;
    format      ascii;
    arch        "LSB;label=32;scalar=64";
    class       volVectorField;
    location    "1800";
    object      wallShearStress;
}
// * * * * * * * * * * * * * * * * * * * * * * * * * * * * * * * * * * * * * //

dimensions      [0 2 -2 0 0 0 0];

internalField   uniform (0 0 0);

boundaryField
{
    inlet
    {
        type            calculated;
        value           uniform (0 0 0);
    }
    outlet
    {
        type            calculated;
        value           uniform (0 0 0);
    }
    lowerWallStartup
    {
        type            symmetryPlane;
    }
    upperWallStartup
    {
        type            symmetryPlane;
    }
    upperWall
    {
        type            calculated;
        value           nonuniform List<vector> 
218
(
(-10.9085 0.00844362 0)
(-7.39447 0.000903508 0)
(-6.67872 0.000225648 0)
(-6.30347 0.000128958 0)
(-6.05976 8.68997e-05 0)
(-5.89252 6.24727e-05 0)
(-5.77194 4.74425e-05 0)
(-5.68042 3.76274e-05 0)
(-5.6089 3.06623e-05 0)
(-5.55186 2.55205e-05 0)
(-5.50548 2.16206e-05 0)
(-5.46722 1.85773e-05 0)
(-5.43526 1.61447e-05 0)
(-5.40832 1.41596e-05 0)
(-5.38542 1.25286e-05 0)
(-5.36578 1.11589e-05 0)
(-5.34887 9.99365e-06 0)
(-5.33421 8.99495e-06 0)
(-5.32147 8.13946e-06 0)
(-5.3103 7.3959e-06 0)
(-5.30053 6.75393e-06 0)
(-5.29187 6.17743e-06 0)
(-5.28427 5.67818e-06 0)
(-5.27747 5.22927e-06 0)
(-5.27148 4.83953e-06 0)
(-5.26607 4.47302e-06 0)
(-5.26132 4.16101e-06 0)
(-5.25696 3.87358e-06 0)
(-5.25314 3.61192e-06 0)
(-5.24962 3.39711e-06 0)
(-5.24648 3.19825e-06 0)
(-5.24358 3.02754e-06 0)
(-5.24097 2.84791e-06 0)
(-5.23858 2.69225e-06 0)
(-5.23642 2.54286e-06 0)
(-5.23442 2.44144e-06 0)
(-5.23256 2.33138e-06 0)
(-5.23088 2.22907e-06 0)
(-5.22929 2.18919e-06 0)
(-5.22779 2.15739e-06 0)
(-5.22636 2.18135e-06 0)
(-5.22491 2.23946e-06 0)
(-5.2235 2.32467e-06 0)
(-5.22205 2.4775e-06 0)
(-5.22054 2.72481e-06 0)
(-5.21891 3.05281e-06 0)
(-5.21713 3.45185e-06 0)
(-5.21518 4.01158e-06 0)
(-5.21295 4.68691e-06 0)
(-5.21045 5.54015e-06 0)
(-5.20756 6.5752e-06 0)
(-5.20427 7.803e-06 0)
(-5.20047 9.28618e-06 0)
(-5.19612 1.10115e-05 0)
(-5.19115 1.30505e-05 0)
(-5.18548 1.54075e-05 0)
(-5.17902 1.80816e-05 0)
(-5.17176 2.11067e-05 0)
(-5.16358 2.44645e-05 0)
(-5.15451 2.81995e-05 0)
(-5.1444 3.22521e-05 0)
(-5.13339 3.67063e-05 0)
(-5.1212 4.15747e-05 0)
(-5.11024 4.5695e-05 0)
(-5.10122 4.87551e-05 0)
(-5.09211 5.21817e-05 0)
(-5.08283 5.56211e-05 0)
(-5.07345 5.89342e-05 0)
(-5.06402 6.22413e-05 0)
(-5.05456 6.54321e-05 0)
(-5.04513 6.8618e-05 0)
(-5.03572 7.16311e-05 0)
(-5.02642 7.46623e-05 0)
(-5.01718 7.74625e-05 0)
(-5.00811 8.03137e-05 0)
(-4.99915 8.28785e-05 0)
(-4.9904 8.55386e-05 0)
(-4.9818 8.7885e-05 0)
(-4.9734 9.03283e-05 0)
(-4.96525 9.24053e-05 0)
(-4.95719 9.46943e-05 0)
(-4.94965 9.64019e-05 0)
(-4.94177 9.88373e-05 0)
(-4.93513 9.98093e-05 0)
(-4.92702 0.00010267 0)
(-4.92199 0.000104042 0)
(-4.91244 0.000107872 0)
(-4.91045 0.000153227 0)
(-4.90156 0.000213296 -1.24683e-20)
(-4.89437 0.000226356 0)
(-4.88858 0.000232332 1.23572e-20)
(-4.88238 0.000234138 -1.23017e-20)
(-4.87608 0.000233973 0)
(-4.86975 0.000233518 -1.21864e-20)
(-4.86336 0.000234102 0)
(-4.85691 0.000233884 0)
(-4.85038 0.000234498 0)
(-4.8438 0.000234197 0)
(-4.83713 0.00023475 1.18759e-20)
(-4.83041 0.000235035 0)
(-4.82361 0.000234799 -1.17428e-20)
(-4.81675 0.000235169 0)
(-4.80985 0.000234542 -1.16047e-20)
(-4.80288 0.000235016 1.15338e-20)
(-4.79587 0.000234487 0)
(-4.78878 0.000234836 1.13882e-20)
(-4.78165 0.000234548 0)
(-4.77447 0.000233928 -1.12378e-20)
(-4.76726 0.000234212 0)
(-4.75999 0.00023355 0)
(-4.75266 0.00023368 0)
(-4.74531 0.000232946 0)
(-4.73789 0.000232988 0)
(-4.73047 0.000232004 0)
(-4.72299 0.000232022 0)
(-4.71549 0.000231565 1.05898e-20)
(-4.70795 0.000230456 -1.05039e-20)
(-4.7004 0.000230534 1.04169e-20)
(-4.6928 0.000229444 -1.0329e-20)
(-4.68519 0.000229329 0)
(-4.67755 0.000227943 -1.01501e-20)
(-4.66991 0.000227734 0)
(-4.66224 0.000226401 -9.96743e-21)
(-4.65458 0.000226023 0)
(-4.6469 0.000225079 0)
(-4.63922 0.000223729 -9.68681e-21)
(-4.63153 0.000223149 0)
(-4.62386 0.000221496 -9.49563e-21)
(-4.6162 0.000220909 0)
(-4.60855 0.000219251 -9.30142e-21)
(-4.60091 0.0002186 0)
(-4.59329 0.000216889 -9.10441e-21)
(-4.58568 0.000216125 0)
(-4.5781 0.00021483 0)
(-4.57054 0.000213012 -8.80424e-21)
(-4.56301 0.000212312 0)
(-4.5555 0.00021032 -8.60138e-21)
(-4.54804 0.000209564 0)
(-4.5406 0.000207409 -8.39659e-21)
(-4.53321 0.000206691 0)
(-4.52583 0.000204644 -8.19019e-21)
(-4.51853 0.000203556 0)
(-4.51124 0.000201954 0)
(-4.50404 0.000199987 -7.87807e-21)
(-4.49684 0.000198877 0)
(-4.48976 0.000196662 -7.66868e-21)
(-4.48268 0.000195461 0)
(-4.47571 0.000193359 -7.45858e-21)
(-4.46874 0.000192026 0)
(-4.46192 0.000190158 0)
(-4.45503 0.000188446 -7.14269e-21)
(-4.44839 0.000187489 -7.03725e-21)
(-4.44157 0.000184249 0)
(-4.43517 0.000184352 -6.82652e-21)
(-4.42834 0.000180339 0)
(-4.42228 0.000180829 -6.61608e-21)
(-4.41541 0.000177076 0)
(-4.40967 0.000177085 -6.40619e-21)
(-4.4028 0.000173824 0)
(-4.39734 0.00017316 -6.19709e-21)
(-4.39053 0.000170943 -6.09315e-21)
(-4.3853 0.000168928 0)
(-4.3786 0.000167541 -5.88564e-21)
(-4.37358 0.00016514 0)
(-4.36704 0.000164015 -5.67945e-21)
(-4.36219 0.000161406 0)
(-4.35583 0.000160347 0)
(-4.35115 0.000158254 -5.37286e-21)
(-4.34498 0.000156345 5.27184e-21)
(-4.34045 0.000154962 -5.17087e-21)
(-4.33445 0.000152973 5.07082e-21)
(-4.33009 0.000151254 0)
(-4.3243 0.000149559 0)
(-4.32008 0.000147791 0)
(-4.31451 0.00014576 4.67517e-21)
(-4.31047 0.000144266 0)
(-4.30506 0.000142721 0)
(-4.30124 0.000140537 0)
(-4.29593 0.000139213 0)
(-4.29245 0.000137376 0)
(-4.28709 0.000135849 0)
(-4.28412 0.000134175 0)
(-4.27842 0.000132547 -3.91409e-21)
(-4.27641 0.000132209 3.82049e-21)
(-4.2695 9.76793e-05 0)
(-4.26852 9.92455e-05 0)
(-4.26521 8.77237e-05 -9.4255e-22)
(-4.26123 7.99213e-05 8.01316e-22)
(-4.25703 7.91039e-05 1.35656e-21)
(-4.25227 7.91971e-05 1.14228e-21)
(-4.24693 7.85357e-05 1.91163e-21)
(-4.24103 7.78242e-05 1.58753e-21)
(-4.23452 7.75735e-05 1.30632e-21)
(-4.22746 7.71758e-05 0)
(-4.21984 7.66839e-05 1.70495e-21)
(-4.21178 7.74413e-05 0)
(-4.20333 7.76863e-05 -2.06561e-21)
(-4.19469 7.95868e-05 0)
(-4.18604 8.07902e-05 0)
(-4.17789 8.36049e-05 0)
(-4.17017 8.71295e-05 0)
(-4.16394 9.19449e-05 0)
(-4.15891 9.61084e-05 0)
(-4.15649 0.000101098 -1.37139e-21)
(-4.15623 0.000104608 0)
(-4.15895 0.000106653 5.42927e-21)
(-4.16523 0.000104277 -6.00006e-21)
(-4.1732 9.95039e-05 6.09071e-21)
(-4.18674 8.11118e-05 0)
(-4.19818 6.44712e-05 1.08664e-20)
(-4.21902 8.74134e-06 0)
(-4.22871 -9.97582e-06 0)
(-4.25917 -0.000179426 0)
(-4.26009 -0.000126988 0)
(-4.31048 -0.000729478 0)
(-4.28742 -0.000152768 0)
(-4.4071 -0.00333993 -3.64957e-20)
(-4.07096 -0.00148368 0)
)
;
    }
    lowerWall
    {
        type            calculated;
        value           nonuniform List<vector> 
266
(
(-11.0029 -0.00875858 0)
(-7.43811 -0.000954228 0)
(-6.70858 -0.000238556 0)
(-6.33068 -0.000135817 0)
(-6.08472 -9.18571e-05 0)
(-5.91539 -6.62553e-05 0)
(-5.79305 -5.04292e-05 0)
(-5.70003 -4.00615e-05 0)
(-5.62727 -3.26892e-05 0)
(-5.56914 -2.7239e-05 0)
(-5.52186 -2.30977e-05 0)
(-5.4828 -1.98746e-05 0)
(-5.45014 -1.72783e-05 0)
(-5.42261 -1.51877e-05 0)
(-5.3991 -1.34405e-05 0)
(-5.37903 -1.19857e-05 0)
(-5.36162 -1.07495e-05 0)
(-5.34661 -9.68307e-06 0)
(-5.33346 -8.78042e-06 0)
(-5.322 -7.98173e-06 0)
(-5.31188 -7.29532e-06 0)
(-5.30299 -6.69353e-06 0)
(-5.29508 -6.15253e-06 0)
(-5.28809 -5.68135e-06 0)
(-5.28181 -5.25716e-06 0)
(-5.27628 -4.86659e-06 0)
(-5.27126 -4.54321e-06 0)
(-5.26678 -4.24343e-06 0)
(-5.26272 -3.98003e-06 0)
(-5.25906 -3.71899e-06 0)
(-5.25576 -3.49656e-06 0)
(-5.25275 -3.28003e-06 0)
(-5.25006 -3.07032e-06 0)
(-5.2476 -2.89752e-06 0)
(-5.24539 -2.71441e-06 0)
(-5.24339 -2.53092e-06 0)
(-5.24159 -2.37128e-06 0)
(-5.23997 -2.20757e-06 0)
(-5.23854 -2.02637e-06 0)
(-5.23727 -1.8371e-06 0)
(-5.23618 -1.62979e-06 0)
(-5.23526 -1.38793e-06 0)
(-5.23455 -1.10954e-06 0)
(-5.23403 -7.671e-07 0)
(-5.23375 -3.55225e-07 0)
(-5.23372 1.22052e-07 0)
(-5.23397 7.33495e-07 0)
(-5.23456 1.44809e-06 0)
(-5.23551 2.30656e-06 0)
(-5.23688 3.34798e-06 0)
(-5.23872 4.58474e-06 0)
(-5.24109 6.11391e-06 0)
(-5.2441 7.88556e-06 0)
(-5.24777 1.00525e-05 0)
(-5.25227 1.25911e-05 0)
(-5.25762 1.55913e-05 0)
(-5.26401 1.91165e-05 0)
(-5.27146 2.33143e-05 0)
(-5.28029 2.82625e-05 0)
(-5.29043 3.40402e-05 0)
(-5.3023 4.08153e-05 0)
(-5.31584 4.87161e-05 0)
(-5.33155 5.83943e-05 0)
(-5.34654 6.79054e-05 0)
(-5.35951 7.59257e-05 0)
(-5.37319 8.51049e-05 0)
(-5.38779 9.51142e-05 0)
(-5.40326 0.000105932 0)
(-5.41963 0.000117751 0)
(-5.43688 0.000130676 0)
(-5.45511 0.000145385 0)
(-5.47436 0.000161125 0)
(-5.49465 0.000179175 0)
(-5.51603 0.000198698 0)
(-5.53871 0.000221516 0)
(-5.56242 0.000245823 0)
(-5.58805 0.000275811 0)
(-5.61425 0.000306888 0)
(-5.64407 0.000348942 0)
(-5.67261 0.000389793 0)
(-5.70947 0.000453666 0)
(-5.73887 0.000516063 0)
(-5.79067 0.000628327 0)
(-5.81628 0.000690358 0)
(-5.89635 0.00114322 0)
(-5.93369 0.000972755 0)
(-6.03544 0.00212822 0)
(-6.16185 0.0714654 0)
(-174.192 8099.51 0)
(0.00913341 0.00144717 -0)
(0.00632599 0.000330117 -8.88035e-24)
(0.00488041 -0.000425894 6.68338e-24)
(0.00250649 -0.000741501 0)
(0.00397768 -0.00105248 0)
(0.00414837 -0.00129263 0)
(0.00400181 -0.00147363 0)
(0.00376204 -0.0016045 0)
(0.00349007 -0.00170292 -1.59003e-22)
(0.00315733 -0.00177649 2.44679e-22)
(0.00275817 -0.00182561 -7.39772e-22)
(0.00229194 -0.00184452 1.0628e-21)
(0.00175696 -0.0018202 0)
(0.0011573 -0.00173036 4.624e-21)
(0.000515451 -0.00154314 -7.03169e-21)
(-0.000110494 -0.00122244 0)
(-0.000602509 -0.00074467 0)
(-0.000749625 -0.000132282 -0)
(-0.000184428 0.00048777 2.29694e-19)
(0.00174609 0.000656491 -4.07326e-19)
(0.00559271 -0.00115609 1.165e-18)
(0.0100088 -0.0068201 -1.09126e-18)
(0.0120625 -0.0152663 0)
(0.011785 -0.0233737 1.17818e-18)
(0.0108818 -0.0298161 -1.0513e-18)
(0.0100778 -0.035327 0)
(0.00952955 -0.0396793 0)
(0.00940325 -0.0432206 0)
(0.00974505 -0.0462161 0)
(0.0105375 -0.0488384 0)
(0.0117075 -0.0511956 0)
(0.0131632 -0.0533316 -8.38516e-19)
(0.0147839 -0.0552742 -1.19783e-22)
(0.0164597 -0.0570336 8.08879e-19)
(0.0180472 -0.0586228 0)
(0.0192112 -0.0611029 0)
(0.01827 -0.0723153 0)
(0.00836889 -0.110993 0)
(-0.0206979 -0.18085 0)
(-0.0640929 -0.240696 1.48704e-19)
(-0.119974 -0.30297 -1.22512e-19)
(-0.179833 -0.348484 -0)
(-0.239022 -0.378379 0)
(-0.2958 -0.395561 0)
(-0.349509 -0.403376 -9.57583e-20)
(-0.385686 -0.40507 1.07858e-19)
(-0.405454 -0.474683 0)
(0.251498 0.0461899 0)
(-0.707416 0.00279087 -1.84052e-21)
(-0.00140019 0.000592374 0)
(-0.0234481 -0.000293029 -3.68145e-22)
(-0.00601625 0.000166479 0)
(0.033715 0.000329573 0)
(0.0939817 -0.000751341 0)
(0.120968 -0.000552843 0)
(0.173108 -0.000272179 0)
(0.232847 -0.000309244 -2.48969e-22)
(0.301074 -0.000348391 0)
(0.377713 -0.000387612 0)
(0.462688 -0.000426127 0)
(0.555578 -0.000463415 0)
(0.655913 -0.00049919 0)
(0.763067 -0.00053323 0)
(0.876352 -0.000565338 0)
(0.994984 -0.000595312 0)
(1.11811 -0.000622911 0)
(1.2448 -0.000647877 0)
(1.37407 -0.000669939 2.49479e-22)
(1.50485 -0.000688813 0)
(1.63605 -0.000704258 2.47853e-22)
(1.76652 -0.000716028 0)
(1.89511 -0.000723941 2.44955e-22)
(2.02064 -0.000727854 0)
(2.14194 -0.00072769 2.40531e-22)
(2.25788 -0.000723431 0)
(2.36737 -0.000715116 0)
(2.46934 -0.000702858 0)
(2.56284 -0.000686816 2.26433e-22)
(2.64697 -0.000667172 2.21762e-22)
(2.72091 -0.000644159 2.16638e-22)
(2.78395 -0.00061804 2.11072e-22)
(2.83548 -0.000589102 2.05084e-22)
(2.87499 -0.000557603 0)
(2.90209 -0.000523832 -0)
(2.91648 -0.000487962 1.84828e-22)
(2.91797 -0.000450369 1.77416e-22)
(2.90648 -0.000411123 1.69734e-22)
(2.88201 -0.000370414 1.61821e-22)
(2.84466 -0.000328353 1.53719e-22)
(2.79461 -0.00028489 1.4547e-22)
(2.73212 -0.000239671 0)
(2.65742 -0.000192955 1.28698e-22)
(2.57096 -0.000144244 1.20258e-22)
(2.47302 -9.31359e-05 1.11839e-22)
(2.36411 -3.94328e-05 1.03477e-22)
(2.24463 1.74159e-05 9.5211e-23)
(2.11514 7.771e-05 8.70765e-23)
(1.97612 0.000142304 0)
(1.82805 0.00021186 7.13275e-23)
(1.6713 0.000287474 6.37689e-23)
(1.50628 0.000369568 5.64564e-23)
(1.33322 0.000458698 4.94089e-23)
(1.1528 0.000554621 4.2653e-23)
(0.964781 0.000658253 3.61923e-23)
(0.770682 0.000768469 0)
(0.568512 0.000886601 2.42368e-23)
(0.362817 0.00173804 0)
(0.187431 -0.000198894 0)
(-0.101645 -0.00211703 0)
(-0.267425 0.00129483 -4.50457e-24)
(-0.459545 0.00086137 -0)
(-0.645003 0.000757711 -0)
(-0.820507 0.000666002 0)
(-0.988454 0.000584909 -0)
(-1.14813 0.000514223 0)
(-1.30043 0.000452531 -0)
(-1.44536 0.00039937 2.09276e-23)
(-1.58341 0.000353614 0)
(-1.71479 0.000314498 0)
(-1.83985 0.000281102 -0)
(-1.95885 0.000252705 3.11903e-23)
(-2.07208 0.000228584 0)
(-2.17979 0.000208131 0)
(-2.28224 0.000190761 -0)
(-2.37968 0.000176013 0)
(-2.47233 0.000163404 -0)
(-2.56044 0.000152723 -0)
(-2.64417 0.000143434 4.28214e-23)
(-2.72381 0.000135652 0)
(-2.79942 0.000128501 -0)
(-2.8714 0.000122888 4.58545e-23)
(-2.93961 0.000116892 -0)
(-3.00472 0.000113257 4.73696e-23)
(-3.06612 0.000107252 0)
(-3.12517 0.00010621 0)
(-3.18015 9.81985e-05 -4.89842e-23)
(-3.23409 0.000101963 -0)
(-3.2827 8.8023e-05 4.96922e-23)
(-3.33295 0.000101351 0)
(-3.37419 7.59996e-05 -0)
(-3.42417 0.000101961 0)
(-3.45283 5.60787e-05 0)
(-3.50979 0.000119187 -0)
(-3.52318 3.55665e-05 5.01805e-23)
(-3.56043 0.000201055 0)
(-3.60247 9.42685e-05 -0)
(-3.62511 0.000151577 5.97407e-21)
(-3.66566 0.000120687 1.03351e-20)
(-3.69857 0.000126765 0)
(-3.73908 0.00012115 0)
(-3.77859 0.000121417 0)
(-3.82132 0.000120908 -0)
(-3.86424 0.000122052 0)
(-3.90809 0.00012455 -1.71034e-20)
(-3.95116 0.000128731 0)
(-3.99335 0.000134835 -2.4747e-20)
(-4.03283 0.000142993 2.0872e-20)
(-4.07001 0.000152876 0)
(-4.10208 0.000164535 0)
(-4.13149 0.000176771 0)
(-4.15314 0.000189569 3.94596e-20)
(-4.17375 0.000201206 -3.21677e-20)
(-4.18329 0.000211606 0)
(-4.19645 0.00022002 4.18457e-20)
(-4.19347 0.000225359 0)
(-4.20267 0.000231499 5.34348e-20)
(-4.18717 0.000231819 0)
(-4.19709 0.000242968 0)
(-4.16883 0.000238849 0)
(-4.18282 0.000268666 0)
(-4.14128 0.000254013 0)
(-4.15826 0.000321895 1.0824e-19)
(-4.10359 0.000273035 -5.76256e-20)
(-4.11164 0.000409804 0)
(-4.05577 0.000280854 2.01934e-20)
(-4.00582 0.000517163 0)
(-4.0288 0.000110143 0)
)
;
    }
    front
    {
        type            empty;
    }
    back
    {
        type            empty;
    }
}


// ************************************************************************* //
