/*--------------------------------*- C++ -*----------------------------------*\
| =========                 |                                                 |
| \\      /  F ield         | OpenFOAM: The Open Source CFD Toolbox           |
|  \\    /   O peration     | Version:  2306                                  |
|   \\  /    A nd           | Website:  www.openfoam.com                      |
|    \\/     M anipulation  |                                                 |
\*---------------------------------------------------------------------------*/
FoamFile
{
    version     2.0;
    format      ascii;
    arch        "LSB;label=32;scalar=64";
    class       volScalarField;
    location    "600";
    object      cp;
}
// * * * * * * * * * * * * * * * * * * * * * * * * * * * * * * * * * * * * * //

dimensions      [0 0 0 0 0 0 0];

internalField   nonuniform List<scalar> 
20540
(
65.1682
65.1778
65.1682
65.1778
65.1682
65.1778
65.1682
65.1778
65.1682
65.1778
65.1682
65.1778
65.1682
65.1778
65.1682
65.1778
65.1682
65.1778
65.1682
65.1778
65.1682
65.1778
65.1682
65.1778
65.1682
65.1777
65.1682
65.1777
65.1682
65.1777
65.1682
65.1777
65.1682
65.1777
65.1682
65.1776
65.1682
65.1776
65.1682
65.1775
65.1682
65.1775
65.1682
65.1774
65.1682
65.1774
65.1681
65.1773
65.1681
65.1772
65.1681
65.1771
65.1681
65.177
65.1681
65.1769
65.1681
65.1768
65.1681
65.1767
65.168
65.1766
65.168
65.1766
65.168
65.1766
65.168
65.1767
65.168
65.1768
65.168
65.1769
65.168
65.177
65.168
65.1772
65.168
65.1773
65.168
65.1774
65.168
65.1775
65.168
65.1776
65.168
65.1776
65.168
65.1777
65.168
65.1777
65.168
65.1778
65.168
65.1778
65.168
65.1779
65.168
65.1779
65.168
65.1779
65.168
65.1779
65.168
65.1779
65.168
65.178
65.168
65.178
65.168
65.178
65.168
65.178
65.168
65.178
65.168
65.178
65.168
65.178
65.168
65.178
65.168
65.178
65.168
65.178
65.168
65.178
65.168
65.178
65.168
65.178
65.1857
65.191
65.1937
65.1957
65.1903
65.186
65.1769
65.1707
65.1605
65.1524
65.1402
65.1294
65.115
65.1013
65.0845
65.0682
65.049
65.0299
65.0083
64.9865
64.9626
64.9382
64.912
64.8853
64.8571
64.8284
64.7986
64.7684
64.7374
64.7061
64.6743
64.6422
64.6097
64.5769
64.5436
64.51
64.4761
64.4418
64.4074
64.3728
64.3381
64.3031
64.2682
64.2336
64.1993
64.1649
64.1305
64.0964
64.0626
64.0287
63.9949
63.9616
63.9284
63.8954
63.8613
63.8271
63.7916
63.7559
63.7193
63.683
63.6461
63.6101
63.5732
63.5391
63.5046
63.4691
63.4338
63.3977
63.3619
63.3249
63.2886
63.2488
63.2077
63.1646
63.1204
63.076
63.0283
62.9758
62.9187
62.8616
62.8015
62.7432
62.6809
62.6202
62.5533
62.4922
62.4128
62.3405
65.1857
65.191
65.1937
65.1957
65.1903
65.186
65.1769
65.1707
65.1605
65.1524
65.1402
65.1294
65.115
65.1013
65.0845
65.0682
65.049
65.0299
65.0083
64.9865
64.9626
64.9382
64.912
64.8853
64.8571
64.8284
64.7986
64.7684
64.7374
64.7061
64.6743
64.6422
64.6097
64.5769
64.5436
64.51
64.4761
64.4418
64.4074
64.3728
64.3381
64.3031
64.2682
64.2336
64.1993
64.1649
64.1305
64.0964
64.0626
64.0287
63.9949
63.9616
63.9284
63.8954
63.8613
63.8271
63.7916
63.7559
63.7193
63.683
63.6461
63.6101
63.5732
63.5391
63.5046
63.4691
63.4338
63.3977
63.3619
63.3249
63.2886
63.2488
63.2077
63.1646
63.1204
63.076
63.0283
62.9758
62.9187
62.8617
62.8015
62.7433
62.6809
62.6202
62.5533
62.4922
62.4127
62.3415
65.1857
65.191
65.1937
65.1957
65.1903
65.186
65.1769
65.1707
65.1605
65.1524
65.1402
65.1294
65.115
65.1013
65.0845
65.0682
65.049
65.0299
65.0083
64.9865
64.9626
64.9382
64.912
64.8853
64.8571
64.8284
64.7986
64.7684
64.7374
64.7061
64.6743
64.6422
64.6097
64.5769
64.5436
64.51
64.4761
64.4418
64.4074
64.3728
64.3381
64.3031
64.2682
64.2336
64.1993
64.1649
64.1305
64.0964
64.0626
64.0287
63.9949
63.9616
63.9284
63.8954
63.8613
63.8271
63.7916
63.7559
63.7193
63.683
63.6461
63.6101
63.5732
63.5391
63.5046
63.4691
63.4338
63.3977
63.3619
63.3249
63.2886
63.2488
63.2077
63.1646
63.1204
63.076
63.0283
62.9758
62.9187
62.8617
62.8015
62.7433
62.6809
62.6202
62.5533
62.4923
62.4126
62.3427
65.1857
65.191
65.1937
65.1957
65.1903
65.186
65.1769
65.1707
65.1605
65.1524
65.1402
65.1294
65.115
65.1013
65.0845
65.0682
65.049
65.0299
65.0083
64.9865
64.9626
64.9382
64.912
64.8853
64.8571
64.8284
64.7986
64.7684
64.7374
64.7061
64.6743
64.6422
64.6097
64.5769
64.5436
64.51
64.4761
64.4418
64.4074
64.3728
64.3381
64.3031
64.2682
64.2336
64.1993
64.1649
64.1305
64.0964
64.0626
64.0287
63.9949
63.9616
63.9284
63.8954
63.8613
63.8271
63.7916
63.7559
63.7193
63.683
63.6461
63.6101
63.5732
63.5391
63.5046
63.4691
63.4338
63.3977
63.3619
63.3249
63.2886
63.2488
63.2077
63.1646
63.1204
63.076
63.0283
62.9758
62.9187
62.8617
62.8016
62.7433
62.6809
62.6203
62.5534
62.4923
62.4125
62.3442
65.1857
65.191
65.1937
65.1957
65.1903
65.186
65.1769
65.1707
65.1605
65.1524
65.1402
65.1294
65.115
65.1013
65.0845
65.0682
65.049
65.0299
65.0083
64.9865
64.9626
64.9382
64.912
64.8853
64.8571
64.8284
64.7986
64.7684
64.7374
64.7061
64.6743
64.6422
64.6097
64.5769
64.5436
64.51
64.4761
64.4418
64.4074
64.3728
64.3381
64.3031
64.2682
64.2336
64.1993
64.1649
64.1305
64.0964
64.0626
64.0287
63.9949
63.9616
63.9284
63.8954
63.8613
63.8271
63.7916
63.7559
63.7193
63.683
63.6461
63.6101
63.5732
63.5391
63.5046
63.4691
63.4338
63.3977
63.3619
63.3249
63.2886
63.2488
63.2077
63.1646
63.1204
63.076
63.0283
62.9758
62.9187
62.8617
62.8016
62.7433
62.681
62.6204
62.5534
62.4923
62.4123
62.3457
65.1857
65.191
65.1937
65.1957
65.1903
65.186
65.1769
65.1707
65.1605
65.1524
65.1402
65.1294
65.115
65.1013
65.0845
65.0682
65.049
65.0299
65.0083
64.9865
64.9626
64.9382
64.912
64.8853
64.8571
64.8284
64.7986
64.7684
64.7374
64.7061
64.6743
64.6422
64.6097
64.5769
64.5436
64.51
64.4761
64.4418
64.4074
64.3728
64.3381
64.3031
64.2682
64.2336
64.1993
64.1649
64.1305
64.0964
64.0626
64.0287
63.9949
63.9616
63.9284
63.8954
63.8613
63.8271
63.7916
63.7559
63.7193
63.683
63.6461
63.6101
63.5732
63.5391
63.5046
63.4691
63.4338
63.3977
63.3619
63.3249
63.2886
63.2488
63.2077
63.1646
63.1204
63.076
63.0284
62.9758
62.9187
62.8617
62.8016
62.7434
62.6811
62.6205
62.5535
62.4923
62.4122
62.347
65.1857
65.191
65.1937
65.1957
65.1903
65.186
65.1769
65.1707
65.1605
65.1524
65.1402
65.1294
65.115
65.1013
65.0845
65.0682
65.049
65.0299
65.0083
64.9865
64.9626
64.9382
64.912
64.8853
64.8571
64.8284
64.7986
64.7684
64.7374
64.7061
64.6743
64.6422
64.6097
64.5769
64.5436
64.51
64.4761
64.4418
64.4074
64.3728
64.3381
64.3031
64.2682
64.2336
64.1993
64.1649
64.1305
64.0964
64.0626
64.0287
63.9949
63.9616
63.9284
63.8954
63.8613
63.8271
63.7916
63.7559
63.7193
63.683
63.6461
63.6101
63.5732
63.5391
63.5046
63.4691
63.4338
63.3977
63.362
63.3249
63.2886
63.2488
63.2077
63.1646
63.1204
63.076
63.0284
62.9759
62.9188
62.8618
62.8017
62.7435
62.6813
62.6207
62.5537
62.4925
62.4123
62.3482
65.1857
65.191
65.1937
65.1957
65.1903
65.186
65.1769
65.1707
65.1605
65.1524
65.1402
65.1294
65.115
65.1013
65.0845
65.0682
65.049
65.0299
65.0083
64.9865
64.9626
64.9382
64.912
64.8853
64.8571
64.8284
64.7986
64.7684
64.7374
64.7061
64.6743
64.6422
64.6097
64.5769
64.5436
64.51
64.4761
64.4418
64.4074
64.3728
64.3381
64.3031
64.2682
64.2336
64.1993
64.1649
64.1305
64.0964
64.0626
64.0287
63.9949
63.9616
63.9284
63.8954
63.8613
63.8271
63.7916
63.7559
63.7193
63.683
63.6461
63.6101
63.5732
63.5391
63.5046
63.4691
63.4338
63.3977
63.362
63.3249
63.2886
63.2488
63.2077
63.1646
63.1205
63.076
63.0284
62.9759
62.9188
62.8618
62.8019
62.7437
62.6816
62.6211
62.554
62.4932
62.4133
62.3496
65.1857
65.191
65.1937
65.1957
65.1903
65.186
65.1769
65.1707
65.1605
65.1524
65.1402
65.1294
65.115
65.1013
65.0845
65.0682
65.049
65.0299
65.0083
64.9865
64.9626
64.9382
64.912
64.8853
64.8571
64.8284
64.7986
64.7684
64.7374
64.7061
64.6743
64.6422
64.6097
64.5769
64.5436
64.51
64.4761
64.4418
64.4074
64.3728
64.3381
64.3031
64.2682
64.2336
64.1993
64.1649
64.1305
64.0964
64.0626
64.0287
63.9949
63.9616
63.9284
63.8954
63.8613
63.8271
63.7916
63.7559
63.7193
63.683
63.6461
63.6101
63.5732
63.5391
63.5046
63.4691
63.4338
63.3977
63.362
63.3249
63.2886
63.2488
63.2077
63.1646
63.1205
63.0761
63.0285
62.976
62.919
62.862
62.8023
62.744
62.6821
62.6216
62.5548
62.4943
62.4146
62.3506
65.1857
65.191
65.1937
65.1957
65.1903
65.186
65.1769
65.1707
65.1605
65.1524
65.1402
65.1294
65.115
65.1013
65.0845
65.0682
65.049
65.0299
65.0083
64.9865
64.9626
64.9382
64.912
64.8853
64.8571
64.8284
64.7986
64.7684
64.7374
64.7061
64.6743
64.6422
64.6097
64.5769
64.5436
64.51
64.4761
64.4418
64.4074
64.3728
64.3381
64.3031
64.2682
64.2336
64.1993
64.1649
64.1305
64.0964
64.0626
64.0287
63.9949
63.9616
63.9284
63.8954
63.8613
63.8271
63.7916
63.7559
63.7193
63.683
63.6461
63.6101
63.5733
63.5391
63.5046
63.4691
63.4338
63.3977
63.362
63.3249
63.2885
63.2488
63.2077
63.1646
63.1205
63.0761
63.0286
62.9761
62.9192
62.8622
62.8027
62.7444
62.6827
62.6223
62.5557
62.4951
62.416
62.3522
65.1856
65.191
65.1937
65.1957
65.1903
65.186
65.1769
65.1707
65.1605
65.1524
65.1402
65.1294
65.115
65.1013
65.0845
65.0682
65.049
65.0299
65.0083
64.9865
64.9626
64.9382
64.912
64.8853
64.8571
64.8284
64.7986
64.7684
64.7374
64.7061
64.6743
64.6422
64.6097
64.5769
64.5436
64.51
64.4761
64.4418
64.4074
64.3728
64.3381
64.3031
64.2682
64.2336
64.1993
64.1649
64.1305
64.0964
64.0626
64.0287
63.9949
63.9616
63.9284
63.8954
63.8613
63.8271
63.7916
63.7559
63.7193
63.683
63.6461
63.6101
63.5733
63.539
63.5046
63.4691
63.4338
63.3977
63.362
63.3249
63.2885
63.2488
63.2077
63.1647
63.1206
63.0762
63.0287
62.9762
62.9194
62.8624
62.8032
62.7448
62.6834
62.6231
62.5569
62.4961
62.4181
62.3542
65.1856
65.191
65.1937
65.1957
65.1903
65.186
65.1769
65.1707
65.1605
65.1524
65.1402
65.1294
65.115
65.1013
65.0845
65.0682
65.049
65.0299
65.0083
64.9865
64.9626
64.9382
64.912
64.8853
64.8571
64.8284
64.7986
64.7684
64.7374
64.7061
64.6743
64.6422
64.6097
64.5769
64.5436
64.51
64.4761
64.4418
64.4074
64.3728
64.3381
64.3031
64.2682
64.2336
64.1993
64.1649
64.1305
64.0964
64.0626
64.0287
63.9949
63.9616
63.9284
63.8954
63.8613
63.8271
63.7916
63.7559
63.7193
63.683
63.6462
63.6102
63.5733
63.539
63.5046
63.4691
63.4338
63.3977
63.362
63.3249
63.2885
63.2488
63.2077
63.1647
63.1207
63.0763
63.0287
62.9763
62.9197
62.8627
62.8037
62.7455
62.6843
62.6242
62.5585
62.4975
62.4211
62.3557
65.1856
65.191
65.1937
65.1957
65.1903
65.186
65.1769
65.1707
65.1605
65.1524
65.1402
65.1294
65.115
65.1013
65.0845
65.0682
65.049
65.0299
65.0083
64.9865
64.9626
64.9382
64.912
64.8853
64.8571
64.8284
64.7986
64.7684
64.7374
64.7061
64.6743
64.6422
64.6097
64.5769
64.5436
64.51
64.4761
64.4418
64.4074
64.3728
64.3381
64.3031
64.2682
64.2336
64.1993
64.1649
64.1305
64.0964
64.0626
64.0287
63.9949
63.9616
63.9284
63.8954
63.8613
63.8271
63.7916
63.7559
63.7193
63.683
63.6462
63.6102
63.5734
63.539
63.5047
63.469
63.4338
63.3976
63.362
63.3249
63.2884
63.2488
63.2077
63.1648
63.1208
63.0763
63.0288
62.9764
62.92
62.8631
62.8045
62.7463
62.6857
62.6257
62.5606
62.4993
62.4249
62.3566
65.1856
65.191
65.1937
65.1957
65.1903
65.186
65.1769
65.1707
65.1605
65.1524
65.1402
65.1294
65.115
65.1013
65.0845
65.0682
65.049
65.0299
65.0083
64.9865
64.9626
64.9382
64.912
64.8853
64.8571
64.8284
64.7986
64.7684
64.7374
64.7061
64.6743
64.6422
64.6097
64.5769
64.5436
64.51
64.4761
64.4418
64.4074
64.3728
64.3381
64.3031
64.2682
64.2336
64.1993
64.1649
64.1305
64.0964
64.0626
64.0287
63.9949
63.9616
63.9284
63.8954
63.8613
63.8271
63.7916
63.7559
63.7193
63.683
63.6462
63.6102
63.5734
63.5389
63.5047
63.469
63.4337
63.3976
63.362
63.3249
63.2883
63.2488
63.2077
63.1649
63.1209
63.0763
63.0288
62.9765
62.9205
62.8638
62.8056
62.7476
62.6875
62.6277
62.5636
62.5017
62.4298
62.3582
65.1856
65.191
65.1937
65.1957
65.1903
65.186
65.1769
65.1707
65.1605
65.1524
65.1402
65.1294
65.115
65.1013
65.0845
65.0682
65.049
65.0299
65.0083
64.9865
64.9626
64.9382
64.912
64.8853
64.8571
64.8284
64.7986
64.7684
64.7374
64.7061
64.6743
64.6422
64.6097
64.5769
64.5436
64.51
64.4761
64.4418
64.4074
64.3728
64.3381
64.3031
64.2682
64.2336
64.1993
64.1649
64.1305
64.0964
64.0626
64.0287
63.9949
63.9616
63.9284
63.8954
63.8613
63.8271
63.7916
63.7559
63.7194
63.683
63.6463
63.6103
63.5735
63.5389
63.5047
63.4689
63.4337
63.3976
63.362
63.3249
63.2881
63.2487
63.2077
63.1649
63.121
63.0763
63.0287
62.9767
62.9212
62.8647
62.8072
62.7495
62.69
62.6306
62.5676
62.5052
62.4361
62.3623
65.1856
65.191
65.1937
65.1957
65.1903
65.186
65.1769
65.1707
65.1605
65.1524
65.1402
65.1294
65.115
65.1013
65.0845
65.0682
65.049
65.0299
65.0083
64.9865
64.9626
64.9382
64.912
64.8853
64.8571
64.8284
64.7986
64.7684
64.7374
64.7061
64.6743
64.6422
64.6097
64.5769
64.5436
64.51
64.4761
64.4418
64.4074
64.3728
64.3381
64.3031
64.2682
64.2336
64.1993
64.1649
64.1305
64.0965
64.0626
64.0287
63.9949
63.9616
63.9284
63.8953
63.8613
63.8271
63.7916
63.7559
63.7194
63.683
63.6463
63.6104
63.5736
63.5387
63.5047
63.4689
63.4337
63.3976
63.362
63.3249
63.2879
63.2485
63.2075
63.1649
63.121
63.0761
63.0286
62.9769
62.9221
62.8662
62.8093
62.752
62.6935
62.6344
62.5729
62.5102
62.444
62.3709
65.1856
65.1911
65.1937
65.1957
65.1903
65.186
65.1769
65.1707
65.1605
65.1524
65.1402
65.1294
65.115
65.1013
65.0845
65.0682
65.049
65.0299
65.0083
64.9865
64.9626
64.9382
64.912
64.8853
64.8571
64.8284
64.7986
64.7684
64.7374
64.7061
64.6743
64.6422
64.6097
64.5769
64.5437
64.51
64.4761
64.4418
64.4074
64.3728
64.3381
64.3032
64.2682
64.2336
64.1993
64.1649
64.1306
64.0965
64.0626
64.0287
63.995
63.9616
63.9284
63.8953
63.8613
63.827
63.7916
63.7559
63.7194
63.6831
63.6464
63.6105
63.5738
63.5386
63.5047
63.4688
63.4337
63.3976
63.3619
63.3248
63.2876
63.2483
63.2073
63.1648
63.121
63.0759
63.0284
62.9773
62.9234
62.8682
62.8122
62.7555
62.698
62.6396
62.5796
62.5175
62.4541
62.3847
65.1856
65.1911
65.1937
65.1957
65.1903
65.186
65.1769
65.1707
65.1605
65.1524
65.1402
65.1294
65.115
65.1013
65.0845
65.0682
65.049
65.0299
65.0083
64.9865
64.9626
64.9382
64.912
64.8853
64.8571
64.8284
64.7986
64.7684
64.7374
64.7061
64.6743
64.6422
64.6097
64.5769
64.5437
64.51
64.4761
64.4418
64.4074
64.3728
64.3381
64.3032
64.2683
64.2337
64.1993
64.165
64.1306
64.0965
64.0626
64.0287
63.995
63.9616
63.9284
63.8953
63.8613
63.827
63.7916
63.7559
63.7194
63.6831
63.6465
63.6106
63.5739
63.5385
63.5047
63.4688
63.4336
63.3976
63.3618
63.3248
63.2872
63.248
63.2071
63.1647
63.1209
63.0758
63.0285
62.978
62.9251
62.8708
62.8158
62.7601
62.7037
62.6463
62.588
62.5277
62.4673
62.4034
65.1856
65.1911
65.1937
65.1957
65.1903
65.186
65.1769
65.1707
65.1605
65.1524
65.1402
65.1294
65.115
65.1013
65.0845
65.0682
65.049
65.0299
65.0083
64.9865
64.9626
64.9382
64.912
64.8853
64.8571
64.8284
64.7986
64.7684
64.7374
64.7061
64.6743
64.6422
64.6097
64.5769
64.5437
64.51
64.4761
64.4418
64.4074
64.3728
64.3381
64.3032
64.2683
64.2337
64.1993
64.165
64.1306
64.0965
64.0626
64.0287
63.995
63.9617
63.9284
63.8952
63.8613
63.8269
63.7916
63.7558
63.7195
63.6831
63.6467
63.6107
63.5741
63.5384
63.5047
63.4688
63.4336
63.3976
63.3617
63.3246
63.2869
63.2477
63.2069
63.1646
63.121
63.0759
63.0288
62.9792
62.9274
62.8742
62.8204
62.7659
62.7108
62.6549
62.5985
62.5409
62.4838
62.4257
65.1855
65.1912
65.1938
65.1957
65.1903
65.186
65.1769
65.1707
65.1605
65.1524
65.1402
65.1294
65.115
65.1013
65.0845
65.0682
65.049
65.0299
65.0083
64.9865
64.9626
64.9382
64.912
64.8853
64.8571
64.8284
64.7986
64.7684
64.7374
64.7061
64.6743
64.6422
64.6097
64.5769
64.5437
64.51
64.4761
64.4419
64.4074
64.3728
64.3381
64.3032
64.2683
64.2337
64.1993
64.165
64.1307
64.0965
64.0626
64.0288
63.9951
63.9617
63.9284
63.8952
63.8612
63.8269
63.7915
63.7558
63.7195
63.6832
63.6469
63.6109
63.5744
63.5383
63.5046
63.4688
63.4335
63.3976
63.3615
63.3244
63.2866
63.2474
63.2067
63.1646
63.1212
63.0763
63.0296
62.9809
62.9303
62.8785
62.8261
62.773
62.7196
62.6657
62.6115
62.5571
62.5035
62.4505
65.1855
65.1912
65.1938
65.1957
65.1903
65.186
65.1769
65.1707
65.1605
65.1524
65.1402
65.1294
65.115
65.1013
65.0845
65.0682
65.049
65.0299
65.0083
64.9865
64.9626
64.9382
64.912
64.8853
64.8571
64.8284
64.7986
64.7684
64.7374
64.7061
64.6743
64.6422
64.6097
64.5769
64.5436
64.51
64.4761
64.4419
64.4074
64.3728
64.3381
64.3032
64.2684
64.2338
64.1994
64.165
64.1307
64.0966
64.0627
64.0288
63.9951
63.9617
63.9284
63.8951
63.8612
63.8268
63.7915
63.7558
63.7196
63.6833
63.6471
63.6111
63.5746
63.5383
63.5046
63.4688
63.4334
63.3975
63.3613
63.3243
63.2863
63.2471
63.2066
63.1648
63.1216
63.0771
63.0311
62.9833
62.9341
62.8839
62.833
62.7817
62.7302
62.6786
62.627
62.5759
62.5257
62.4769
65.1855
65.1913
65.1938
65.1957
65.1903
65.186
65.1769
65.1707
65.1605
65.1524
65.1403
65.1294
65.115
65.1013
65.0845
65.0682
65.049
65.0299
65.0083
64.9865
64.9626
64.9382
64.912
64.8853
64.8571
64.8284
64.7986
64.7684
64.7374
64.7061
64.6743
64.6422
64.6097
64.5769
64.5436
64.51
64.4761
64.4419
64.4074
64.3728
64.3381
64.3032
64.2684
64.2338
64.1994
64.1651
64.1308
64.0966
64.0627
64.0289
63.9952
63.9618
63.9284
63.8951
63.8611
63.8267
63.7915
63.7557
63.7196
63.6834
63.6474
63.6114
63.5749
63.5384
63.5045
63.4688
63.4333
63.3974
63.3611
63.3241
63.2861
63.247
63.2067
63.1652
63.1225
63.0785
63.0333
62.9867
62.939
62.8904
62.8414
62.7921
62.7428
62.6936
62.6447
62.5968
62.5497
62.5041
65.1855
65.1913
65.1938
65.1957
65.1903
65.186
65.1769
65.1707
65.1605
65.1524
65.1403
65.1294
65.115
65.1013
65.0845
65.0682
65.049
65.0299
65.0083
64.9865
64.9626
64.9382
64.912
64.8852
64.8571
64.8284
64.7986
64.7684
64.7374
64.7061
64.6743
64.6422
64.6097
64.5769
64.5436
64.51
64.4761
64.4419
64.4074
64.3728
64.3381
64.3033
64.2685
64.2339
64.1995
64.1651
64.1308
64.0967
64.0628
64.0289
63.9953
63.9618
63.9284
63.895
63.861
63.8265
63.7914
63.7557
63.7197
63.6836
63.6476
63.6117
63.5751
63.5385
63.5045
63.4689
63.4332
63.3973
63.361
63.324
63.2861
63.2472
63.2072
63.1661
63.1239
63.0807
63.0364
62.9912
62.9451
62.8984
62.8513
62.8042
62.7572
62.7106
62.6643
62.6191
62.5747
62.5315
65.1854
65.1914
65.1938
65.1957
65.1904
65.186
65.1769
65.1707
65.1605
65.1524
65.1402
65.1294
65.115
65.1013
65.0845
65.0682
65.049
65.0299
65.0083
64.9865
64.9626
64.9382
64.912
64.8852
64.8571
64.8284
64.7986
64.7683
64.7374
64.7061
64.6743
64.6422
64.6097
64.5769
64.5436
64.51
64.4761
64.4419
64.4074
64.3728
64.3381
64.3033
64.2685
64.2339
64.1995
64.1652
64.1309
64.0968
64.0628
64.029
63.9953
63.9619
63.9284
63.8949
63.8609
63.8264
63.7913
63.7557
63.7198
63.6838
63.648
63.612
63.5754
63.5387
63.5046
63.4689
63.4332
63.3972
63.3609
63.324
63.2862
63.2476
63.208
63.1674
63.126
63.0837
63.0407
62.9968
62.9524
62.9077
62.8627
62.8179
62.7732
62.729
62.6852
62.6423
62.6001
62.5588
65.1854
65.1915
65.1939
65.1957
65.1904
65.186
65.1769
65.1707
65.1605
65.1524
65.1402
65.1294
65.1149
65.1013
65.0845
65.0682
65.049
65.0299
65.0083
64.9865
64.9626
64.9381
64.912
64.8852
64.8571
64.8283
64.7986
64.7683
64.7374
64.7061
64.6743
64.6422
64.6097
64.5769
64.5436
64.51
64.4761
64.4419
64.4074
64.3728
64.3382
64.3034
64.2686
64.234
64.1996
64.1653
64.131
64.0969
64.063
64.0291
63.9954
63.9619
63.9284
63.8948
63.8608
63.8262
63.7912
63.7556
63.7199
63.684
63.6483
63.6124
63.5758
63.539
63.5047
63.469
63.4332
63.3973
63.361
63.3242
63.2867
63.2484
63.2093
63.1695
63.1289
63.0877
63.046
63.0037
62.9611
62.9183
62.8755
62.8328
62.7904
62.7485
62.7069
62.6661
62.6258
62.5862
65.1853
65.1916
65.1939
65.1958
65.1904
65.1861
65.1769
65.1707
65.1605
65.1524
65.1402
65.1294
65.1149
65.1013
65.0845
65.0682
65.049
65.0299
65.0083
64.9865
64.9625
64.9381
64.912
64.8852
64.8571
64.8283
64.7986
64.7683
64.7374
64.7061
64.6743
64.6422
64.6097
64.5769
64.5436
64.51
64.4761
64.4419
64.4075
64.3729
64.3382
64.3034
64.2687
64.2342
64.1997
64.1654
64.1312
64.0971
64.0631
64.0293
63.9955
63.962
63.9284
63.8946
63.8606
63.826
63.791
63.7556
63.72
63.6842
63.6486
63.6128
63.5761
63.5392
63.5049
63.469
63.4332
63.3974
63.3612
63.3246
63.2874
63.2496
63.2112
63.1722
63.1327
63.0927
63.0524
63.0118
62.971
62.9302
62.8895
62.8489
62.8087
62.7688
62.7293
62.6904
62.6519
62.6138
65.1853
65.1917
65.1939
65.1958
65.1904
65.1861
65.1769
65.1708
65.1605
65.1524
65.1402
65.1294
65.1149
65.1013
65.0845
65.0682
65.0489
65.0299
65.0083
64.9865
64.9625
64.9381
64.9119
64.8852
64.857
64.8283
64.7985
64.7683
64.7374
64.7061
64.6743
64.6422
64.6097
64.5768
64.5436
64.51
64.4761
64.4419
64.4075
64.3729
64.3383
64.3035
64.2689
64.2343
64.1999
64.1656
64.1313
64.0972
64.0633
64.0294
63.9957
63.962
63.9283
63.8945
63.8603
63.8258
63.7908
63.7555
63.72
63.6844
63.6489
63.6131
63.5764
63.5394
63.505
63.4692
63.4334
63.3976
63.3616
63.3253
63.2886
63.2513
63.2137
63.1757
63.1373
63.0987
63.0599
63.021
62.9821
62.9432
62.9045
62.866
62.8277
62.7898
62.7522
62.7151
62.6783
62.6419
65.1852
65.1918
65.194
65.1958
65.1904
65.1861
65.1769
65.1708
65.1605
65.1524
65.1402
65.1294
65.1149
65.1014
65.0845
65.0682
65.0489
65.0299
65.0082
64.9865
64.9625
64.9381
64.9119
64.8852
64.857
64.8283
64.7985
64.7683
64.7373
64.7061
64.6743
64.6422
64.6097
64.5768
64.5436
64.51
64.4761
64.4419
64.4075
64.373
64.3383
64.3037
64.269
64.2345
64.2001
64.1658
64.1316
64.0975
64.0635
64.0296
63.9958
63.962
63.9282
63.8943
63.8601
63.8255
63.7906
63.7554
63.72
63.6846
63.6491
63.6133
63.5766
63.5396
63.5051
63.4692
63.4335
63.3979
63.3622
63.3263
63.2901
63.2536
63.2169
63.1799
63.1429
63.1057
63.0684
63.0312
62.994
62.957
62.9202
62.8836
62.8472
62.8112
62.7754
62.74
62.7049
62.6701
65.1851
65.1919
65.194
65.1958
65.1904
65.1861
65.1769
65.1708
65.1605
65.1524
65.1402
65.1295
65.1149
65.1014
65.0844
65.0682
65.0489
65.0299
65.0082
64.9865
64.9624
64.9381
64.9118
64.8852
64.857
64.8283
64.7985
64.7683
64.7373
64.7061
64.6742
64.6422
64.6096
64.5768
64.5436
64.51
64.4761
64.442
64.4076
64.3731
64.3385
64.3038
64.2692
64.2347
64.2003
64.166
64.1318
64.0977
64.0637
64.0298
63.9959
63.9621
63.9281
63.8941
63.8598
63.8252
63.7903
63.7552
63.7199
63.6845
63.6491
63.6133
63.5765
63.5395
63.505
63.4692
63.4336
63.3983
63.3629
63.3275
63.292
63.2563
63.2206
63.1848
63.149
63.1132
63.0775
63.0418
63.0064
62.9711
62.936
62.9011
62.8665
62.8321
62.798
62.7642
62.7307
62.6975
65.1851
65.192
65.194
65.1958
65.1904
65.1862
65.1769
65.1709
65.1605
65.1525
65.1401
65.1295
65.1148
65.1014
65.0844
65.0682
65.0488
65.0299
65.0081
64.9865
64.9624
64.9382
64.9118
64.8852
64.8569
64.8283
64.7985
64.7683
64.7373
64.7061
64.6742
64.6422
64.6096
64.5768
64.5436
64.5101
64.4761
64.442
64.4077
64.3732
64.3386
64.304
64.2695
64.235
64.2006
64.1664
64.1322
64.0981
64.064
64.0301
63.9961
63.9621
63.928
63.8938
63.8594
63.8248
63.7899
63.7548
63.7196
63.6842
63.6488
63.613
63.576
63.539
63.5046
63.4689
63.4335
63.3985
63.3636
63.3288
63.294
63.2592
63.2244
63.1897
63.1551
63.1207
63.0863
63.0522
63.0182
62.9844
62.9509
62.9176
62.8844
62.8516
62.819
62.7867
62.7546
62.7228
65.185
65.1921
65.194
65.1959
65.1903
65.1862
65.1769
65.1709
65.1604
65.1526
65.1401
65.1296
65.1147
65.1015
65.0843
65.0683
65.0487
65.03
65.0081
64.9866
64.9623
64.9382
64.9118
64.8853
64.8569
64.8284
64.7985
64.7684
64.7373
64.7062
64.6743
64.6423
64.6097
64.5769
64.5436
64.5101
64.4762
64.4421
64.4078
64.3734
64.3388
64.3043
64.2698
64.2353
64.201
64.1667
64.1326
64.0984
64.0644
64.0303
63.9963
63.9621
63.9279
63.8936
63.859
63.8243
63.7894
63.7543
63.719
63.6835
63.648
63.6121
63.5751
63.5381
63.5037
63.4681
63.4329
63.3981
63.3636
63.3293
63.2951
63.261
63.2271
63.1933
63.1597
63.1263
63.093
63.06
63.0272
62.9946
62.9622
62.93
62.8981
62.8665
62.835
62.8038
62.7729
62.7423
65.185
65.1922
65.194
65.196
65.1903
65.1863
65.1768
65.171
65.1604
65.1527
65.14
65.1297
65.1147
65.1016
65.0842
65.0684
65.0487
65.0301
65.008
64.9867
64.9623
64.9384
64.9117
64.8854
64.8569
64.8286
64.7985
64.7686
64.7373
64.7063
64.6743
64.6424
64.6097
64.577
64.5437
64.5102
64.4763
64.4423
64.4079
64.3735
64.339
64.3045
64.27
64.2357
64.2013
64.1671
64.1329
64.0988
64.0647
64.0306
63.9964
63.9622
63.9278
63.8933
63.8586
63.8238
63.7887
63.7535
63.718
63.6824
63.6468
63.6107
63.5735
63.5365
63.502
63.4664
63.4313
63.3967
63.3624
63.3284
63.2945
63.2609
63.2274
63.1942
63.1612
63.1285
63.0959
63.0636
63.0316
62.9997
62.9682
62.9368
62.9057
62.8749
62.8442
62.8139
62.7838
62.754
65.185
65.1922
65.194
65.196
65.1903
65.1864
65.1768
65.1711
65.1603
65.1528
65.1399
65.1298
65.1146
65.1017
65.0841
65.0686
65.0486
65.0303
65.0079
64.9869
64.9622
64.9385
64.9117
64.8856
64.8569
64.8287
64.7985
64.7687
64.7374
64.7065
64.6743
64.6425
64.6098
64.5772
64.5437
64.5104
64.4764
64.4424
64.4081
64.3737
64.3392
64.3048
64.2703
64.236
64.2017
64.1675
64.1333
64.0992
64.065
64.0309
63.9966
63.9622
63.9277
63.8931
63.8582
63.8231
63.7879
63.7524
63.7168
63.681
63.6451
63.6087
63.5714
63.5341
63.4995
63.4638
63.4286
63.3939
63.3596
63.3256
63.2918
63.2583
63.2251
63.1921
63.1594
63.127
63.0949
63.063
63.0314
63.0001
62.969
62.9382
62.9077
62.8774
62.8473
62.8175
62.7879
62.7588
65.185
65.1922
65.194
65.1961
65.1902
65.1865
65.1767
65.1713
65.1602
65.1529
65.1398
65.1299
65.1145
65.1019
65.084
65.0687
65.0485
65.0305
65.0078
64.9871
64.9621
64.9387
64.9117
64.8858
64.8569
64.8289
64.7985
64.7689
64.7374
64.7067
64.6744
64.6427
64.6098
64.5773
64.5438
64.5106
64.4765
64.4426
64.4082
64.374
64.3394
64.3051
64.2706
64.2363
64.202
64.1679
64.1337
64.0996
64.0654
64.0312
63.9968
63.9623
63.9276
63.8928
63.8577
63.8224
63.7869
63.7512
63.7152
63.6791
63.6429
63.6062
63.5685
63.5309
63.496
63.4599
63.4244
63.3894
63.3548
63.3206
63.2867
63.253
63.2197
63.1867
63.1541
63.1218
63.0898
63.0581
63.0267
62.9956
62.9648
62.9343
62.904
62.8741
62.8443
62.8149
62.7856
62.7568
65.1851
65.1922
65.194
65.1962
65.1902
65.1866
65.1766
65.1714
65.1601
65.153
65.1397
65.1301
65.1143
65.1021
65.0839
65.0689
65.0484
65.0307
65.0077
64.9873
64.9621
64.939
64.9116
64.8861
64.8568
64.8292
64.7985
64.7692
64.7374
64.7069
64.6744
64.643
64.6098
64.5776
64.5439
64.5108
64.4766
64.4429
64.4083
64.3742
64.3396
64.3054
64.2708
64.2367
64.2023
64.1683
64.134
64.1
64.0657
64.0315
63.997
63.9624
63.9276
63.8925
63.8572
63.8216
63.7857
63.7497
63.7133
63.6768
63.6402
63.6031
63.565
63.5268
63.4913
63.4547
63.4186
63.3831
63.3481
63.3134
63.279
63.245
63.2113
63.178
63.1451
63.1126
63.0805
63.0487
63.0173
62.9862
62.9554
62.925
62.8948
62.865
62.8354
62.8061
62.777
62.7484
65.1851
65.1922
65.1939
65.1963
65.1901
65.1867
65.1766
65.1715
65.1601
65.1532
65.1396
65.1303
65.1142
65.1023
65.0838
65.0692
65.0482
65.0309
65.0076
64.9876
64.962
64.9393
64.9115
64.8864
64.8568
64.8295
64.7984
64.7695
64.7374
64.7072
64.6744
64.6433
64.6098
64.5779
64.5439
64.5111
64.4766
64.4432
64.4084
64.3745
64.3397
64.3057
64.271
64.2371
64.2026
64.1687
64.1344
64.1004
64.0661
64.0319
63.9972
63.9626
63.9276
63.8924
63.8567
63.8209
63.7846
63.7481
63.7114
63.6745
63.6374
63.5999
63.5611
63.5222
63.486
63.4487
63.4119
63.3756
63.3399
63.3045
63.2695
63.2349
63.2006
63.1668
63.1335
63.1005
63.068
63.0359
63.0043
62.973
62.942
62.9115
62.8812
62.8513
62.8217
62.7924
62.7634
62.7347
65.1852
65.1921
65.1939
65.1963
65.1901
65.1868
65.1765
65.1716
65.16
65.1533
65.1395
65.1304
65.1141
65.1025
65.0837
65.0694
65.0481
65.0312
65.0075
64.9879
64.9619
64.9396
64.9115
64.8867
64.8567
64.8299
64.7984
64.7698
64.7373
64.7075
64.6744
64.6435
64.6098
64.5781
64.5439
64.5114
64.4766
64.4435
64.4084
64.3748
64.3397
64.306
64.2711
64.2374
64.2027
64.1691
64.1346
64.1008
64.0663
64.0323
63.9974
63.9629
63.9275
63.8923
63.8563
63.8203
63.7836
63.7468
63.7097
63.6723
63.6349
63.5969
63.5575
63.5178
63.4809
63.4427
63.4051
63.368
63.3315
63.2954
63.2596
63.2243
63.1894
63.155
63.121
63.0876
63.0546
63.022
62.9899
62.9583
62.927
62.8962
62.8656
62.8355
62.8057
62.7762
62.747
62.7182
65.1852
65.1921
65.1938
65.1964
65.1901
65.1869
65.1765
65.1717
65.1599
65.1534
65.1395
65.1306
65.114
65.1026
65.0836
65.0696
65.048
65.0314
65.0074
64.9881
64.9618
64.9398
64.9114
64.887
64.8567
64.8301
64.7983
64.7701
64.7373
64.7077
64.6743
64.6438
64.6098
64.5784
64.5439
64.5116
64.4766
64.4437
64.4084
64.3751
64.3397
64.3063
64.2711
64.2377
64.2028
64.1694
64.1347
64.1012
64.0665
64.0326
63.9976
63.9631
63.9275
63.8923
63.856
63.8198
63.7828
63.7456
63.7082
63.6705
63.6328
63.5943
63.5544
63.5138
63.476
63.437
63.3985
63.3607
63.3233
63.2863
63.2498
63.2137
63.1781
63.143
63.1084
63.0744
63.0409
63.0079
62.9753
62.9432
62.9115
62.8803
62.8494
62.8189
62.7887
62.7589
62.7295
62.7005
65.1853
65.192
65.1938
65.1964
65.19
65.187
65.1764
65.1718
65.1599
65.1535
65.1394
65.1307
65.114
65.1027
65.0835
65.0697
65.0479
65.0316
65.0073
64.9883
64.9617
64.94
64.9113
64.8872
64.8566
64.8303
64.7983
64.7703
64.7373
64.708
64.6743
64.644
64.6098
64.5786
64.5438
64.5118
64.4766
64.4439
64.4083
64.3753
64.3397
64.3065
64.2711
64.2379
64.2028
64.1697
64.1347
64.1015
64.0666
64.033
63.9976
63.9634
63.9275
63.8924
63.8558
63.8195
63.7821
63.7447
63.7069
63.6689
63.6309
63.5921
63.5517
63.5103
63.4717
63.4318
63.3925
63.3537
63.3155
63.2778
63.2405
63.2036
63.1672
63.1314
63.0961
63.0615
63.0274
62.9939
62.9609
62.9284
62.8963
62.8646
62.8333
62.8025
62.7719
62.7418
62.712
62.6827
65.1853
65.192
65.1938
65.1964
65.19
65.187
65.1764
65.1719
65.1598
65.1536
65.1394
65.1308
65.1139
65.1028
65.0834
65.0698
65.0479
65.0317
65.0073
64.9884
64.9617
64.9402
64.9113
64.8874
64.8566
64.8305
64.7983
64.7705
64.7372
64.7081
64.6742
64.6441
64.6097
64.5787
64.5438
64.512
64.4765
64.4441
64.4083
64.3755
64.3396
64.3067
64.2711
64.2381
64.2028
64.1699
64.1348
64.1018
64.0666
64.0333
63.9977
63.9637
63.9275
63.8926
63.8555
63.8193
63.7814
63.744
63.7058
63.6677
63.6294
63.5903
63.5496
63.5074
63.468
63.4272
63.387
63.3474
63.3085
63.27
63.2318
63.1941
63.1568
63.1202
63.0843
63.049
63.0145
62.9805
62.9471
62.9142
62.8817
62.8497
62.818
62.7867
62.7558
62.7253
62.6952
62.6657
65.1854
65.1919
65.1938
65.1964
65.19
65.187
65.1764
65.1719
65.1598
65.1536
65.1393
65.1308
65.1139
65.1029
65.0834
65.0699
65.0478
65.0318
65.0072
64.9885
64.9616
64.9403
64.9112
64.8875
64.8565
64.8306
64.7982
64.7706
64.7372
64.7082
64.6742
64.6443
64.6097
64.5789
64.5437
64.5121
64.4765
64.4442
64.4083
64.3756
64.3396
64.3068
64.271
64.2383
64.2028
64.1701
64.1348