/*--------------------------------*- C++ -*----------------------------------*\
| =========                 |                                                 |
| \\      /  F ield         | OpenFOAM: The Open Source CFD Toolbox           |
|  \\    /   O peration     | Version:  2306                                  |
|   \\  /    A nd           | Website:  www.openfoam.com                      |
|    \\/     M anipulation  |                                                 |
\*---------------------------------------------------------------------------*/
FoamFile
{
    version     2.0;
    format      ascii;
    arch        "LSB;label=32;scalar=64";
    class       volScalarField;
    location    "600";
    object      nut;
}
// * * * * * * * * * * * * * * * * * * * * * * * * * * * * * * * * * * * * * //

dimensions      [0 2 -1 0 0 0 0];

internalField   uniform 0;

boundaryField
{
    inlet
    {
        type            calculated;
        value           uniform 0;
    }
    outlet
    {
        type            calculated;
        value           uniform 0;
    }
    lowerWallStartup
    {
        type            symmetryPlane;
    }
    upperWallStartup
    {
        type            symmetryPlane;
    }
    upperWall
    {
        type            nutUBlendedWallFunction;
        value           nonuniform List<scalar> 
218
(
1.1628e-08
3.81892e-09
2.74696e-09
2.3179e-09
2.03893e-09
1.89247e-09
1.73857e-09
1.65674e-09
1.54967e-09
1.50434e-09
1.42508e-09
1.40341e-09
1.34175e-09
1.33642e-09
1.28801e-09
1.29514e-09
1.25811e-09
1.2756e-09
1.2492e-09
1.27532e-09
1.25929e-09
1.29225e-09
1.28669e-09
1.32464e-09
1.32969e-09
1.37027e-09
1.3856e-09
1.42518e-09
1.44995e-09
1.48408e-09
1.51785e-09
1.54322e-09
1.5869e-09
1.60247e-09
1.65826e-09
1.66411e-09
1.73472e-09
1.7301e-09
1.81836e-09
1.79877e-09
1.69516e-09
1.87752e-09
6.85153e-10
1.95797e-09
6.40251e-10
0.000389533
4.13084e-09
0.000173521
2.36765e-09
0.000153282
2.5156e-09
2.05824e-09
2.68901e-09
2.48879e-09
2.86012e-09
2.66642e-09
3.04726e-09
2.8842e-09
3.16744e-09
3.15583e-09
3.18344e-09
3.42616e-09
3.77775e-09
4.47343e-09
4.84166e-09
5.12816e-09
5.16553e-09
4.84636e-09
5.91604e-09
5.42742e-09
7.33355e-09
7.29235e-09
8.45874e-09
8.26672e-09
7.85875e-09
8.08867e-09
6.84644e-09
8.30397e-09
7.83545e-09
9.31901e-09
9.09991e-09
1.02233e-08
9.62367e-09
1.19947e-08
1.42927e-08
1.18967e-08
5.79031e-09
7.02224e-09
5.68035e-09
1.09895e-08
9.3789e-09
1.25929e-08
1.16073e-08
1.51082e-08
1.32269e-08
1.33787e-08
1.28603e-08
1.45646e-08
2.16829e-08
2.44666e-08
9.13315e-09
0
0
6.90819e-09
8.02918e-09
1.12664e-08
1.03878e-08
1.26899e-08
1.15557e-08
1.41537e-08
1.21182e-08
1.51048e-08
1.19304e-08
1.77697e-08
1.93624e-08
1.89964e-08
1.18977e-08
1.36244e-08
1.17844e-08
1.34699e-08
1.32043e-08
1.40161e-08
1.1662e-08
8.70704e-09
3.5116e-09
5.29795e-09
4.7509e-09
6.52768e-09
5.72297e-09
8.6513e-09
3.89494e-09
4.98196e-09
5.21862e-09
1.35785e-08
1.37628e-08
9.27571e-09
3.63438e-09
0
0
2.40922e-09
1.28126e-08
3.10195e-08
3.09613e-08
1.11369e-08
0
6.82165e-09
8.9783e-09
0
0
0
0
2.64753e-09
0
2.80761e-09
0
3.99689e-09
3.06925e-09
3.84559e-09
1.57947e-10
0
5.8952e-09
1.52146e-08
2.08667e-08
2.8756e-08
3.5697e-08
3.49017e-08
1.54868e-08
0
1.58147e-08
1.83029e-08
1.55831e-08
1.15429e-08
7.37524e-09
1.1183e-09
0
0
0
6.86205e-10
0
1.19057e-09
0
0
1.29484e-09
5.23711e-09
1.06139e-08
1.78219e-08
2.40716e-08
2.66989e-08
2.36129e-08
1.93748e-08
6.89313e-09
4.18649e-09
1.26421e-08
1.43701e-08
9.97543e-09
4.66416e-09
1.83499e-09
0
1.19146e-09
1.75447e-09
2.18084e-09
2.7034e-09
3.17786e-09
3.64552e-09
6.00836e-09
7.68474e-09
9.39504e-09
1.72137e-08
2.7184e-08
5.52185e-08
5.16915e-08
1.04802e-08
0
4.43945e-08
6.84114e-08
3.61417e-08
1.51762e-08
0
)
;
    }
    lowerWall
    {
        type            nutUBlendedWallFunction;
        value           nonuniform List<scalar> 
266
(
1.25682e-08
4.07595e-09
2.93184e-09
2.45452e-09
2.17285e-09
1.99755e-09
1.85178e-09
1.74425e-09
1.65006e-09
1.58016e-09
1.51795e-09
1.4719e-09
1.43043e-09
1.40072e-09
1.37474e-09
1.35785e-09
1.3448e-09
1.33911e-09
1.33753e-09
1.34203e-09
1.35076e-09
1.3645e-09
1.38247e-09
1.40456e-09
1.43064e-09
1.45983e-09
1.49217e-09
1.52621e-09
1.56201e-09
1.59804e-09
1.63468e-09
1.6709e-09
1.70765e-09
1.74448e-09
1.7825e-09
1.82158e-09
1.86243e-09
1.90503e-09
1.94936e-09
1.99588e-09
2.04293e-09
2.91824e-09
0.0588833
2.15069e-09
2.25967e-09
2.31494e-09
2.17468e-09
2.44197e-09
2.49138e-09
2.20817e-09
2.32965e-09
2.29223e-09
2.74136e-09
2.80491e-09
2.81535e-09
2.98434e-09
3.07312e-09
3.22929e-09
3.32906e-09
3.53989e-09
3.60164e-09
3.84483e-09
3.92791e-09
4.83977e-09
5.02278e-09
5.4021e-09
5.18512e-09
5.46518e-09
5.24e-09
5.63668e-09
5.8745e-09
6.76745e-09
7.28174e-09
8.04995e-09
8.2567e-09
8.68626e-09
9.21971e-09
9.87644e-09
1.00444e-08
1.0272e-08
1.03513e-08
1.12637e-08
1.18644e-08
1.35734e-08
1.3788e-08
1.8622e-08
9.96832e-09
0
0.00139757
1.97857e-05
0
0
0
0
0
0
0
0
0
0
0
0
0
0
0
0
0
0
1.37421e-06
9.86108e-06
1.72393e-05
1.85092e-05
1.47347e-05
8.60133e-06
1.47792e-06
0
0
0
1.79709e-06
4.09041e-06
4.48535e-06
3.2298e-06
5.04899e-07
0
0
0
0
0
0
0
0
0
0
0
0
0
0
0
7.1556e-10
2.17856e-09
3.00472e-09
2.96415e-09
2.2925e-09
1.49994e-09
1.14167e-09
6.10707e-10
1.44495e-09
0
0
2.41094e-05
1.95854e-09
4.02425e-09
3.06334e-09
1.38176e-09
0
0
0
2.03631e-09
2.30516e-09
1.95403e-09
1.84003e-09
1.7834e-09
1.43265e-09
0
0
1.37227e-09
2.17091e-09
2.78336e-09
3.30302e-09
3.75091e-09
4.11015e-09
4.27776e-09
4.20371e-09
3.8886e-09
3.46005e-09
2.83599e-09
2.03883e-09
9.18145e-10
0
3.44877e-09
5.73971e-09
7.06913e-09
6.8344e-09
5.8271e-09
3.94693e-09
3.7382e-09
3.15762e-09
1.22452e-09
0
0
3.89987e-10
1.04921e-09
9.84813e-10
1.39395e-09
2.8716e-09
4.64154e-09
5.87574e-09
6.01669e-09
3.38407e-09
0
2.40687e-09
3.65169e-09
3.94782e-09
3.69737e-09
3.14757e-09
2.49121e-09
1.82407e-09
1.22766e-09
2.70368e-10
0
0
6.55978e-10
1.0318e-09
1.1316e-09
1.35673e-09
1.56986e-09
1.44738e-09
1.51468e-09
1.37051e-09
1.41708e-09
1.15592e-09
1.14233e-09
6.20283e-10
8.27825e-10
2.90031e-10
8.22436e-10
2.68518e-10
7.92559e-10
0
2.31362e-10
0
0
0
0
0
0
0
0
0
6.45871e-10
4.37307e-10
6.15007e-10
6.8341e-10
7.21996e-10
7.32909e-10
7.14876e-10
6.4629e-10
4.53366e-10
0.00254365
0
0
0
1.01574e-09
2.523e-09
5.94887e-09
0
4.29715e-08
2.40724e-07
4.46924e-07
2.51416e-06
3.07172e-06
1.2456e-07
1.14363e-06
0
1.16516e-07
5.26335e-06
)
;
    }
    front
    {
        type            empty;
    }
    back
    {
        type            empty;
    }
}


// ************************************************************************* //
