/*--------------------------------*- C++ -*----------------------------------*\
| =========                 |                                                 |
| \\      /  F ield         | OpenFOAM: The Open Source CFD Toolbox           |
|  \\    /   O peration     | Version:  2306                                  |
|   \\  /    A nd           | Website:  www.openfoam.com                      |
|    \\/     M anipulation  |                                                 |
\*---------------------------------------------------------------------------*/
FoamFile
{
    version     2.0;
    format      ascii;
    arch        "LSB;label=32;scalar=64";
    class       volScalarField;
    location    "600";
    object      p;
}
// * * * * * * * * * * * * * * * * * * * * * * * * * * * * * * * * * * * * * //

dimensions      [0 2 -2 0 0 0 0];

internalField   nonuniform List<scalar> 
20540
(
63657.6
63667
63657.6
63667
63657.6
63667
63657.6
63667
63657.6
63667
63657.6
63667
63657.6
63667
63657.6
63667
63657.6
63667
63657.6
63666.9
63657.6
63666.9
63657.6
63666.9
63657.6
63666.9
63657.6
63666.9
63657.6
63666.9
63657.6
63666.9
63657.6
63666.8
63657.6
63666.8
63657.6
63666.8
63657.6
63666.7
63657.6
63666.7
63657.6
63666.6
63657.6
63666.6
63657.5
63666.5
63657.5
63666.4
63657.5
63666.3
63657.5
63666.2
63657.5
63666.1
63657.5
63666
63657.5
63665.9
63657.4
63665.8
63657.4
63665.8
63657.4
63665.8
63657.4
63665.9
63657.4
63666
63657.4
63666.1
63657.4
63666.2
63657.4
63666.4
63657.4
63666.5
63657.4
63666.6
63657.4
63666.7
63657.4
63666.7
63657.4
63666.8
63657.4
63666.9
63657.4
63666.9
63657.4
63667
63657.4
63667
63657.4
63667
63657.4
63667.1
63657.4
63667.1
63657.4
63667.1
63657.4
63667.1
63657.4
63667.1
63657.4
63667.1
63657.4
63667.1
63657.4
63667.2
63657.5
63667.2
63657.5
63667.2
63657.5
63667.2
63657.5
63667.2
63657.5
63667.2
63657.5
63667.2
63657.5
63667.2
63657.5
63667.2
63657.5
63667.2
63674.7
63679.8
63682.5
63684.4
63679.2
63675
63666.1
63660.1
63650.1
63642.1
63630.3
63619.7
63605.6
63592.3
63575.9
63559.9
63541.2
63522.5
63501.4
63480.1
63456.8
63432.9
63407.4
63381.2
63353.7
63325.7
63296.6
63267
63236.8
63206.2
63175.2
63143.8
63112.1
63080
63047.5
63014.7
62981.5
62948.1
62914.4
62880.6
62846.7
62812.6
62778.4
62744.7
62711.1
62677.6
62644
62610.7
62577.6
62544.5
62511.5
62478.9
62446.5
62414.3
62381
62347.6
62312.9
62278.1
62242.3
62206.8
62170.8
62135.6
62099.6
62066.2
62032.5
61997.9
61963.4
61928.2
61893.2
61857.1
61821.5
61782.7
61742.6
61700.4
61657.3
61613.9
61567.3
61516.1
61460.3
61404.5
61345.8
61288.9
61227.9
61168.7
61103.3
61043.7
60966.1
60895.5
63674.7
63679.8
63682.5
63684.4
63679.2
63675
63666.1
63660.1
63650.1
63642.1
63630.3
63619.7
63605.6
63592.3
63575.9
63559.9
63541.2
63522.5
63501.4
63480.1
63456.8
63432.9
63407.4
63381.2
63353.7
63325.7
63296.6
63267
63236.8
63206.2
63175.2
63143.8
63112.1
63080
63047.5
63014.7
62981.5
62948.1
62914.4
62880.6
62846.7
62812.6
62778.4
62744.7
62711.1
62677.6
62644
62610.7
62577.6
62544.5
62511.5
62478.9
62446.5
62414.3
62381
62347.6
62312.9
62278.1
62242.3
62206.8
62170.8
62135.6
62099.6
62066.2
62032.5
61997.9
61963.4
61928.2
61893.2
61857.1
61821.5
61782.7
61742.6
61700.4
61657.3
61613.9
61567.3
61516.1
61460.3
61404.5
61345.8
61288.9
61227.9
61168.7
61103.3
61043.7
60966
60896.4
63674.7
63679.8
63682.5
63684.4
63679.2
63675
63666.1
63660.1
63650.1
63642.1
63630.3
63619.7
63605.6
63592.3
63575.9
63559.9
63541.2
63522.5
63501.4
63480.1
63456.8
63432.9
63407.4
63381.2
63353.7
63325.7
63296.6
63267
63236.8
63206.2
63175.2
63143.8
63112.1
63080
63047.5
63014.7
62981.5
62948.1
62914.4
62880.6
62846.7
62812.6
62778.4
62744.7
62711.1
62677.6
62644
62610.7
62577.6
62544.5
62511.5
62478.9
62446.5
62414.3
62381
62347.6
62312.9
62278.1
62242.3
62206.8
62170.8
62135.6
62099.6
62066.2
62032.5
61997.9
61963.4
61928.2
61893.2
61857.1
61821.5
61782.7
61742.6
61700.4
61657.3
61613.9
61567.3
61516.1
61460.3
61404.5
61345.8
61288.9
61228
61168.7
61103.3
61043.7
60965.9
60897.6
63674.7
63679.8
63682.5
63684.4
63679.2
63675
63666.1
63660.1
63650.1
63642.1
63630.3
63619.7
63605.6
63592.3
63575.9
63559.9
63541.2
63522.5
63501.4
63480.1
63456.8
63432.9
63407.4
63381.2
63353.7
63325.7
63296.6
63267
63236.8
63206.2
63175.2
63143.8
63112.1
63080
63047.5
63014.7
62981.5
62948.1
62914.4
62880.6
62846.7
62812.6
62778.4
62744.7
62711.1
62677.6
62644
62610.7
62577.6
62544.5
62511.5
62478.9
62446.5
62414.3
62381
62347.6
62312.9
62278.1
62242.3
62206.8
62170.8
62135.6
62099.6
62066.2
62032.5
61997.9
61963.4
61928.2
61893.2
61857.1
61821.5
61782.7
61742.6
61700.4
61657.3
61613.9
61567.3
61516.1
61460.3
61404.5
61345.8
61288.9
61228
61168.7
61103.4
61043.7
60965.7
60899
63674.7
63679.8
63682.5
63684.4
63679.2
63675
63666.1
63660.1
63650.1
63642.1
63630.3
63619.7
63605.6
63592.3
63575.9
63559.9
63541.2
63522.5
63501.4
63480.1
63456.8
63432.9
63407.4
63381.2
63353.7
63325.7
63296.6
63267
63236.8
63206.2
63175.2
63143.8
63112.1
63080
63047.5
63014.7
62981.5
62948.1
62914.4
62880.6
62846.7
62812.6
62778.4
62744.7
62711.1
62677.6
62644
62610.7
62577.6
62544.5
62511.5
62478.9
62446.5
62414.3
62381
62347.6
62312.9
62278.1
62242.3
62206.8
62170.8
62135.6
62099.6
62066.2
62032.5
61997.9
61963.4
61928.2
61893.2
61857.1
61821.5
61782.7
61742.6
61700.4
61657.3
61613.9
61567.3
61516.1
61460.3
61404.6
61345.8
61288.9
61228
61168.8
61103.4
61043.7
60965.6
60900.5
63674.7
63679.8
63682.5
63684.4
63679.2
63675
63666.1
63660.1
63650.1
63642.1
63630.3
63619.7
63605.6
63592.3
63575.9
63559.9
63541.2
63522.5
63501.4
63480.1
63456.8
63432.9
63407.4
63381.2
63353.7
63325.7
63296.6
63267
63236.8
63206.2
63175.2
63143.8
63112.1
63080
63047.5
63014.7
62981.5
62948.1
62914.4
62880.6
62846.7
62812.6
62778.4
62744.7
62711.1
62677.6
62644
62610.7
62577.6
62544.5
62511.5
62478.9
62446.5
62414.3
62381
62347.6
62312.9
62278.1
62242.3
62206.8
62170.8
62135.6
62099.6
62066.2
62032.5
61997.9
61963.4
61928.2
61893.2
61857.1
61821.5
61782.7
61742.6
61700.4
61657.3
61613.9
61567.4
61516.1
61460.3
61404.6
61345.9
61289
61228.1
61169
61103.5
61043.7
60965.5
60901.8
63674.7
63679.8
63682.5
63684.4
63679.2
63675
63666.1
63660.1
63650.1
63642.1
63630.3
63619.7
63605.6
63592.3
63575.9
63559.9
63541.2
63522.5
63501.4
63480.1
63456.8
63432.9
63407.4
63381.2
63353.7
63325.7
63296.6
63267
63236.8
63206.2
63175.2
63143.8
63112.1
63080
63047.5
63014.7
62981.5
62948.1
62914.4
62880.6
62846.7
62812.6
62778.4
62744.7
62711.1
62677.6
62644
62610.7
62577.6
62544.5
62511.5
62478.9
62446.5
62414.3
62381
62347.6
62312.9
62278.1
62242.3
62206.8
62170.8
62135.6
62099.6
62066.2
62032.5
61997.9
61963.4
61928.2
61893.2
61857.1
61821.5
61782.7
61742.6
61700.4
61657.3
61613.9
61567.4
61516.1
61460.3
61404.6
61346
61289.1
61228.3
61169.2
61103.7
61044
60965.6
60903
63674.7
63679.8
63682.5
63684.4
63679.2
63675
63666.1
63660.1
63650.1
63642.1
63630.3
63619.7
63605.6
63592.3
63575.9
63559.9
63541.2
63522.5
63501.4
63480.1
63456.8
63432.9
63407.4
63381.2
63353.7
63325.7
63296.6
63267
63236.8
63206.2
63175.2
63143.8
63112.1
63080
63047.5
63014.7
62981.5
62948.1
62914.4
62880.6
62846.7
62812.6
62778.4
62744.7
62711.1
62677.6
62644
62610.7
62577.6
62544.5
62511.5
62478.9
62446.5
62414.3
62381
62347.6
62312.9
62278.1
62242.3
62206.8
62170.8
62135.6
62099.6
62066.2
62032.5
61997.9
61963.4
61928.2
61893.2
61857.1
61821.5
61782.7
61742.6
61700.4
61657.3
61613.9
61567.4
61516.1
61460.4
61404.7
61346.2
61289.3
61228.6
61169.5
61104
61044.6
60966.5
60904.3
63674.7
63679.8
63682.5
63684.4
63679.2
63675
63666.1
63660.1
63650.1
63642.1
63630.3
63619.7
63605.6
63592.3
63575.9
63559.9
63541.2
63522.5
63501.4
63480.1
63456.8
63432.9
63407.4
63381.2
63353.7
63325.7
63296.6
63267
63236.8
63206.2
63175.2
63143.8
63112.1
63080
63047.5
63014.7
62981.5
62948.1
62914.4
62880.6
62846.7
62812.6
62778.4
62744.7
62711.1
62677.6
62644
62610.7
62577.6
62544.5
62511.5
62478.9
62446.5
62414.3
62381
62347.6
62312.9
62278.1
62242.3
62206.8
62170.8
62135.6
62099.6
62066.2
62032.6
61997.9
61963.4
61928.2
61893.2
61857.1
61821.5
61782.7
61742.6
61700.5
61657.4
61614
61567.5
61516.2
61460.6
61404.9
61346.6
61289.6
61229.1
61170.1
61104.8
61045.7
60967.9
60905.3
63674.6
63679.8
63682.5
63684.4
63679.2
63675
63666.1
63660.1
63650.1
63642.1
63630.3
63619.7
63605.6
63592.3
63575.9
63559.9
63541.2
63522.5
63501.4
63480.1
63456.8
63432.9
63407.4
63381.2
63353.7
63325.7
63296.6
63267
63236.8
63206.2
63175.2
63143.8
63112.1
63080
63047.5
63014.7
62981.5
62948.1
62914.4
62880.6
62846.7
62812.6
62778.4
62744.7
62711.1
62677.6
62644
62610.7
62577.6
62544.5
62511.5
62478.9
62446.5
62414.3
62381
62347.6
62312.9
62278.1
62242.3
62206.8
62170.8
62135.7
62099.6
62066.2
62032.6
61997.9
61963.4
61928.1
61893.2
61857.1
61821.5
61782.7
61742.6
61700.5
61657.4
61614
61567.6
61516.3
61460.8
61405
61346.9
61290
61229.7
61170.7
61105.7
61046.4
60969.2
60906.9
63674.6
63679.9
63682.5
63684.4
63679.2
63675
63666.1
63660.1
63650.1
63642.1
63630.3
63619.7
63605.6
63592.3
63575.9
63559.9
63541.2
63522.5
63501.4
63480.1
63456.8
63432.9
63407.4
63381.2
63353.7
63325.7
63296.6
63267
63236.8
63206.2
63175.2
63143.8
63112.1
63080
63047.5
63014.7
62981.5
62948.1
62914.4
62880.6
62846.7
62812.6
62778.4
62744.7
62711.1
62677.6
62644
62610.7
62577.6
62544.5
62511.5
62478.9
62446.5
62414.3
62381
62347.6
62312.9
62278.1
62242.3
62206.8
62170.8
62135.7
62099.7
62066.2
62032.6
61997.9
61963.4
61928.1
61893.3
61857.1
61821.5
61782.7
61742.6
61700.5
61657.5
61614.1
61567.6
61516.4
61461
61405.2
61347.4
61290.4
61230.4
61171.5
61106.8
61047.5
60971.3
60908.8
63674.6
63679.9
63682.5
63684.4
63679.2
63675
63666.1
63660.1
63650.1
63642.1
63630.3
63619.7
63605.6
63592.3
63575.9
63559.9
63541.2
63522.5
63501.4
63480.1
63456.8
63432.9
63407.4
63381.2
63353.7
63325.7
63296.6
63267
63236.8
63206.2
63175.2
63143.8
63112.1
63080
63047.5
63014.7
62981.5
62948.1
62914.4
62880.6
62846.7
62812.6
62778.4
62744.7
62711.1
62677.6
62644
62610.7
62577.6
62544.5
62511.5
62478.9
62446.5
62414.3
62381
62347.6
62312.9
62278.1
62242.3
62206.8
62170.8
62135.7
62099.7
62066.2
62032.6
61997.9
61963.4
61928.1
61893.3
61857.1
61821.4
61782.7
61742.6
61700.6
61657.6
61614.2
61567.7
61516.5
61461.2
61405.5
61348
61291
61231.3
61172.6
61108.4
61048.8
60974.1
60910.3
63674.6
63679.9
63682.5
63684.4
63679.2
63675
63666.1
63660.1
63650.1
63642.1
63630.3
63619.7
63605.6
63592.3
63575.9
63559.9
63541.2
63522.5
63501.4
63480.1
63456.8
63432.9
63407.4
63381.2
63353.7
63325.7
63296.6
63267
63236.8
63206.2
63175.2
63143.8
63112.1
63080
63047.5
63014.7
62981.5
62948.1
62914.4
62880.6
62846.7
62812.6
62778.4
62744.7
62711.1
62677.6
62644
62610.7
62577.6
62544.5
62511.5
62478.9
62446.5
62414.3
62381
62347.6
62312.9
62278.1
62242.3
62206.8
62170.9
62135.7
62099.7
62066.2
62032.6
61997.8
61963.4
61928.1
61893.3
61857
61821.4
61782.7
61742.6
61700.7
61657.7
61614.2
61567.8
61516.6
61461.6
61406
61348.7
61291.9
61232.6
61174
61110.5
61050.5
60977.9
60911.2
63674.6
63679.9
63682.5
63684.4
63679.2
63675
63666.1
63660.1
63650.1
63642.1
63630.3
63619.7
63605.6
63592.3
63575.9
63559.9
63541.2
63522.5
63501.4
63480.1
63456.8
63432.9
63407.4
63381.2
63353.7
63325.7
63296.6
63267
63236.8
63206.2
63175.2
63143.8
63112.1
63080
63047.5
63014.7
62981.5
62948.1
62914.4
62880.6
62846.7
62812.6
62778.4
62744.7
62711.2
62677.6
62644
62610.7
62577.6
62544.5
62511.5
62479
62446.5
62414.3
62381
62347.6
62312.9
62278.1
62242.3
62206.8
62170.9
62135.8
62099.8
62066.1
62032.7
61997.8
61963.3
61928
61893.3
61857
61821.3
61782.7
61742.6
61700.7
61657.8
61614.2
61567.8
61516.7
61462
61406.6
61349.8
61293.1
61234.4
61176
61113.4
61052.9
60982.7
60912.7
63674.6
63679.9
63682.5
63684.4
63679.2
63675
63666.1
63660.1
63650.1
63642.1
63630.3
63619.7
63605.6
63592.3
63575.9
63559.9
63541.2
63522.5
63501.4
63480.1
63456.8
63432.9
63407.4
63381.2
63353.7
63325.7
63296.6
63267
63236.8
63206.2
63175.2
63143.8
63112.1
63080
63047.5
63014.7
62981.5
62948.1
62914.4
62880.6
62846.7
62812.6
62778.5
62744.7
62711.2
62677.6
62644
62610.7
62577.6
62544.5
62511.5
62479
62446.5
62414.3
62381
62347.6
62312.9
62278
62242.3
62206.8
62170.9
62135.8
62099.9
62066
62032.7
61997.7
61963.3
61928
61893.2
61857
61821.1
61782.6
61742.5
61700.8
61657.9
61614.2
61567.7
61516.9
61462.7
61407.5
61351.3
61294.9
61236.9
61178.8
61117.3
61056.3
60988.8
60916.7
63674.6
63679.9
63682.5
63684.4
63679.2
63675
63666.1
63660.1
63650.1
63642.1
63630.3
63619.7
63605.6
63592.3
63575.9
63559.9
63541.2
63522.5
63501.5
63480.1
63456.8
63432.9
63407.4
63381.2
63353.7
63325.7
63296.6
63267
63236.8
63206.2
63175.2
63143.8
63112.1
63080
63047.5
63014.7
62981.5
62948.1
62914.4
62880.6
62846.7
62812.6
62778.5
62744.7
62711.2
62677.6
62644
62610.7
62577.6
62544.5
62511.5
62479
62446.5
62414.2
62381
62347.5
62312.9
62278
62242.4
62206.9
62171
62135.9
62100
62065.9
62032.7
61997.7
61963.3
61928
61893.2
61857
61820.9
61782.4
61742.4
61700.8
61657.9
61614
61567.6
61517.1
61463.6
61408.9
61353.4
61297.5
61240.3
61182.6
61122.5
61061.2
60996.5
60925.1
63674.6
63679.9
63682.5
63684.4
63679.2
63675
63666.1
63660.1
63650.1
63642.1
63630.3
63619.7
63605.6
63592.3
63575.9
63559.9
63541.2
63522.5
63501.5
63480.1
63456.8
63432.9
63407.4
63381.2
63353.7
63325.7
63296.6
63267
63236.8
63206.2
63175.2
63143.8
63112.1
63080
63047.5
63014.7
62981.5
62948.1
62914.4
62880.6
62846.7
62812.6
62778.5
62744.7
62711.2
62677.6
62644
62610.7
62577.6
62544.5
62511.6
62479
62446.5
62414.2
62381
62347.5
62312.9
62278
62242.4
62206.9
62171.1
62136
62100.1
62065.8
62032.7
61997.6
61963.3
61928.1
61893.2
61857
61820.6
61782.2
61742.2
61700.7
61657.9
61613.8
61567.4
61517.5
61464.8
61410.9
61356.2
61300.9
61244.7
61187.6
61129
61068.4
61006.4
60938.6
63674.6
63680
63682.5
63684.4
63679.2
63675
63666.1
63660.1
63650.1
63642.1
63630.3
63619.7
63605.6
63592.3
63575.9
63559.9
63541.2
63522.5
63501.5
63480.1
63456.8
63432.9
63407.4
63381.2
63353.7
63325.7
63296.6
63267
63236.8
63206.2
63175.2
63143.8
63112.1
63080
63047.5
63014.7
62981.5
62948.1
62914.4
62880.6
62846.7
62812.6
62778.5
62744.7
62711.2
62677.6
62644
62610.7
62577.6
62544.5
62511.6
62479
62446.5
62414.2
62381
62347.5
62312.9
62278
62242.4
62206.9
62171.2
62136.1
62100.3
62065.7
62032.7
61997.6
61963.2
61928.1
61893.1
61856.9
61820.2
61781.9
61742
61700.6
61657.8
61613.7
61567.5
61518.2
61466.5
61413.5
61359.7
61305.3
61250.2
61194.2
61137.2
61078.3
61019.3
60956.9
63674.6
63680
63682.6
63684.4
63679.2
63675
63666.1
63660.1
63650.1
63642.1
63630.3
63619.7
63605.6
63592.3
63575.9
63559.9
63541.2
63522.5
63501.5
63480.1
63456.8
63432.9
63407.4
63381.2
63353.7
63325.7
63296.6
63267
63236.8
63206.2
63175.2
63143.8
63112.1
63080
63047.5
63014.7
62981.5
62948.1
62914.4
62880.6
62846.7
62812.6
62778.5
62744.8
62711.2
62677.6
62644.1
62610.8
62577.6
62544.6
62511.6
62479
62446.6
62414.2
62381
62347.4
62312.9
62278
62242.4
62207
62171.4
62136.2
62100.5
62065.6
62032.7
61997.6
61963.2
61928.1
61893
61856.8
61819.9
61781.6
61741.7
61700.5
61657.8
61613.8
61567.8
61519.3
61468.7
61416.8
61364.2
61311
61257.2
61202.6
61147.5
61091.2
61035.4
60978.7
63674.5
63680
63682.6
63684.5
63679.2
63675
63666.1
63660.1
63650.1
63642.1
63630.3
63619.7
63605.6
63592.3
63575.9
63559.9
63541.2
63522.5
63501.4
63480.1
63456.8
63432.9
63407.4
63381.2
63353.7
63325.7
63296.6
63267
63236.8
63206.2
63175.2
63143.8
63112.1
63080
63047.5
63014.7
62981.5
62948.1
62914.4
62880.6
62846.7
62812.6
62778.6
62744.8
62711.2
62677.6
62644.1
62610.8
62577.7
62544.6
62511.7
62479.1
62446.6
62414.1
62380.9
62347.3
62312.8
62277.9
62242.5
62207
62171.6
62136.4
62100.7
62065.5
62032.6
61997.6
61963.1
61928
61892.8
61856.6
61819.6
61781.3
61741.6
61700.5
61658
61614.1
61568.6
61521
61471.6
61421
61369.8
61317.9
61265.7
61213.1
61160.2
61107
61054.6
61002.9
63674.5
63680.1
63682.6
63684.5
63679.2
63675
63666.1
63660.1
63650.1
63642.1
63630.3
63619.7
63605.6
63592.3
63575.9
63559.9
63541.2
63522.5
63501.4
63480.1
63456.8
63432.9
63407.4
63381.2
63353.7
63325.7
63296.6
63267
63236.8
63206.2
63175.2
63143.8
63112.1
63080
63047.5
63014.7
62981.5
62948.1
62914.4
62880.6
62846.7
62812.7
62778.6
62744.8
62711.2
62677.7
62644.1
62610.8
62577.7
62544.6
62511.7
62479.1
62446.6
62414
62380.9
62347.3
62312.8
62277.9
62242.6
62207.1
62171.8
62136.6
62100.9
62065.5
62032.5
61997.6
61963
61927.9
61892.6
61856.4
61819.3
61781.1
61741.5
61700.6
61658.5
61615
61570
61523.4
61475.3
61426.2
61376.5
61326.4
61276.1
61225.7
61175.3
61125.4
61076.3
61028.7
63674.5
63680.1
63682.6
63684.5
63679.2
63675
63666.1
63660.1
63650.1
63642.1
63630.3
63619.7
63605.6
63592.3
63575.9
63559.9
63541.2
63522.5
63501.4
63480.1
63456.8
63432.9
63407.4
63381.2
63353.7
63325.6
63296.6
63267
63236.8
63206.2
63175.2
63143.8
63112.1
63080
63047.5
63014.7
62981.5
62948.1
62914.4
62880.6
62846.7
62812.7
62778.7
62744.9
62711.3
62677.7
62644.2
62610.9
62577.7
62544.7
62511.8
62479.1
62446.6
62414
62380.8
62347.2
62312.8
62277.9
62242.6
62207.3
62172
62136.8
62101.2
62065.6
62032.5
61997.6
61962.9
61927.8
61892.4
61856.2
61819.1
61781
61741.6
61701.1
61659.3
61616.4
61572.2
61526.7
61480.1
61432.6
61384.7
61336.6
61288.4
61240.4
61192.6
61145.8
61099.8
61055.3
63674.5
63680.2
63682.6
63684.5
63679.2
63675
63666.1
63660.1
63650.1
63642.1
63630.3
63619.7
63605.6
63592.3
63575.9
63559.9
63541.2
63522.5
63501.4
63480.1
63456.7
63432.9
63407.3
63381.2
63353.7
63325.6
63296.6
63267
63236.8
63206.2
63175.2
63143.8
63112.1
63080
63047.5
63014.7
62981.5
62948.1
62914.4
62880.6
62846.7
62812.7
62778.7
62744.9
62711.3
62677.8
62644.3
62610.9
62577.8
62544.8
62511.9
62479.2
62446.6
62413.9
62380.7
62347
62312.7
62277.8
62242.7
62207.4
62172.3
62137.1
62101.5
62065.7
62032.5
61997.7
61962.8
61927.8
61892.3
61856.1
61819.1
61781.1
61742
61701.9
61660.7
61618.5
61575.3
61531
61486
61440.4
61394.4
61348.4
61302.5
61256.9
61211.8
61167.6
61124.2
61082
63674.4
63680.3
63682.6
63684.5
63679.2
63675
63666.1
63660.1
63650.1
63642.1
63630.3
63619.7
63605.6
63592.3
63575.9
63559.9
63541.2
63522.5
63501.4
63480.1
63456.7
63432.9
63407.3
63381.2
63353.7
63325.6
63296.6
63267
63236.8
63206.2
63175.2
63143.8
63112.1
63080
63047.5
63014.7
62981.5
62948.1
62914.5
62880.7
62846.8
62812.8
62778.8
62745
62711.4
62677.8
62644.4
62611
62577.9
62544.8
62511.9
62479.2
62446.6
62413.8
62380.6
62346.9
62312.6
62277.8
62242.8
62207.6
62172.6
62137.5
62101.8
62065.9
62032.6
61997.7
61962.8
61927.7
61892.2
61856.1
61819.3
61781.5
61742.8
61703.2
61662.8
61621.5
61579.4
61536.6
61493.2
61449.5
61405.6
61361.7
61318.1
61274.9
61232.1
61190.3
61149
61108.7
63674.4
63680.4
63682.7
63684.5
63679.2
63675
63666.1
63660.1
63650.1
63642.1
63630.3
63619.7
63605.6
63592.3
63575.9
63559.9
63541.2
63522.5
63501.4
63480.1
63456.7
63432.9
63407.3
63381.2
63353.7
63325.6
63296.6
63267
63236.8
63206.2
63175.2
63143.8
63112.1
63080
63047.5
63014.7
62981.5
62948.1
62914.5
62880.7
62846.8
62812.8
62778.9
62745.1
62711.5
62677.9
62644.5
62611.1
62578
62544.9
62512
62479.3
62446.5
62413.7
62380.5
62346.7
62312.5
62277.8
62242.9
62207.8
62172.9
62137.9
62102.1
62066.1
62032.7
61997.7
61962.8
61927.7
61892.3
61856.3
61819.7
61782.3
61744.1
61705.2
61665.6
61625.4
61584.6
61543.3
61501.7
61459.9
61418
61376.4
61334.9
61294
61253.3
61213.5
61174.1
61135.4
63674.3
63680.4
63682.7
63684.5
63679.3
63675
63666.1
63660.1
63650.1
63642.1
63630.3
63619.7
63605.6
63592.3
63575.9
63559.9
63541.1
63522.5
63501.4
63480.1
63456.7
63432.9
63407.3
63381.2
63353.7
63325.6
63296.5
63267
63236.8
63206.2
63175.1
63143.8
63112
63080
63047.5
63014.7
62981.5
62948.1
62914.5
62880.7
62846.8
62812.9
62779
62745.2
62711.6
62678
62644.6
62611.3
62578.1
62545.1
62512.1
62479.3
62446.5
62413.5
62380.3
62346.5
62312.3
62277.7
62242.9
62208
62173.3
62138.2
62102.4
62066.4
62032.8
61997.8
61962.9
61927.8
61892.5
61856.8
61820.4
61783.5
61745.9
61707.8
61669.3
61630.2
61590.8
61551.2
61511.4
61471.5
61431.7
61392.1
61352.7
61313.8
61275.2
61237.2
61199.6
61162.4
63674.3
63680.5
63682.7
63684.5
63679.3
63675.1
63666.1
63660.1
63650.1
63642.2
63630.3
63619.7
63605.6
63592.3
63575.8
63559.9
63541.1
63522.5
63501.4
63480.1
63456.7
63432.9
63407.3
63381.2
63353.6
63325.6
63296.5
63267
63236.7
63206.2
63175.1
63143.8
63112
63079.9
63047.5
63014.7
62981.5
62948.1
62914.5
62880.8
62846.9
62813
62779.1
62745.4
62711.7
62678.2
62644.8
62611.5
62578.3
62545.2
62512.2
62479.4
62446.5
62413.4
62380
62346.3
62312.1
62277.7
62243
62208.2
62173.5
62138.6
62102.7
62066.6
62033
61997.9
61963
61928
61892.9
61857.4
61821.5
61785.2
61748.4
61711.3
61673.8
61636.1
61598.2
61560.2
61522.1
61484.2
61446.3
61408.7
61371.4
61334.4
61297.6
61261.4
61225.4
61189.9
63674.2
63680.6
63682.8
63684.6
63679.3
63675.1
63666.1
63660.1
63650.1
63642.2
63630.3
63619.7
63605.5
63592.3
63575.8
63559.9
63541.1
63522.5
63501.3
63480.1
63456.6
63432.9
63407.2
63381.2
63353.6
63325.6
63296.5
63267
63236.7
63206.2
63175.1
63143.8
63112
63079.9
63047.5
63014.7
62981.5
62948.2
62914.6
62880.8
62847
62813.1
62779.3
62745.5
62711.9
62678.4
62645
62611.7
62578.5
62545.4
62512.4
62479.4
62446.4
62413.2
62379.8
62346
62311.9
62277.5
62243
62208.3
62173.7
62138.8
62102.8
62066.7
62033
61998
61963.1
61928.4
61893.5
61858.4
61823
61787.4
61751.5
61715.4
61679.2
61642.9
61606.5
61570.1
61533.8
61497.7
61461.7
61425.9
61390.4
61355.2
61320.2
61285.7
61251.4
61217.4
63674.1
63680.7
63682.8
63684.6
63679.3
63675.1
63666.1
63660.2
63650.1
63642.2
63630.2
63619.8
63605.5
63592.3
63575.8
63559.9
63541
63522.5
63501.3
63480.1
63456.6
63432.9
63407.2
63381.2
63353.6
63325.6
63296.4
63267
63236.7
63206.2
63175.1
63143.8
63112
63079.9
63047.5
63014.7
62981.6
62948.2
62914.6
62880.9
62847.1
62813.3
62779.5
62745.8
62712.2
62678.7
62645.3
62612
62578.7
62545.6
62512.5
62479.4
62446.3
62413
62379.5
62345.7
62311.6
62277.3
62242.9
62208.3
62173.8
62138.8
62102.8
62066.6
62032.9
61998
61963.2
61928.7
61894.2
61859.6
61824.9
61790.1
61755.1
61720.2
61685.2
61650.2
61615.3
61580.5
61545.9
61511.4
61477.1
61443
61409.2
61375.7
61342.3
61309.4
61276.6
61244.2
63674.1
63680.9
63682.8
63684.6
63679.2
63675.1
63666.1
63660.2
63650.1
63642.2
63630.2
63619.8
63605.4
63592.4
63575.7
63559.9
63541
63522.5
63501.2
63480.1
63456.5
63432.9
63407.1
63381.2
63353.5
63325.6
63296.4
63267
63236.7
63206.2
63175.1
63143.8
63112
63080
63047.5
63014.7
62981.6
62948.3
62914.7
62881
62847.2
62813.5
62779.7
62746.1
62712.5
62679
62645.6
62612.3
62579
62545.8
62512.7
62479.5
62446.2
62412.8
62379.1
62345.3
62311.2
62277
62242.6
62208
62173.4
62138.4
62102.3
62066.2
62032.5
61997.7
61963.1
61928.9
61894.8
61860.8
61826.8
61792.8
61758.9
61725
61691.2
61657.5
61624
61590.6
61557.4
61524.5
61491.7
61459.1
61426.8
61394.7
61362.8
61331.3
61299.9
61268.9
63674
63680.9
63682.8
63684.7
63679.2
63675.2
63666.1
63660.3
63650
63642.3
63630.1
63619.9
63605.4
63592.4
63575.6
63560
63540.9
63522.6
63501.2
63480.2
63456.5
63433
63407.1
63381.3
63353.5
63325.7
63296.4
63267.1
63236.7
63206.3
63175.1
63143.9
63112
63080
63047.5
63014.8
62981.7
62948.4
62914.8
62881.2
62847.4
62813.7
62780
62746.4
62712.8
62679.4
62646
62612.6
62579.4
62546.1
62512.8
62479.5
62446.1
62412.5
62378.8
62344.9
62310.7
62276.4
62242
62207.3
62172.7
62137.5
62101.4
62065.2
62031.6
61996.9
61962.5
61928.6
61894.9
61861.4
61828
61794.6
61761.5
61728.5
61695.7
61663
61630.5
61598.3
61566.2
61534.4
61502.7
61471.3
61440.1
61409.2
61378.5
61348
61317.8
61287.9
63674
63681
63682.8
63684.7
63679.2
63675.3
63666
63660.4
63650
63642.4
63630.1
63620
63605.3
63592.6
63575.6
63560.1
63540.8
63522.7
63501.1
63480.3
63456.4
63433.1
63407.1
63381.4
63353.5
63325.8
63296.4
63267.2
63236.7
63206.4
63175.1
63144
63112.1
63080.1
63047.6
63014.9
62981.7
62948.5
62914.9
62881.4
62847.6
62814
62780.3
62746.7
62713.2
62679.7
62646.3
62613
62579.7
62546.3
62513
62479.5
62446
62412.3
62378.4
62344.3
62310.1
62275.7
62241.1
62206.3
62171.5
62136.2
62099.9
62063.7
62030.1
61995.3
61961
61927.2
61893.7
61860.4
61827.4
61794.5
61761.8
61729.4
61697.1
61665.1
61633.4
61601.8
61570.5
61539.4
61508.6
61478
61447.6
61417.4
61387.5
61357.9
61328.4
61299.4
63674
63681
63682.8
63684.8
63679.2
63675.4
63666
63660.5
63649.9
63642.5
63630
63620.1
63605.2
63592.7
63575.5
63560.3
63540.8
63522.9
63501
63480.5
63456.4
63433.3
63407
63381.6
63353.5
63326
63296.4
63267.4
63236.8
63206.6
63175.2
63144.1
63112.1
63080.3
63047.6
63015
62981.8
62948.7
62915.1
62881.6
62847.8
62814.2
62780.5
62747
62713.5
62680.1
62646.7
62613.4
62580
62546.6
62513.2
62479.6
62445.9
62412
62378
62343.7
62309.3
62274.7
62239.8
62204.8
62169.8
62134.3
62097.8
62061.4
62027.6
61992.7
61958.3
61924.4
61890.9
61857.7
61824.7
61792
61759.5
61727.3
61695.4
61663.7
61632.3
61601.2
61570.4
61539.8
61509.4
61479.3
61449.5
61419.9
61390.5
61361.4
61332.5
61304
63674
63681.1
63682.8
63684.8
63679.1
63675.5
63665.9
63660.6
63649.8
63642.6
63629.9
63620.2
63605.1
63592.8
63575.4
63560.4
63540.7
63523.1
63501
63480.7
63456.3
63433.5
63407
63381.8
63353.5
63326.2
63296.4
63267.6
63236.8
63206.8
63175.2
63144.3
63112.2
63080.4
63047.7
63015.2
62981.9
62948.9
62915.2
62881.8
62848
62814.5
62780.8
62747.3
62713.8
62680.5
62647.1
62613.8
62580.3
62546.9
62513.3
62479.7
62445.8
62411.8
62377.5
62343
62308.3
62273.4
62238.3
62203
62167.6
62131.8
62095
62058.3
62024.2
61988.9
61954.2
61920
61886.3
61852.8
61819.7
61786.8
61754.3
61722.1
61690.2
61658.6
61627.3
61596.4
61565.7
61535.4
61505.3
61475.5
61445.9
61416.6
61387.6
61358.8
61330.3
61302.1
63674.1
63681.1
63682.8
63684.9
63679.1
63675.6
63665.8
63660.7
63649.7
63642.8
63629.8
63620.4
63605
63593
63575.2
63560.6
63540.5
63523.3
63500.9
63480.9
63456.2
63433.7
63407
63382
63353.4
63326.5
63296.4
63267.9
63236.8
63207
63175.2
63144.5
63112.2
63080.7
63047.7
63015.5
62982
62949.1
62915.3
62882.1
62848.2
62814.8
62781
62747.7
62714.1
62680.9
62647.4
62614.2
62580.7
62547.3
62513.6
62479.8
62445.7
62411.5
62377
62342.2
62307.2
62271.9
62236.5
62200.8
62165
62128.8
62091.6
62054.3
62019.6
61983.8
61948.6
61913.9
61879.7
61845.8
61812.2
61778.9
61746.1
61713.5
61681.4
61649.6
61618.2
61587.2
61556.5
61526.2
61496.1
61466.4
61436.9
61407.8
61378.9
61350.2
61321.9
61293.9
63674.1
63681
63682.7
63685
63679
63675.7
63665.8
63660.8
63649.7
63642.9
63629.7
63620.6
63604.9
63593.2
63575.1
63560.9
63540.4
63523.5
63500.7
63481.2
63456.2
63434
63406.9
63382.4
63353.4
63326.8
63296.4
63268.2
63236.8
63207.3
63175.2
63144.8
63112.2
63080.9
63047.8
63015.7
62982
62949.4
62915.4
62882.3
62848.3
62815.1
62781.2
62748.1
62714.4
62681.3
62647.7
62614.6
62581
62547.6
62513.8
62480
62445.7
62411.3
62376.5
62341.5
62306.1
62270.5
62234.6
62198.5
62162.3
62125.6
62087.8
62049.8
62014.4
61977.9
61942
61906.6
61871.7
61837.1
61802.9
61769.1
61735.6
61702.6
61670
61637.9
61606.1
61574.8
61543.8
61513.3
61483.1
61453.2
61423.7
61394.4
61365.5
61336.9
61308.5
61280.6
63674.2
63681
63682.7
63685.1
63679
63675.8
63665.7
63661
63649.6
63643.1
63629.6
63620.7
63604.8
63593.4
63575
63561.1
63540.3
63523.8
63500.6
63481.4
63456.1
63434.3
63406.8
63382.7
63353.3
63327.1
63296.4
63268.4
63236.7
63207.6
63175.2
63145.1
63112.2
63081.2
63047.8
63016
62982.1
62949.7
62915.4
62882.6
62848.3
62815.4
62781.3
62748.4
62714.5
62681.6
62647.9
62615
62581.2
62548
62514
62480.2
62445.7
62411.3
62376.1
62340.9
62305.1
62269.1
62232.9
62196.4
62159.9
62122.7
62084.3
62045.5
62009.4
61972.1
61935.3
61899.2
61863.5
61828.2
61793.3
61758.7
61724.6
61691
61657.9
61625.2
61593
61561.2
61529.8
61498.9
61468.4
61438.2
61408.4
61379
61349.8
61321
61292.5
61264.4
63674.2
63680.9
63682.7
63685.1
63679
63675.9
63665.7
63661
63649.5
63643.2
63629.5
63620.8
63604.7
63593.5
63574.9
63561.3
63540.2
63524
63500.6
63481.7
63456
63434.5
63406.7
63382.9
63353.3
63327.4
63296.3
63268.7
63236.7
63207.8
63175.2
63145.3
63112.1
63081.4
63047.7
63016.2
62982
62949.9
62915.4
62882.9
62848.3
62815.6
62781.3
62748.7
62714.6
62682
62648
62615.3
62581.4
62548.4
62514.1
62480.5
62445.7
62411.3
62375.8
62340.5
62304.3
62268
62231.4
62194.6
62157.7
62120.1
62081.2
62041.6
62004.7
61966.6
61929
61892
61855.4
61819.4
61783.7
61748.4
61713.6
61679.4
61645.6
61612.3
61579.6
61547.3
61515.5
61484.2
61453.2
61422.7
61392.5
61362.8
61333.3
61304.2
61275.4
61247.1
63674.3
63680.9
63682.6
63685.2
63678.9
63675.9
63665.6
63661.1
63649.5
63643.3
63629.5
63620.9
63604.6
63593.7
63574.8
63561.4
63540.1
63524.1
63500.5
63481.9
63455.9
63434.7
63406.7
63383.1
63353.2
63327.6
63296.3
63268.9
63236.6
63208
63175.1
63145.5
63112.1
63081.6
63047.7
63016.4
62982
62950.1
62915.4
62883.1
62848.3
62815.9
62781.3
62748.9
62714.6
62682.2
62648.1
62615.7
62581.5
62548.7
62514.2
62480.8
62445.7
62411.4
62375.6
62340.2
62303.6
62267.1
62230.2
62193.1
62156
62118
62078.6
62038.2
62000.5
61961.5
61923
61885.2
61847.9
61811
61774.6
61738.5
61703
61668
61633.6
61599.7
61566.5
61533.7
61501.5
61469.7
61438.4
61407.4
61376.9
61346.7
61316.9
61287.4
61258.3
61229.7
63674.3
63680.8
63682.6
63685.2
63678.9
63676
63665.6
63661.2
63649.4
63643.3
63629.4
63621
63604.6
63593.8
63574.8
63561.5
63540.1
63524.2
63500.4
63482
63455.8
63434.9
63406.6
63383.3
63353.2
63327.7
63296.2
63269.1
63236.6
63208.2
63175.1
63145.7
63112.1
63081.8
63047.7
63016.6
62982
62950.3
62915.3
62883.2
62848.2
62816
62781.3
62749.1
62714.6
62682.5
62648.1
62615.9
62581.5
62549
62514.2
62481
62445.6
62411.5
62375.3
62340
62303
62266.4
62229.1
62191.9
62154.5
62116.3
62076.5
62035.3
61996.8
61957
61917.7
61879
61841
61803.4
61766.1
61729.2
61692.9
61657.1
61622
61587.5
61553.8
61520.6
61488
61455.9
61424.1
61392.8
61361.9
61331.3
61301.2
61271.4
61242
61213.1
63674.4
63680.8
63682.6
63685.2
63678.9
63676
63665.6
63661.2
63649.4
63643.4
63629.4
63621.1
63604.5
63593.8
63574.7
63561.6
63540
63524.4
63500.4
63482.1
63455.8
63435
63406.6
63383.4
63353.1
63327.9
63296.2
63269.2
63236.6
63208.3
63175.1
63145.8
63112
63081.9
63047.6
63016.7
62981.9
62950.4
62915.3
62883.4
62848.2
62816.2
62781.2
62749.3
62714.6
62682.6
62648.1
62616.1
62581.6
62549.2
62514.2
62481.3
62445.6
62411.7
62375.1
62339.9
62302.4
62265.8
62228.2
62190.9
62153.3
62115
62074.9
62033
61993.8
61953.1
61913
61873.6
61834.8
61796.6
61758.5
61720.8
61683.5
61646.8
61610.9
61575.9
61541.7
61508.2