/*--------------------------------*- C++ -*----------------------------------*\
| =========                 |                                                 |
| \\      /  F ield         | OpenFOAM: The Open Source CFD Toolbox           |
|  \\    /   O peration     | Version:  2306                                  |
|   \\  /    A nd           | Website:  www.openfoam.com                      |
|    \\/     M anipulation  |                                                 |
\*---------------------------------------------------------------------------*/
FoamFile
{
    version     2.0;
    format      ascii;
    arch        "LSB;label=32;scalar=64";
    class       surfaceScalarField;
    location    "600";
    object      phi;
}
// * * * * * * * * * * * * * * * * * * * * * * * * * * * * * * * * * * * * * //

dimensions      [0 3 -1 0 0 0 0];

oriented        oriented;

internalField   nonuniform List<scalar> 
40747
(
1.75302e-05
-2.65069e-06
7.49509e-06
1.00308e-05
2.11648e-05
-5.81799e-06
1.52919e-05
1.3354e-05
2.54879e-05
-9.53639e-06
2.31132e-05
1.7642e-05
3.05803e-05
-1.3785e-05
3.05703e-05
2.30828e-05
3.65044e-05
-1.84403e-05
3.71737e-05
2.98377e-05
4.32993e-05
-2.32176e-05
4.23704e-05
3.80084e-05
5.09936e-05
-2.7619e-05
4.56331e-05
4.75963e-05
5.96653e-05
-3.09321e-05
4.66226e-05
5.84892e-05
6.95921e-05
-3.23686e-05
4.54227e-05
7.05383e-05
8.15008e-05
-3.14387e-05
4.27615e-05
8.38222e-05
9.6761e-05
-2.85015e-05
3.9977e-05
9.90983e-05
0.000117085
-2.49971e-05
3.84018e-05
0.000118086
0.000143493
-2.26243e-05
3.8337e-05
0.000142842
0.000175661
-2.18406e-05
3.88216e-05
0.000174299
0.000213318
-2.17209e-05
3.89029e-05
0.000212165
0.000257939
-2.14709e-05
3.85592e-05
0.000256975
0.000311906
-2.1048e-05
3.80775e-05
0.00031079
0.000377324
-2.05487e-05
3.75049e-05
0.000375948
0.000456458
-1.99494e-05
3.67869e-05
0.000454808
0.000552176
-1.92139e-05
3.58858e-05
0.000550208
0.000667973
-1.83178e-05
3.47601e-05
0.00066562
0.000808069
-1.72413e-05
3.33653e-05
0.000805243
0.000977566
-1.59662e-05
3.16551e-05
0.000974155
0.00118263
-1.44755e-05
2.95811e-05
0.0011785
0.00143074
-1.27549e-05
2.70941e-05
0.00142572
0.00173091
-1.07933e-05
2.41466e-05
0.00172479
0.00209408
-8.58289e-06
2.06988e-05
0.00208661
0.00253344
-5.90813e-06
1.71656e-05
0.00252432
0.00306498
-2.35107e-06
1.48457e-05
0.00305385
0.003708
2.35781e-06
1.38699e-05
0.00369446
0.00355304
5.49157e-06
1.09008e-05
0.00354002
0.00355308
8.09552e-06
7.24441e-06
0.00354008
0.00355302
1.0642e-05
3.48609e-06
0.00354009
0.00355286
1.37862e-05
8.6924e-07
0.00354005
0.00359522
1.77857e-05
-5.9979e-07
0.00358243
0.00299061
2.01932e-05
-3.8045e-06
0.00298012
0.00248767
2.16179e-05
-7.81851e-06
0.00247906
0.00206931
2.2456e-05
-1.20527e-05
0.00206225
0.00172132
2.29529e-05
-1.61567e-05
0.00171552
0.00143187
2.32531e-05
-1.99392e-05
0.00142708
0.0011911
2.34385e-05
-2.33111e-05
0.00118714
0.000990831
2.35543e-05
-2.62461e-05
0.00098755
0.000824246
2.36243e-05
-2.87553e-05
0.000821514
0.00068568
2.36609e-05
-3.08692e-05
0.000683394
0.000570418
2.36709e-05
-3.2628e-05
0.000568498
0.000474539
2.36594e-05
-3.40769e-05
0.000472921
0.000394775
2.36383e-05
-3.52644e-05
0.000393411
0.000328404
2.3628e-05
-3.62512e-05
0.000327273
0.000273238
2.35827e-05
-3.70781e-05
0.000272313
0.000227479
2.33779e-05
-3.75907e-05
0.000226543
0.000189134
2.33189e-05
-3.75485e-05
0.000187888
0.000156247
2.43665e-05
-3.73502e-05
0.000155047
0.000128239
2.69853e-05
-3.80656e-05
0.000128129
0.000105657
3.01996e-05
-4.02303e-05
0.000107155
8.84029e-05
3.23835e-05
-4.31573e-05
9.08016e-05
7.5257e-05
3.25052e-05
-4.55368e-05
7.72244e-05
6.4731e-05
3.05011e-05
-4.62823e-05
6.51581e-05
5.57749e-05
2.69257e-05
-4.48929e-05
5.41425e-05
4.78684e-05
2.24966e-05
-4.13984e-05
4.41913e-05
4.08212e-05
1.78244e-05
-3.61544e-05
3.54433e-05
3.45807e-05
1.33252e-05
-2.96525e-05
2.79834e-05
2.91235e-05
9.23136e-06
-2.23968e-05
2.17974e-05
2.4414e-05
5.63677e-06
-1.48354e-05
1.67896e-05
2.03962e-05
2.57038e-06
-7.28716e-06
1.28162e-05
1.69995e-05
9.7123e-06
7.01016e-07
9.32081e-06
3.44997e-07
3.49785e-07
2.70551e-07
6.70297e-08
2.33952e-07
3.42654e-08
2.10535e-07
1.85419e-08
1.94241e-07
1.66185e-08
1.80513e-07
1.07172e-08
1.70008e-07
1.15364e-08
1.60783e-07
7.24218e-09
1.53801e-07
8.32931e-09
1.47506e-07
5.14374e-09
1.42861e-07
6.51308e-09
1.38585e-07
4.01736e-09
1.35659e-07
5.49461e-09
1.32985e-07
3.49972e-09
1.31479e-07
4.93477e-09
1.30214e-07
3.38952e-09
1.29974e-07
4.6796e-09
1.29994e-07
3.55595e-09
1.30898e-07
4.64175e-09
1.32081e-07
3.88674e-09
1.34007e-07
4.73235e-09
1.36222e-07
4.27304e-09
1.39038e-07
4.87394e-09
1.42121e-07
4.64675e-09
1.45633e-07
5.04018e-09
1.49324e-07
4.99302e-09
1.53236e-07
5.22374e-09
1.57194e-07
5.27173e-09
1.612e-07
5.33952e-09
1.65177e-07
5.34891e-09
1.69149e-07
5.2201e-09
1.73127e-07
5.08201e-09
1.77157e-07
4.76949e-09
1.81286e-07
4.48334e-09
1.85544e-07
4.07703e-09
1.89963e-07
3.72799e-09
1.94542e-07
3.33494e-09
1.99289e-07
3.0101e-09
2.04166e-07
2.72025e-09
1.05801e-07
1.05801e-07
4.31451e-09
1.08337e-07
1.10939e-07
-9.9859e-08
2.23229e-07
-1.05059e-07
2.31518e-07
-1.08269e-09
2.27081e-07
1.16e-08
2.33704e-07
4.22842e-10
2.49351e-07
-8.70506e-09
2.3746e-07
1.86543e-08
2.29809e-07
1.43189e-08
2.33778e-07
2.59194e-09
2.54439e-07
-1.37443e-08
2.78951e-07
-1.70244e-08
2.82826e-07
6.05867e-09
2.91013e-07
3.0225e-09
3.03681e-07
3.80535e-09
3.14588e-07
5.57179e-09
3.27008e-07
9.76528e-09
3.40557e-07
5.91682e-09
3.53492e-07
1.05239e-08
3.66322e-07
5.56222e-09
3.80706e-07
7.1494e-09
4.29126e-07
-3.28496e-08
4.72334e-07
-1.87586e-08
4.93012e-07
-1.51354e-09
4.99453e-07
2.58921e-08
5.01916e-07
2.50385e-08
5.04012e-07
4.67598e-08
5.11693e-07
4.29089e-08
5.3552e-07
4.6428e-08
5.81565e-07
2.84089e-08
6.34275e-07
2.1177e-08
6.82075e-07
2.68635e-08
7.17408e-07
2.70376e-08
7.38082e-07
4.09892e-08
7.72835e-07
2.73881e-08
8.14143e-07
2.87056e-08
8.46388e-07
6.06439e-08
8.54337e-07
1.13051e-07
8.75717e-07
1.43056e-07
9.00211e-07
1.83864e-07
9.641e-07
1.82941e-07
1.02373e-06
2.24283e-07
1.10656e-06
2.12491e-07
1.20892e-06
2.1077e-07
1.12182e-06
3.82837e-07
1.34698e-06
1.07961e-07
-2.0781e-06
3.72339e-06
2.57658e-06
2.00714e-05
1.3608e-06
1.54735e-06
1.0702e-06
3.35323e-07
9.28592e-07
1.69344e-07
8.33906e-07
9.85985e-08
7.67809e-07
8.38971e-08
7.14645e-07
5.47942e-08
6.7147e-07
5.79572e-08
6.38467e-07
3.42812e-08
6.10015e-07
4.10496e-08
5.88804e-07
2.29678e-08
5.70118e-07
3.11175e-08
5.56128e-07
1.74176e-08
5.44446e-07
2.52975e-08
5.35837e-07
1.49209e-08
5.29678e-07
2.19075e-08
5.25693e-07
1.42447e-08
5.24132e-07
2.02039e-08
5.24276e-07
1.4789e-08
5.26525e-07
1.97812e-08
5.30268e-07
1.61257e-08
5.35592e-07
2.02212e-08
5.42325e-07
1.78712e-08
5.50002e-07
2.11619e-08
5.58974e-07
1.97826e-08
5.6821e-07
2.23705e-08
5.78544e-07
2.16181e-08
5.88623e-07
2.34166e-08
5.9967e-07
2.27525e-08
6.10383e-07
2.34403e-08
6.22112e-07
2.2331e-08
6.33834e-07
2.17488e-08
6.46599e-07
2.01296e-08
6.59691e-07
1.86653e-08
6.73592e-07
1.69701e-08
6.87879e-07
1.53163e-08
7.02555e-07
1.39849e-08
7.17498e-07
1.26036e-08
7.32389e-07
1.18313e-08
7.47545e-07
1.07831e-08
6.6723e-07
2.0895e-07
5.8456e-07
2.13613e-07
6.8833e-07
-1.81274e-07
8.03404e-07
-1.98017e-07
8.28107e-07
-3.89832e-09
8.25325e-07
3.60933e-08
8.43921e-07
3.12178e-09
8.81506e-07
-2.53698e-08
8.66883e-07
5.36047e-08
8.59672e-07
4.15506e-08
8.76622e-07
5.41238e-09
9.26412e-07
-4.23788e-08
9.85867e-07
-5.34358e-08
1.00949e-06
1.34753e-08
1.03963e-06
7.45162e-09
1.09079e-06
2.93875e-09
1.11966e-06
2.61874e-08
1.17155e-06
2.34702e-08
1.19806e-06
3.61681e-08
1.25081e-06
2.54883e-08
1.27465e-06
3.40204e-08
1.33274e-06
9.9083e-09
1.46992e-06
-1.26889e-07
1.63812e-06
-1.19841e-07
1.68002e-06
8.32327e-09
1.75474e-06
3.93729e-08
1.72808e-06
1.2847e-07
1.80298e-06
1.05124e-07
1.79171e-06
1.92266e-07
1.9226e-06
9.83908e-08
2.01493e-06
1.26009e-07
2.19117e-06
2.56865e-08
2.31239e-06
8.45084e-08
2.43252e-06
5.56083e-08
2.49651e-06
1.23686e-07
2.60921e-06
6.55643e-08
2.72382e-06
8.56811e-08
2.88031e-06
1.326e-07
2.93956e-06
3.50757e-07
3.07401e-06
4.02793e-07
3.0639e-06
6.79609e-07
3.23948e-06
5.59897e-07
3.27351e-06
8.07573e-07
3.49715e-06
6.12473e-07
3.72224e-06
6.41615e-07
3.56801e-06
1.19207e-06
4.83743e-06
-4.66016e-07
-3.16506e-06
6.47245e-06
5.40465e-06
3.22624e-05
3.01443e-06
3.90625e-06
2.36844e-06
9.41976e-07
2.05207e-06
4.74626e-07
1.84309e-06
2.81668e-07
1.69642e-06
2.32855e-07
1.57882e-06
1.56221e-07
1.48337e-06
1.59309e-07
1.40902e-06
9.80334e-08
1.34551e-06
1.12348e-07
1.29677e-06
6.57489e-08
1.25439e-06
8.42978e-08
1.22169e-06
4.92399e-08
1.19449e-06
6.73008e-08
1.17381e-06
4.09014e-08
1.15861e-06
5.67877e-08
1.14821e-06
3.7301e-08
1.14308e-06
5.07064e-08
1.14181e-06
3.68337e-08
1.14514e-06
4.79867e-08
1.15185e-06
3.84513e-08
1.16213e-06
4.75936e-08
1.17554e-06
4.12536e-08
1.19128e-06
4.86458e-08
1.20984e-06
4.46852e-08
1.22938e-06
5.0585e-08
1.25121e-06
4.81933e-08
1.27287e-06
5.23694e-08
1.29634e-06
5.02684e-08
1.31927e-06
5.18812e-08
1.34388e-06
4.87968e-08
1.36838e-06
4.7385e-08
1.39459e-06
4.31789e-08
1.42131e-06
3.9637e-08
1.44944e-06
3.53675e-08
1.47832e-06
3.13573e-08
1.50801e-06
2.80607e-08
1.53833e-06
2.46938e-08
1.56881e-06
2.2779e-08
1.59959e-06
2.0459e-08
1.54785e-06
3.00441e-07
1.49582e-06
3.04871e-07
1.60024e-06
-2.47048e-07
1.72025e-06
-2.79919e-07
1.76706e-06
-1.32404e-08
1.77685e-06
6.32924e-08
1.81572e-06
3.52775e-10
1.8779e-06
-5.22758e-08
1.87402e-06
9.15575e-08
1.88047e-06
6.84883e-08
1.9188e-06
-1.90042e-11
1.99754e-06
-8.57608e-08
2.08728e-06
-1.04642e-07
2.13345e-06
1.94028e-08
2.19256e-06
5.68971e-09
2.28354e-06
-5.51866e-09
2.3448e-06
4.49427e-08
2.44105e-06
3.16407e-08
2.50433e-06
6.19393e-08
2.6036e-06
3.11323e-08
2.66238e-06
5.49581e-08
2.7747e-06
-1.1035e-08
3.05093e-06
-3.40852e-07
3.32812e-06
-3.03545e-07
3.42321e-06
-1.59354e-08
3.52612e-06
5.75696e-08
3.48595e-06
2.75144e-07
3.56328e-06
2.09954e-07
3.54172e-06
4.01841e-07
3.73921e-06
1.41653e-07
3.93057e-06
1.79239e-07
4.24118e-06
-6.02355e-08
4.48033e-06
6.28689e-08
4.68283e-06
3.25552e-08
4.77545e-06
2.08379e-07
4.93149e-06
9.35596e-08
5.08645e-06
1.37868e-07
5.26354e-06
2.24964e-07
5.31315e-06
6.42262e-07
5.44166e-06
7.09356e-07
5.46183e-06
1.1826e-06
5.70578e-06
8.97456e-07
5.84511e-06
1.31733e-06
6.14943e-06
9.7253e-07
6.67202e-06
8.50974e-07
5.88972e-06
2.78614e-06
7.28315e-06
-1.04057e-06
-5.21792e-06
9.91859e-06
9.53181e-06
4.57371e-05
5.64789e-06
7.73814e-06
4.44121e-06
2.08158e-06
3.84646e-06
1.0508e-06
3.4543e-06
6.29161e-07
3.17889e-06
5.12416e-07
2.95864e-06
3.48428e-07
2.78011e-06
3.4821e-07
2.64009e-06
2.19653e-07
2.52084e-06
2.45318e-07
2.42833e-06
1.47986e-07
2.34819e-06
1.83482e-07
2.28555e-06
1.10531e-07
2.2334e-06
1.4553e-07
2.19308e-06
9.07408e-08
2.16297e-06
1.21547e-07
2.14155e-06
8.11115e-08
2.12982e-06
1.07012e-07
2.12511e-06
7.81295e-08
2.12876e-06
9.95751e-08
2.13854e-06
7.95682e-08
2.1548e-06
9.70619e-08
2.17667e-06
8.35636e-08
2.20284e-06
9.76321e-08
2.23401e-06
8.89492e-08
2.2671e-06
1.00103e-07
2.30421e-06
9.45944e-08
2.34121e-06
1.02392e-07
2.38131e-06
9.75483e-08
2.42053e-06
1.0037e-07
2.46251e-06
9.3725e-08
2.50421e-06
9.06812e-08
2.54861e-06
8.19801e-08
2.5937e-06
7.48004e-08
2.64099e-06
6.60753e-08
2.68938e-06
5.7961e-08
2.73906e-06
5.11644e-08
2.78968e-06
4.42704e-08
2.84066e-06
4.00728e-08
2.89144e-06
3.60403e-08
2.87391e-06
3.8288e-07
2.85944e-06
3.83027e-07
2.97061e-06
-2.95817e-07
3.09984e-06
-3.4796e-07
3.17225e-06
-2.59152e-08
3.20431e-06
8.98085e-08
3.26985e-06
-8.4338e-09
3.35804e-06
-8.53775e-08
3.37747e-06
1.24905e-07
3.40981e-06
8.74514e-08
3.47794e-06
-1.78577e-08
3.58707e-06
-1.40875e-07
3.70652e-06
-1.65412e-07
3.78407e-06
2.09925e-08
3.88072e-06
-4.84083e-09
4.01845e-06
-2.07132e-08
4.12126e-06
5.93212e-08
4.27175e-06
3.19075e-08
4.38334e-06
7.71457e-08
4.54012e-06
2.18536e-08
4.64525e-06
6.03305e-08
4.8198e-06
-6.11252e-08
5.25713e-06
-6.96804e-07
5.64148e-06
-5.69733e-07
5.80482e-06
-9.08126e-08
5.9373e-06
7.64792e-08
5.8785e-06
4.67594e-07
5.93015e-06
3.853e-07
5.87773e-06
6.87391e-07
6.13845e-06
1.7259e-07
6.43915e-06
1.6984e-07
6.88452e-06
-2.43569e-07
7.24891e-06
-5.06749e-08
7.51978e-06
-3.0769e-08
7.62583e-06
3.10081e-07
7.82124e-06
1.15435e-07
7.99606e-06
2.04553e-07
8.16106e-06
3.64764e-07
8.2035e-06
9.75476e-07
8.32577e-06
1.05603e-06
8.40112e-06
1.68138e-06
8.69298e-06
1.24993e-06
8.92503e-06
1.82064e-06
9.25215e-06
1.41929e-06
9.85774e-06
1.12664e-06
8.59175e-06
5.01279e-06
1.00162e-05
-1.50877e-06
-8.03282e-06
1.34918e-05
1.53658e-05
6.00903e-05
9.7237e-06
1.32982e-05
7.6778e-06
4.01866e-06
6.65247e-06
2.04639e-06
5.97483e-06
1.23302e-06
5.49935e-06
9.95068e-07
5.11978e-06
6.81276e-07
4.8128e-06
6.72683e-07
4.57098e-06
4.30724e-07
4.36549e-06
4.74047e-07
4.20491e-06
2.91457e-07
4.0662e-06
3.54477e-07
3.9567e-06
2.18015e-07
3.86555e-06
2.80854e-07
3.79398e-06
1.78646e-07
3.73998e-06
2.34104e-07
3.70026e-06
1.58839e-07
3.67697e-06
2.0539e-07
3.6651e-06
1.51666e-07
3.66729e-06
1.90025e-07
3.67937e-06
1.52735e-07
3.70225e-06
1.83776e-07
3.73414e-06
1.58433e-07
3.77312e-06
1.83077e-07
3.8201e-06
1.66419e-07
3.87029e-06
1.85536e-07
3.92693e-06
1.7445e-07
3.98353e-06
1.87287e-07
4.04513e-06
1.7732e-07
4.10538e-06
1.81237e-07
4.16995e-06
1.68249e-07
4.23392e-06
1.61989e-07
4.30187e-06
1.45725e-07
4.37055e-06
1.3245e-07
4.44228e-06
1.16433e-07
4.51532e-06
1.01637e-07
4.59002e-06
8.90623e-08
4.66585e-06
7.63956e-08
4.74217e-06
6.80726e-08
4.81691e-06
6.20641e-08
4.83884e-06
4.58824e-07
4.86917e-06
4.48032e-07
4.99412e-06
-3.27992e-07
5.13659e-06
-4.00093e-07
5.2367e-06
-3.8498e-08
5.29988e-06
1.11762e-07
5.39853e-06
-2.52508e-08
5.51371e-06
-1.21745e-07
5.56738e-06
1.46077e-07
5.63658e-06
9.03615e-08
5.74277e-06
-5.38377e-08
5.8838e-06
-2.06731e-07
6.03205e-06
-2.32373e-07
6.14754e-06
1.45706e-08
6.28901e-06
-2.89517e-08
6.47693e-06
-4.34025e-08
6.62984e-06
6.24751e-08
6.8402e-06
1.98797e-08
7.01175e-06
7.04481e-08
7.23236e-06
-8.98135e-09
7.39639e-06
3.6884e-08
7.63056e-06
-1.39283e-07
8.23638e-06
-1.20445e-06
8.71887e-06
-9.14264e-07
8.98117e-06
-2.51818e-07
9.16205e-06
6.83079e-08
9.08348e-06
6.99019e-07
9.07567e-06
6.52141e-07
8.96713e-06
1.0595e-06
9.30809e-06
1.52637e-07
9.74437e-06
5.00843e-08
1.03117e-05
-5.27699e-07
1.07849e-05
-2.5059e-07
1.1068e-05
-8.6442e-08
1.1196e-05
4.05767e-07
1.14712e-05
7.61176e-08
1.16153e-05
3.37768e-07
1.16723e-05
6.81498e-07
1.16703e-05
1.46225e-06
1.17417e-05
1.617e-06
1.17563e-05
2.45761e-06
1.19401e-05
1.95711e-06
1.21331e-05
2.62677e-06
1.2471e-05
2.08912e-06
1.29147e-05
1.7837e-06
1.19839e-05
7.00802e-06
1.36523e-05
-2.10326e-06
-1.09915e-05
1.73656e-05
2.33458e-05
7.45793e-05
1.58465e-05
2.0677e-05
1.26306e-05
7.06979e-06
1.09609e-05
3.67159e-06
9.85e-06
2.22949e-06
9.07083e-06
1.78592e-06
8.449e-06
1.22974e-06
7.94778e-06
1.20177e-06
7.55046e-06
7.79523e-07
7.21408e-06
8.47638e-07
6.94867e-06
5.29982e-07
6.72048e-06
6.34396e-07
6.53801e-06
3.9773e-07
6.38646e-06
5.03084e-07
6.26517e-06
3.26476e-07
6.17294e-06
4.19736e-07
6.10245e-06
2.90189e-07
6.05872e-06
3.68307e-07
6.03216e-06
2.76092e-07
6.02824e-06
3.40006e-07
6.03909e-06
2.75986e-07
6.06713e-06
3.27059e-07
6.1086e-06
2.83251e-07
6.16128e-06
3.2297e-07
6.22588e-06
2.93485e-07
6.2957e-06
3.23217e-07
6.37522e-06
3.02547e-07
6.45508e-06
3.21191e-07
6.54248e-06
3.02118e-07
6.6281e-06
3.05995e-07
6.71997e-06
2.82373e-07
6.81073e-06
2.7025e-07
6.90676e-06
2.42166e-07
7.00318e-06
2.19454e-07
7.10326e-06
1.92465e-07
7.20445e-06
1.67704e-07
7.30738e-06
1.46418e-07
7.41128e-06
1.25163e-07
7.51579e-06
1.10087e-07
7.61624e-06
1.02185e-07
7.67916e-06
5.31466e-07
7.75795e-06
5.00275e-07
7.90305e-06
-3.4645e-07
8.06195e-06
-4.36488e-07
8.18911e-06
-4.78022e-08
8.28762e-06
1.27009e-07
8.42293e-06
-5.20037e-08
8.56453e-06
-1.59516e-07
8.6578e-06
1.5062e-07
8.76884e-06
7.28507e-08
8.91739e-06
-1.11893e-07
9.08989e-06
-2.82666e-07
9.26507e-06
-3.03634e-07
9.41921e-06
-8.18678e-10
9.60793e-06
-6.97183e-08
9.84411e-06
-7.30053e-08
1.00516e-05
4.83804e-08
1.03203e-05
-5.14139e-09
1.05593e-05
3.23406e-08
1.08406e-05
-6.04393e-08
1.10746e-05
-2.8073e-08
1.13542e-05
-2.32695e-07
1.21053e-05
-1.84154e-06
1.26928e-05
-1.34774e-06
1.31417e-05
-5.91763e-07
1.34471e-05
-5.42932e-08
1.33523e-05
9.55602e-07
1.32579e-05
1.02053e-06
1.30838e-05
1.50991e-06
1.35647e-05
3.03416e-09
1.41855e-05
-2.43558e-07
1.4849e-05
-8.94169e-07
1.53535e-05
-4.65376e-07
1.5472e-05
3.19561e-08
1.58542e-05
2.41144e-07
1.65633e-05
-4.13467e-07
1.64689e-05
7.05399e-07
1.5795e-05
1.77378e-06
1.51779e-05
2.67609e-06
1.47893e-05
2.81797e-06
1.45519e-05
3.66062e-06
1.45797e-05
3.00502e-06
1.47283e-05
3.62025e-06
1.53983e-05
2.50971e-06
1.57521e-05
2.56938e-06
1.62923e-05
7.48738e-06
1.90642e-05
-3.81235e-06
-1.31363e-05
2.20101e-05
3.3858e-05
8.80782e-05
2.47271e-05
2.96431e-05
2.00406e-05
1.15262e-05
1.74553e-05
6.1957e-06
1.57092e-05
3.81206e-06
1.44813e-05
3.03135e-06
1.3499e-05
2.1056e-06
1.27106e-05
2.03121e-06
1.20787e-05
1.34067e-06
1.15471e-05
1.4344e-06
1.11209e-05
9.17176e-07
1.07575e-05
1.07451e-06
1.04611e-05
6.90825e-07
1.02164e-05
8.52535e-07
1.00152e-05
5.67616e-07
9.86135e-06
7.11389e-07
9.73827e-06
5.03411e-07
9.65791e-06
6.23465e-07
9.60157e-06
4.75887e-07
9.58088e-06
5.73146e-07
9.58077e-06
4.70593e-07
9.60759e-06
5.47e-07
9.65308e-06
4.762e-07
9.71627e-06
5.34012e-07
9.79612e-06
4.85101e-07
9.88476e-06
5.26378e-07
9.98709e-06
4.90397e-07
1.00911e-05
5.13828e-07
1.02057e-05
4.80121e-07
1.03184e-05
4.81346e-07
1.04393e-05
4.41755e-07
1.05583e-05
4.20291e-07
1.06833e-05
3.75711e-07
1.08077e-05
3.39984e-07
1.09355e-05
2.98303e-07
1.10636e-05
2.60301e-07
1.11929e-05
2.27329e-07
1.13224e-05
1.9474e-07
1.14526e-05
1.6986e-07
1.15753e-05
1.60627e-07
1.16737e-05
6.06854e-07
1.17965e-05
5.44407e-07
1.19628e-05
-3.52318e-07
1.21372e-05
-4.56435e-07
1.22857e-05
-4.85363e-08
1.24151e-05
1.39568e-07
1.25828e-05
-8.50911e-08
1.27456e-05
-1.94082e-07
1.28749e-05
1.41452e-07
1.30219e-05
4.01696e-08
1.32079e-05
-1.87745e-07
1.34046e-05
-3.62076e-07
1.36012e-05
-3.74451e-07
1.37861e-05
-1.81043e-08
1.40142e-05
-1.20058e-07
1.42883e-05
-9.98546e-08
1.45437e-05
2.32602e-08
1.48579e-05
-3.01888e-08
1.51604e-05
-3.24659e-08
1.54831e-05
-1.11838e-07
1.57896e-05
-1.35802e-07
1.60961e-05
-3.20561e-07
1.68624e-05
-2.47417e-06
1.76e-05
-1.90746e-06
1.84379e-05
-1.30633e-06
1.90792e-05
-4.93356e-07
1.89818e-05
1.23038e-06
1.88011e-05
1.50127e-06
1.85636e-05
2.05375e-06
1.92112e-05
-2.70066e-07
2.00345e-05
-6.92326e-07
2.07042e-05
-1.22142e-06
2.11957e-05
-6.24479e-07
2.13297e-05
1.68721e-07
2.26778e-05
-8.63866e-07
2.48895e-05
-2.39472e-06
2.51234e-05
7.34893e-07
2.2883e-05
4.39668e-06
2.05393e-05
5.54172e-06
1.86327e-05
5.42355e-06
1.81933e-05
4.91213e-06
1.84429e-05
3.67001e-06
1.90522e-05
3.96953e-06
2.07703e-05
1.71474e-06
2.06189e-05
3.65712e-06
2.2617e-05
6.31672e-06
2.75387e-05
-7.81842e-06
-1.32613e-05
2.84305e-05
4.70891e-05
9.91626e-05
3.70524e-05
3.94682e-05
3.08041e-05
1.74782e-05
2.70339e-05
9.88838e-06
2.44079e-05
6.22403e-06
2.25437e-05
4.91969e-06
2.10415e-05
3.46658e-06
1.98408e-05
3.28719e-06
1.88614e-05
2.22565e-06
1.80449e-05
2.3257e-06
1.73742e-05
1.53602e-06
1.68096e-05
1.74326e-06
1.63359e-05
1.16104e-06
1.59483e-05
1.38182e-06
1.56187e-05
9.52085e-07
1.53657e-05
1.15016e-06
1.5153e-05
8.38094e-07
1.50075e-05
1.00305e-06
1.48933e-05
7.82153e-07
1.48345e-05
9.14275e-07
1.48025e-05
7.60405e-07
1.48123e-05
8.62148e-07
1.48465e-05
7.54836e-07
1.49087e-05
8.2937e-07
1.49927e-05
7.53415e-07
1.50919e-05
8.0362e-07
1.52091e-05
7.45668e-07
1.53312e-05
7.70255e-07
1.54669e-05
7.15873e-07
1.56016e-05
7.10447e-07
1.57457e-05
6.4981e-07
1.58868e-05
6.15453e-07
1.60336e-05
5.50675e-07
1.61777e-05
4.99168e-07
1.6324e-05
4.40261e-07
1.64686e-05
3.86777e-07
1.6613e-05
3.40031e-07
1.67561e-05
2.94301e-07
1.68997e-05
2.56924e-07
1.70325e-05
2.47151e-07
1.71503e-05
6.98594e-07
1.72997e-05
5.9559e-07
1.74769e-05
-3.3725e-07
1.76568e-05
-4.51832e-07
1.78133e-05
-2.88853e-08
1.79571e-05
1.64304e-07
1.81404e-05
-1.08676e-07
1.83098e-05
-2.11911e-07
1.84597e-05
1.33246e-07
1.86222e-05
1.22782e-08
1.88266e-05
-2.62553e-07
1.90271e-05
-4.24525e-07
1.92306e-05
-4.29844e-07
1.94266e-05
-1.6893e-08
1.96705e-05
-1.54955e-07
1.99586e-05
-9.77195e-08
2.02382e-05
1.38269e-08
2.05719e-05
-2.50129e-08
2.09178e-05
-1.00011e-07
2.12512e-05
-1.2751e-07
2.16022e-05
-2.54189e-07
2.19637e-05
-4.26324e-07
2.25685e-05
-2.92078e-06
2.31506e-05
-2.27501e-06
2.37551e-05
-1.758e-06
2.4574e-05
-1.06128e-06
2.4679e-05
1.34308e-06
2.46496e-05
1.89354e-06
2.43312e-05
2.74245e-06
2.44592e-05
6.17169e-08
2.49394e-05
-7.09313e-07
2.54616e-05
-1.32233e-06
2.62075e-05
-9.65733e-07
2.63906e-05
3.19526e-07
2.6823e-05
-9.78806e-07
2.86004e-05
-3.86055e-06
3.07775e-05
-1.11004e-06
3.10484e-05
4.53555e-06
3.06359e-05
6.4396e-06
2.96615e-05
7.00283e-06
3.00824e-05
5.22694e-06
3.04697e-05
4.12938e-06
3.19478e-05
3.42332e-06
3.3722e-05
8.7298e-07
3.33445e-05
4.96014e-06
3.79978e-05
2.51809e-06
4.37442e-05
-1.26234e-05
-8.39359e-06
3.96081e-05
6.28507e-05
0.000106445
5.32149e-05
4.88428e-05
4.5791e-05
2.45425e-05
4.07429e-05
1.48442e-05
3.70242e-05
9.6834e-06
3.43233e-05
7.65092e-06
3.21128e-05
5.50481e-06
3.03475e-05
5.12074e-06
2.88735e-05
3.58423e-06
2.76552e-05
3.63662e-06
2.66241e-05
2.50403e-06
2.57674e-05
2.72905e-06
2.50248e-05
1.90039e-06
2.44228e-05
2.15907e-06
2.3892e-05
1.55164e-06
2.34825e-05
1.7885e-06
2.31217e-05
1.34959e-06
2.28648e-05
1.54694e-06
2.26456e-05
1.2367e-06
2.25109e-05
1.39298e-06
2.24088e-05
1.1761e-06
2.23704e-05
1.2938e-06
2.23618e-05
1.14105e-06
2.23969e-05
1.22403e-06
2.24587e-05
1.11381e-06
2.25463e-05
1.16552e-06
2.26558e-05
1.07937e-06
2.27765e-05
1.09853e-06
2.29133e-05
1.01823e-06
2.30515e-05
1.00099e-06
2.31994e-05
9.15676e-07
2.33436e-05
8.6533e-07
2.34916e-05
7.78635e-07
2.36344e-05
7.10049e-07
2.37766e-05
6.33379e-07
2.39142e-05
5.63841e-07
2.40495e-05
5.02719e-07
2.41811e-05
4.43427e-07
2.43126e-05
3.91966e-07
2.44307e-05
3.82075e-07
2.45396e-05
8.31032e-07
2.46838e-05
6.82357e-07
2.4846e-05
-2.78419e-07
2.50084e-05
-4.02135e-07
2.51491e-05
3.26948e-08
2.52796e-05
2.27307e-07
2.54476e-05
-9.34856e-08
2.5597e-05
-1.87394e-07
2.57399e-05
1.52976e-07
2.58849e-05
2.16618e-08
2.60756e-05
-3.04518e-07
2.62467e-05
-4.36668e-07
2.64308e-05
-4.43263e-07
2.661e-05
3.15639e-08
2.68375e-05
-1.41296e-07
2.71115e-05
-3.69209e-08
2.73878e-05
4.89457e-08
2.77221e-05
3.07741e-08
2.809e-05
-1.47553e-07
2.84232e-05
-9.53524e-08
2.87813e-05
-3.44789e-07
2.92129e-05
-5.63681e-07
2.96284e-05
-3.15275e-06
2.99656e-05
-2.3596e-06
2.99332e-05
-1.54054e-06
3.02087e-05
-1.02775e-06
3.01552e-05
1.66436e-06
3.02279e-05
2.25583e-06
3.02897e-05
3.11388e-06
3.06583e-05
2.2005e-07
3.12451e-05
-7.67911e-07
3.18618e-05
-1.46054e-06
3.25849e-05
-1.22935e-06
3.32109e-05
7.25938e-08
3.35768e-05
-9.73986e-07
3.36652e-05
-3.55943e-06
3.46785e-05
-1.69001e-06
3.58342e-05
3.89492e-06
3.66417e-05
6.23727e-06
3.69021e-05
7.48833e-06
3.72738e-05
5.76278e-06
3.75375e-05
4.90695e-06
3.79612e-05
4.17342e-06
3.96982e-05
3.18507e-07
3.92367e-05
6.57681e-06
3.93968e-05
3.54755e-06
4.40787e-05
-1.60682e-05
-7.20701e-06
4.37192e-05
8.05212e-05
0.000109229
7.29399e-05
5.61053e-05
6.54179e-05
3.164e-05
5.94805e-05
2.06748e-05
5.46929e-05
1.41725e-05
5.10572e-05
1.13218e-05
4.79892e-05
8.37559e-06
4.55199e-05
7.66855e-06
4.33975e-05
5.57484e-06
4.16498e-05
5.49091e-06
4.01223e-05
3.96001e-06
3.8864e-05
4.13562e-06
3.77374e-05
3.02407e-06
3.68286e-05
3.26865e-06
3.60002e-05
2.45939e-06
3.53558e-05
2.69415e-06
3.47658e-05
2.11193e-06
3.43299e-05
2.30909e-06
3.39364e-05
1.89762e-06
3.36669e-05
2.05192e-06
3.34346e-05
1.76297e-06
3.3296e-05
1.8758e-06
3.31919e-05
1.67044e-06
3.31533e-05
1.74551e-06
3.31458e-05
1.59506e-06
3.31791e-05
1.63547e-06
3.32384e-05
1.51592e-06
3.33186e-05
1.5198e-06
3.34172e-05
1.40941e-06
3.35221e-05
1.37371e-06
3.36367e-05
1.26147e-06
3.3748e-05
1.19206e-06
3.38608e-05
1.08342e-06
3.39658e-05
9.97463e-07
3.40669e-05
9.04099e-07
3.41603e-05
8.1915e-07
3.42491e-05
7.44123e-07
3.43318e-05
6.71574e-07
3.44135e-05
6.05395e-07
3.44808e-05
5.94868e-07
3.45436e-05
1.03555e-06
3.46425e-05
8.39253e-07
3.47541e-05
-1.45257e-07
3.48664e-05
-2.79425e-07
3.49605e-05
1.62672e-07
3.5046e-05
3.56256e-07
3.5165e-05
-9.36877e-09
3.52641e-05
-9.36145e-08
3.53691e-05
2.28217e-07
3.54669e-05
9.52463e-08
3.56157e-05
-2.88045e-07
3.57324e-05
-3.76396e-07
3.58774e-05
-3.98162e-07
3.60268e-05
1.36156e-07
3.62289e-05
-7.4752e-08
3.64913e-05
7.29193e-08
3.67705e-05
1.15274e-07
3.71336e-05
9.94186e-08
3.75287e-05
-1.88271e-07
3.78958e-05
-5.88898e-08
3.82652e-05
-4.18432e-07
3.87609e-05
-7.33728e-07
3.90679e-05
-3.25593e-06
3.91794e-05
-2.18999e-06
3.86893e-05
-8.43321e-07
3.82894e-05
-2.81603e-07
3.78542e-05
2.39945e-06
3.80902e-05
2.49644e-06
3.87696e-05
2.90424e-06
3.9801e-05
-2.48381e-07
4.08311e-05
-1.23411e-06
4.17221e-05
-1.84088e-06
4.24713e-05
-1.48705e-06
4.31461e-05
-1.92994e-07
4.36247e-05
-1.05004e-06
4.31202e-05
-2.62211e-06
4.22377e-05
-3.17944e-07
4.19083e-05
4.80965e-06
4.20708e-05
6.77631e-06
4.24794e-05
7.94772e-06
4.298e-05
6.30723e-06
4.34921e-05
5.58019e-06
4.41204e-05
4.87255e-06
4.47698e-05
1.0097e-06
4.63593e-05
6.29466e-06
4.67581e-05
4.54224e-06
4.81429e-05
-1.59889e-05
-7.14487e-06
4.90412e-05
9.9408e-05
0.000108257
9.51343e-05
5.99865e-05
8.90867e-05
3.71849e-05
8.33606e-05
2.62769e-05
7.80828e-05
1.9112e-05
7.37727e-05
1.56713e-05
6.9921e-05
1.20085e-05
6.6747e-05
1.09293e-05
6.39119e-05
8.2653e-06
6.15626e-05
7.95704e-06
5.94384e-05
6.00654e-06
5.76885e-05
6.04722e-06
5.60741e-05
4.63583e-06
5.47683e-05
4.79234e-06
5.35449e-05
3.76927e-06
5.25803e-05
3.94093e-06
5.16717e-05
3.20667e-06
5.09774e-05
3.35451e-06
5.0328e-05
2.83473e-06
4.98496e-05
2.94798e-06
4.94119e-05
2.58066e-06
4.9104e-05
2.65805e-06
4.88347e-05
2.39437e-06
4.86578e-05
2.43803e-06
4.85164e-05
2.24207e-06
4.84354e-05
2.25324e-06
4.83847e-05
2.09528e-06
4.83684e-05
2.07038e-06
4.8374e-05
1.92563e-06
4.83939e-05
1.86243e-06
4.84247e-05
1.72087e-06
4.8455e-05
1.62798e-06
4.84855e-05
1.49729e-06
4.85075e-05
1.39299e-06
4.85234e-05
1.28373e-06
4.85301e-05
1.18334e-06
4.85313e-05
1.09407e-06
4.85264e-05
1.00715e-06
4.85211e-05
9.24601e-07
4.85028e-05
9.11044e-07
4.84863e-05
1.33644e-06
4.85089e-05
1.08861e-06
4.85443e-05
7.9818e-08
4.8583e-05
-6.83249e-08
4.86094e-05
3.7463e-07
4.86332e-05
5.60561e-07
4.86887e-05
1.51092e-07
4.87278e-05
7.23284e-08
4.87839e-05
3.63725e-07
4.88336e-05
2.27633e-07
4.89401e-05
-2.1893e-07
4.90151e-05
-2.63106e-07
4.91364e-05
-3.17226e-07
4.92844e-05
2.58312e-07
4.94981e-05
-3.27834e-09
4.98027e-05
1.62678e-07
5.01385e-05
1.44997e-07
5.06015e-05
9.21755e-08
5.10562e-05
-2.68447e-07
5.15055e-05
-8.21305e-08
5.1916e-05
-5.15898e-07
5.24537e-05
-9.26307e-07
5.26759e-05
-3.26146e-06
5.25866e-05
-1.80455e-06
5.18857e-05
7.44478e-08
5.12593e-05
7.01644e-07
5.08221e-05
3.14633e-06
5.13656e-05
2.43977e-06
5.2546e-05
2.20679e-06
5.39965e-05
-1.12209e-06
5.52551e-05
-1.91292e-06
5.62201e-05
-2.27927e-06
5.69195e-05
-1.67943e-06
5.75034e-05
-3.50575e-07
5.7738e-05
-8.64137e-07
5.68341e-05
-1.26772e-06
5.51049e-05
1.90395e-06
5.3833e-05
6.68329e-06
5.32427e-05
8.09935e-06
5.33555e-05
8.7467e-06
5.38979e-05
6.85642e-06
5.44964e-05
6.21039e-06
5.5734e-05
4.99621e-06
5.57685e-05
2.34209e-06
5.80401e-05
5.39604e-06
6.00029e-05
4.04591e-06
5.88282e-05
-1.32354e-05
-5.85115e-06
5.85611e-05
0.000119728
0.000105763
0.000118612
6.06172e-05
0.000115193
3.99959e-05
0.000111126
3.01954e-05
0.000106564
2.32848e-05
0.00010245
1.98292e-05
9.83851e-05
1.58297e-05
9.48809e-05
1.45289e-05
9.15576e-05
1.14309e-05
8.8748e-05
1.08928e-05
8.60968e-05
8.5742e-06
8.38909e-05
8.42577e-06
8.17889e-05
6.73506e-06
8.00724e-05
6.73943e-06
7.84221e-05
5.5108e-06
7.71e-05
5.55969e-06
7.5826e-05
4.67595e-06
7.48239e-05
4.72362e-06
7.38641e-05
4.09476e-06
7.31217e-05
4.12532e-06
7.24208e-05
3.67668e-06
7.18861e-05
3.68533e-06
7.1393e-05
3.35902e-06
7.10202e-05
3.34506e-06
7.06875e-05
3.0984e-06
7.04365e-05
3.05978e-06
7.02211e-05
2.8576e-06
7.00562e-05
2.78797e-06
6.99182e-05
2.60324e-06
6.98053e-05
2.50108e-06
6.97068e-05
2.32611e-06
6.96136e-05
2.20293e-06
6.95219e-05
2.04798e-06
6.94244e-05
1.92173e-06
6.93218e-05
1.79466e-06
6.92123e-05
1.67563e-06
6.91002e-05
1.56846e-06
6.89862e-05
1.46217e-06
6.88764e-05
1.35795e-06
6.87592e-05
1.33533e-06
6.86534e-05
1.73507e-06
6.85951e-05
1.42706e-06
6.85551e-05
3.87886e-07
6.85241e-05
2.19666e-07
6.84881e-05
6.5571e-07
6.84608e-05
8.2241e-07
6.84666e-05
3.67197e-07
6.84656e-05
2.83806e-07
6.84887e-05
5.37262e-07
6.85169e-05
3.86269e-07
6.86033e-05
-1.25112e-07
6.86727e-05
-1.39341e-07
6.88044e-05
-2.41361e-07
6.89918e-05
3.47832e-07
6.92553e-05
2.57494e-08
6.96421e-05
1.79614e-07
7.00625e-05
9.94908e-08
7.06363e-05
-1.4789e-08
7.1138e-05
-3.85286e-07
7.1642e-05
-1.48495e-07
7.2062e-05
-6.12887e-07
7.25589e-05
-1.06722e-06
7.26104e-05
-3.08836e-06
7.2358e-05
-1.25051e-06
7.16084e-05
1.04407e-06
7.11004e-05
1.56434e-06
7.09846e-05
3.57265e-06
7.18184e-05
2.08969e-06
7.31848e-05
1.32592e-06
7.46553e-05
-2.01447e-06
7.59012e-05
-2.57644e-06
7.67847e-05
-2.63263e-06
7.73127e-05
-1.69802e-06
7.76605e-05
-2.65761e-07
7.74964e-05
-2.75128e-07
7.61674e-05
5.08268e-07
7.41542e-05
4.39866e-06
7.27135e-05
8.71931e-06
7.19093e-05
9.63241e-06
7.18888e-05
9.67299e-06
7.23628e-05
7.45956e-06
7.30081e-05
6.77023e-06
7.44155e-05
4.91053e-06
7.45376e-05
3.5423e-06
7.67716e-05
4.51652e-06
7.92275e-05
3.00249e-06
7.65654e-05
-9.08162e-06
-3.62625e-06
7.53521e-05
0.000143469
0.000104084
0.000143788
5.97004e-05
0.000142662
4.0375e-05
0.000140918
3.17593e-05
0.00013815
2.5591e-05
0.00013539
2.26391e-05
0.000132141
1.87995e-05
0.000129171
1.76061e-05
0.000126045
1.43812e-05
0.000123318
1.37584e-05
0.000120561
1.12401e-05
0.000118228
1.09448e-05
0.000115894
9.06587e-06
0.000113965
8.91341e-06
0.000112043
7.52952e-06
0.000110482
7.4331e-06
0.000108935
6.42796e-06
0.000107694
6.34863e-06
0.000106476
5.62588e-06
0.000105506
5.54814e-06
0.000104567
5.02538e-06
0.00010382
4.94273e-06
0.00010311
4.55586e-06
0.000102542
4.46513e-06
0.000102014
4.16643e-06
0.000101584