/*--------------------------------*- C++ -*----------------------------------*\
| =========                 |                                                 |
| \\      /  F ield         | OpenFOAM: The Open Source CFD Toolbox           |
|  \\    /   O peration     | Version:  2306                                  |
|   \\  /    A nd           | Website:  www.openfoam.com                      |
|    \\/     M anipulation  |                                                 |
\*---------------------------------------------------------------------------*/
FoamFile
{
    version     2.0;
    format      ascii;
    arch        "LSB;label=32;scalar=64";
    class       volSymmTensorField;
    location    "600";
    object      turbulenceProperties:devReff;
}
// * * * * * * * * * * * * * * * * * * * * * * * * * * * * * * * * * * * * * //

dimensions      [0 2 -2 0 0 0 0];

internalField   nonuniform List<symmTensor> 
20540
(
(-0.00125522 -0.0186143 -0 0.00125366 -0 1.56565e-06)
(0.0118274 0.0397537 -0 -0.0117979 -0 -2.94972e-05)
(-0.00124122 -0.0605123 -0 0.00124141 -0 -1.93764e-07)
(0.0102198 0.119147 -0 -0.0102286 -0 8.7771e-06)
(-0.00120481 -0.110483 -0 0.00120587 -0 -1.06741e-06)
(0.00847752 0.200099 -0 -0.00847505 -0 -2.4646e-06)
(-0.0011376 -0.165895 -0 0.00113906 -0 -1.45365e-06)
(0.00668628 0.28234 -0 -0.00667242 -0 -1.38623e-05)
(-0.00103033 -0.222726 -0 0.00103265 -0 -2.32676e-06)
(0.00490768 0.358614 -0 -0.0048886 -0 -1.90853e-05)
(-0.000873897 -0.273928 -0 0.000877212 -0 -3.31485e-06)
(0.00321125 0.417037 -0 -0.00318792 -0 -2.33294e-05)
(-0.000664494 -0.309353 -0 0.000668139 -0 -3.64466e-06)
(0.00169179 0.443339 -0 -0.00166386 -0 -2.79306e-05)
(-0.000410488 -0.317746 -0 0.00041316 -0 -2.67267e-06)
(0.000464585 0.423326 -0 -0.000433061 -0 -3.15246e-05)
(-0.000141081 -0.291294 -0 0.000141882 -0 -8.01516e-07)
(-0.000353314 0.348973 -0 0.000385279 -0 -3.19648e-05)
(8.95648e-05 -0.231396 -0 -8.96157e-05 -0 5.09361e-08)
(-0.000687002 0.228706 -0 0.000715902 -0 -2.88996e-05)
(0.000217499 -0.151724 -0 -0.000215764 -0 -1.73488e-06)
(-0.000576327 0.0957016 -0 0.000603335 -0 -2.70087e-05)
(0.00021279 -0.0748548 -0 -0.000207839 -0 -4.95025e-06)
(-0.000229041 -0.00185214 -0 0.000261657 -0 -3.26161e-05)
(0.000122044 -0.0221217 -0 -0.000115513 -0 -6.53078e-06)
(5.84108e-05 -0.0354292 -0 -1.65329e-05 -0 -4.18778e-05)
(4.00375e-05 -0.000431797 -0 -3.41434e-05 -0 -5.8941e-06)
(0.000131521 -0.0230493 -0 -8.85713e-05 -0 -4.29498e-05)
(1.38284e-05 0.00173172 -0 -8.69483e-06 -0 -5.13362e-06)
(8.16302e-05 -0.00501026 -0 -4.46363e-05 -0 -3.69938e-05)
(1.69568e-05 -5.28449e-05 -0 -1.19816e-05 -0 -4.97528e-06)
(4.41744e-05 0.0007703 -0 -9.52432e-06 -0 -3.46501e-05)
(1.96184e-05 -0.000248129 -0 -1.47008e-05 -0 -4.91758e-06)
(3.85192e-05 0.000333463 -0 -2.20659e-06 -0 -3.63127e-05)
(1.92033e-05 1.61503e-05 -0 -1.43338e-05 -0 -4.86954e-06)
(3.91496e-05 -0.000101269 -0 -1.55054e-06 -0 -3.75991e-05)
(1.88714e-05 5.39067e-05 -0 -1.40352e-05 -0 -4.83615e-06)
(3.85736e-05 -7.58988e-05 -0 -7.11773e-07 -0 -3.78619e-05)
(1.87923e-05 3.61064e-05 -0 -1.40386e-05 -0 -4.75373e-06)
(3.77384e-05 -4.81945e-05 -0 2.53585e-07 -0 -3.7992e-05)
(1.87367e-05 2.32173e-05 -0 -1.40848e-05 -0 -4.65181e-06)
(3.69214e-05 -4.13109e-05 -0 1.25048e-06 -0 -3.81719e-05)
(1.86173e-05 1.42721e-05 -0 -1.40302e-05 -0 -4.58709e-06)
(3.62721e-05 -3.7227e-05 -0 2.05169e-06 -0 -3.83238e-05)
(1.84197e-05 8.31926e-06 -0 -1.38456e-05 -0 -4.57402e-06)
(3.58556e-05 -3.36152e-05 -0 2.51683e-06 -0 -3.83724e-05)
(1.81651e-05 4.43972e-06 -0 -1.35726e-05 -0 -4.5925e-06)
(3.56631e-05 -3.02733e-05 -0 2.64641e-06 -0 -3.83095e-05)
(1.78524e-05 2.01566e-06 -0 -1.32079e-05 -0 -4.64454e-06)
(3.56643e-05 -2.70861e-05 -0 2.48954e-06 -0 -3.81538e-05)
(1.76633e-05 5.82464e-07 -0 -1.31122e-05 -0 -4.55105e-06)
(3.57939e-05 -2.38924e-05 -0 2.1659e-06 -0 -3.79598e-05)
(1.78677e-05 -1.25105e-07 -0 -1.382e-05 -0 -4.04772e-06)
(3.65369e-05 -2.05149e-05 -0 6.92925e-07 -0 -3.72298e-05)
(1.77901e-05 -2.73304e-07 -0 -1.39671e-05 -0 -3.82306e-06)
(3.92439e-05 -1.68192e-05 -0 -4.64425e-06 -0 -3.45996e-05)
(1.63963e-05 -1.48308e-07 -0 -1.14624e-05 -0 -4.93389e-06)
(4.35392e-05 -1.3159e-05 -0 -1.30998e-05 -0 -3.04394e-05)
(1.54183e-05 -2.25772e-07 -0 -9.75627e-06 -0 -5.66205e-06)
(4.56652e-05 -1.00559e-05 -0 -1.7134e-05 -0 -2.85311e-05)
(1.60743e-05 -6.12199e-07 -0 -1.12565e-05 -0 -4.81781e-06)
(4.3933e-05 -6.57035e-06 -0 -1.34609e-05 -0 -3.04721e-05)
(1.65204e-05 -7.99201e-07 -0 -1.22212e-05 -0 -4.29922e-06)
(4.17676e-05 -2.46169e-06 -0 -8.95444e-06 -0 -3.28131e-05)
(1.63985e-05 -7.02092e-07 -0 -1.19417e-05 -0 -4.45682e-06)
(4.20649e-05 1.55446e-06 -0 -9.38559e-06 -0 -3.26794e-05)
(1.56763e-05 -3.8121e-07 -0 -1.03554e-05 -0 -5.32086e-06)
(4.43465e-05 5.25977e-06 -0 -1.37962e-05 -0 -3.05503e-05)
(1.51265e-05 -8.53708e-08 -0 -9.01626e-06 -0 -6.11024e-06)
(4.53129e-05 8.1214e-06 -0 -1.55641e-05 -0 -2.97489e-05)
(1.60281e-05 -2.53663e-07 -0 -1.05406e-05 -0 -5.48751e-06)
(4.2426e-05 1.11718e-05 -0 -9.64053e-06 -0 -3.27854e-05)
(1.66036e-05 -6.77145e-07 -0 -1.13843e-05 -0 -5.2193e-06)
(3.79048e-05 1.48345e-05 -0 -4.67877e-07 -0 -3.74369e-05)
(1.6264e-05 -1.26111e-06 -0 -1.03946e-05 -0 -5.8694e-06)
(3.4362e-05 1.83271e-05 -0 6.72494e-06 -0 -4.1087e-05)
(1.60585e-05 -2.10989e-06 -0 -9.68345e-06 -0 -6.37502e-06)
(3.18051e-05 2.16752e-05 -0 1.19504e-05 -0 -4.37554e-05)
(1.59885e-05 -3.38022e-06 -0 -9.26158e-06 -0 -6.72693e-06)
(2.98729e-05 2.48964e-05 -0 1.59476e-05 -0 -4.58205e-05)
(1.59697e-05 -5.39776e-06 -0 -8.96491e-06 -0 -7.00479e-06)
(2.85121e-05 2.81053e-05 -0 1.88483e-05 -0 -4.73604e-05)
(1.59832e-05 -8.30038e-06 -0 -8.75667e-06 -0 -7.22655e-06)
(2.76491e-05 3.13797e-05 -0 2.08172e-05 -0 -4.84663e-05)
(1.60095e-05 -1.19417e-05 -0 -8.59761e-06 -0 -7.41188e-06)
(2.72187e-05 3.45489e-05 -0 2.20061e-05 -0 -4.92248e-05)
(1.60189e-05 -1.51755e-05 -0 -8.43052e-06 -0 -7.58843e-06)
(2.72098e-05 3.71527e-05 -0 2.2465e-05 -0 -4.96748e-05)
(1.59738e-05 -1.80305e-05 -0 -8.17982e-06 -0 -7.79397e-06)
(2.75935e-05 3.95188e-05 -0 2.22531e-05 -0 -4.98467e-05)
(1.58983e-05 -2.90323e-05 -0 -7.88851e-06 -0 -8.00981e-06)
(2.82002e-05 5.36907e-05 -0 2.16857e-05 -0 -4.98859e-05)
(1.59961e-05 -2.68621e-05 -0 -7.84737e-06 -0 -8.14871e-06)
(2.87341e-05 0.000100263 -0 2.1174e-05 -0 -4.99081e-05)
(1.64871e-05 0.000180655 -0 -8.25657e-06 -0 -8.23055e-06)
(2.84803e-05 -5.82906e-05 -0 2.09487e-05 -0 -4.9429e-05)
(1.56889e-05 0.000539824 -0 -7.31574e-06 -0 -8.37316e-06)
(2.86439e-05 -0.000944008 -0 1.91545e-05 -0 -4.77984e-05)
(1.04105e-05 -0.000317846 -0 -1.84752e-06 -0 -8.56301e-06)
(4.659e-05 8.04877e-05 -0 7.95571e-07 -0 -4.73856e-05)
(1.39786e-05 -0.00184131 -0 -4.94119e-06 -0 -9.03742e-06)
(0.000100792 0.011266 -0 -4.87362e-05 -0 -5.20561e-05)
(6.188e-05 0.00582863 -0 -5.19438e-05 -0 -9.93622e-06)
(0.000122507 0.0313067 -0 -6.61355e-05 -0 -5.63719e-05)
(0.000155392 0.0380414 -0 -0.000145528 -0 -9.86395e-06)
(-2.96398e-05 0.0311779 -0 8.15145e-05 -0 -5.18747e-05)
(0.000223587 0.0995476 -0 -0.000215965 -0 -7.62154e-06)
(-0.000360803 -0.0243988 -0 0.00040417 -0 -4.33666e-05)
(0.000186751 0.177875 -0 -0.000181867 -0 -4.88424e-06)
(-0.000654461 -0.13602 -0 0.000695089 -0 -4.06287e-05)
(2.75498e-05 0.251676 -0 -2.36534e-05 -0 -3.89642e-06)
(-0.000646845 -0.266788 -0 0.000689922 -0 -4.30772e-05)
(-0.000211828 0.301975 -0 0.000216642 -0 -4.8148e-06)
(-0.00019538 -0.373928 -0 0.000240082 -0 -4.47025e-05)
(-0.000472667 0.319281 -0 0.00047867 -0 -6.00312e-06)
(0.000700279 -0.433463 -0 -0.000657434 -0 -4.28446e-05)
(-0.000710959 0.304786 -0 0.000717157 -0 -6.19773e-06)
(0.00195759 -0.442461 -0 -0.00191913 -0 -3.84634e-05)
(-0.000904763 0.266764 -0 0.000910145 -0 -5.38224e-06)
(0.00346833 -0.410222 -0 -0.00343493 -0 -3.33954e-05)
(-0.00104898 0.215582 -0 0.0010532 -0 -4.21515e-06)
(0.00512967 -0.350035 -0 -0.00510052 -0 -2.91501e-05)
(-0.00114824 0.160166 -0 0.00115174 -0 -3.49698e-06)
(0.0068572 -0.274671 -0 -0.00683159 -0 -2.56007e-05)
(-0.00121098 0.106605 -0 0.00121442 -0 -3.44827e-06)
(0.00859154 -0.194593 -0 -0.0085752 -0 -1.63324e-05)
(-0.00124368 0.0583413 -0 0.00124494 -0 -1.26124e-06)
(0.0102875 -0.116031 -0 -0.0102901 -0 2.50291e-06)
(-0.00125615 0.0179118 -0 0.00125498 -0 1.16303e-06)
(0.0118527 -0.0387747 -0 -0.0118237 -0 -2.90214e-05)
(0.0159064 -3.34863 -0 -0.0158931 -0 -1.33205e-05)
(0.000649877 -1.40134 -0 -0.000669071 -0 1.9194e-05)
(0.000135912 -1.04161 -0 -0.000135465 -0 -4.46606e-07)
(7.10266e-05 -0.880485 -0 -7.14992e-05 -0 4.72533e-07)
(4.37753e-05 -0.780669 -0 -4.19377e-05 -0 -1.83757e-06)
(3.5993e-05 -0.715416 -0 -3.7794e-05 -0 1.80105e-06)
(2.69285e-05 -0.661095 -0 -2.53778e-05 -0 -1.55069e-06)
(2.60177e-05 -0.620202 -0 -2.80631e-05 -0 2.04541e-06)
(1.88968e-05 -0.584692 -0 -1.73164e-05 -0 -1.58035e-06)
(1.92913e-05 -0.558321 -0 -2.12293e-05 -0 1.93797e-06)
(1.36651e-05 -0.534837 -0 -1.24518e-05 -0 -1.21332e-06)
(1.48549e-05 -0.517612 -0 -1.70873e-05 -0 2.23239e-06)
(1.03198e-05 -0.501916 -0 -9.93322e-06 -0 -3.86545e-07)
(1.17003e-05 -0.490824 -0 -1.46351e-05 -0 2.93479e-06)
(7.89488e-06 -0.480948 -0 -8.77228e-06 -0 8.77401e-07)
(9.16586e-06 -0.474616 -0 -1.32166e-05 -0 4.05079e-06)
(5.92079e-06 -0.469589 -0 -8.52873e-06 -0 2.60794e-06)
(6.96084e-06 -0.467368 -0 -1.2591e-05 -0 5.63016e-06)
(4.22417e-06 -0.466568 -0 -9.03137e-06 -0 4.8072e-06)
(5.01614e-06 -0.467974 -0 -1.26844e-05 -0 7.66823e-06)
(2.74648e-06 -0.470819 -0 -1.01525e-05 -0 7.40605e-06)
(3.28668e-06 -0.475352 -0 -1.33683e-05 -0 1.00816e-05)
(1.42707e-06 -0.481254 -0 -1.17241e-05 -0 1.0297e-05)
(1.74597e-06 -0.488389 -0 -1.45072e-05 -0 1.27612e-05)
(3.08773e-07 -0.496714 -0 -1.36626e-05 -0 1.33539e-05)
(5.5058e-07 -0.505825 -0 -1.60895e-05 -0 1.55389e-05)
(-3.68654e-07 -0.515793 -0 -1.59411e-05 -0 1.63097e-05)
(-6.49913e-08 -0.526113 -0 -1.79704e-05 -0 1.80354e-05)
(-5.30888e-07 -0.536929 -0 -1.81323e-05 -0 1.86632e-05)
(-3.20968e-07 -0.547835 -0 -1.93933e-05 -0 1.97142e-05)
(-7.59151e-07 -0.559097 -0 -1.9204e-05 -0 1.99631e-05)
(-1.08667e-06 -0.57049 -0 -1.92454e-05 -0 2.03321e-05)
(-2.00016e-06 -0.582341 -0 -1.82875e-05 -0 2.02877e-05)
(-3.13636e-06 -0.594523 -0 -1.7137e-05 -0 2.02734e-05)
(-4.6379e-06 -0.607253 -0 -1.56139e-05 -0 2.02518e-05)
(-6.39994e-06 -0.620406 -0 -1.38355e-05 -0 2.02354e-05)
(-8.22484e-06 -0.634015 -0 -1.22463e-05 -0 2.04711e-05)
(-1.02013e-05 -0.647993 -0 -1.04439e-05 -0 2.06452e-05)
(-1.20598e-05 -0.662163 -0 -9.15128e-06 -0 2.12111e-05)
(-1.37103e-05 -0.67676 -0 -8.13328e-06 -0 2.18436e-05)
(0.000733111 -0.691485 -0 -0.00072367 -0 -9.44015e-06)
(0.000748719 -0.388506 -0 -0.000704477 -0 -4.42422e-05)
(-0.000783767 -0.383436 -0 0.000701117 -0 8.265e-05)
(-0.000886017 -0.723431 -0 0.000826219 -0 5.97976e-05)
(-4.81193e-05 -0.754639 -0 2.41476e-05 -0 2.39717e-05)
(7.01382e-05 -0.770901 -0 -9.95827e-05 -0 2.94445e-05)
(-3.72119e-05 -0.742851 -0 1.13541e-05 -0 2.58578e-05)
(-0.000130221 -0.807836 -0 0.000107365 -0 2.28563e-05)
(0.000154696 -0.822362 -0 -0.000188128 -0 3.34321e-05)
(0.000123695 -0.766385 -0 -0.000166698 -0 4.30025e-05)
(-1.70039e-05 -0.797182 -0 -1.03732e-05 -0 2.73771e-05)
(-0.000223336 -0.797878 -0 0.000212746 -0 1.05893e-05)
(-0.000266525 -0.900502 -0 0.000242165 -0 2.43595e-05)
(-4.1356e-07 -0.924466 -0 -4.16428e-05 -0 4.20563e-05)
(-5.97946e-05 -0.933829 -0 1.00584e-05 -0 4.97363e-05)
(-8.45351e-05 -0.986457 -0 9.89582e-06 -0 7.46393e-05)
(-5.84818e-05 -1.01262 -0 -3.9697e-05 -0 9.81789e-05)
(-4.97596e-05 -1.06067 -0 -6.73499e-05 -0 0.00011711)
(-7.65567e-05 -1.08466 -0 -5.62544e-05 -0 0.000132811)
(-5.16619e-05 -1.1443 -0 -8.30465e-05 -0 0.000134708)
(-7.53286e-05 -1.15566 -0 -6.69873e-05 -0 0.000142316)
(-0.0001104 -1.22239 -0 -1.58636e-05 -0 0.000126264)
(-0.000810011 -1.23936 -0 0.000751746 -0 5.8265e-05)
(-0.000918168 -1.48694 -0 0.000823685 -0 9.44824e-05)
(-0.000444061 -1.52608 -0 0.000239383 -0 0.000204678)
(7.74579e-05 -1.64077 -0 -0.000332008 -0 0.00025455)
(0.000274837 -1.5824 -0 -0.000643818 -0 0.000368981)
(0.0003995 -1.67278 -0 -0.000855955 -0 0.000456455)
(0.000446713 -1.61768 -0 -0.00115009 -0 0.00070338)
(-9.16776e-05 -1.72931 -0 -0.000725204 -0 0.000816882)
(-0.000574764 -1.78016 -0 -0.000533932 -0 0.0011087)
(-0.00110245 -1.9802 -0 8.40109e-05 -0 0.00101844)
(-0.000799774 -2.08496 -0 -0.000390518 -0 0.00119029)
(-0.00062633 -2.25281 -0 -0.000287968 -0 0.000914298)
(-0.00014304 -2.29727 -0 -0.000785921 -0 0.000928961)
(-0.000828242 -2.39476 -0 2.11241e-07 -0 0.000828031)
(-0.00099079 -2.4992 -0 -0.000118529 -0 0.00110932)
(-0.000125304 -2.64889 -0 -0.0012551 -0 0.00138041)
(0.00151864 -2.71241 -0 -0.00383687 -0 0.00231823)
(0.00215362 -2.79826 -0 -0.00508514 -0 0.00293152)
(0.00282036 -2.81617 -0 -0.00786691 -0 0.00504655)
(0.00183687 -2.96657 -0 -0.00705902 -0 0.00522215)
(0.00236474 -3.03061 -0 -0.00996339 -0 0.00759865)
(0.00231653 -3.30432 -0 -0.00890218 -0 0.00658564)
(-0.00131694 -3.24106 -0 -0.00880566 -0 0.0101226)
(0.0172449 -4.24294 -0 -0.0236919 -0 0.006447)
(-0.0179181 -2.69252 -0 0.0116693 -0 0.00624878)
(-0.0920196 -5.61306 -4.76145e-18 0.0240492 -0 0.0679704)
(0.0151956 -2.92647 -0 -0.0151926 -0 -3.00584e-06)
(0.00176361 -1.40988 -0 -0.00174084 -0 -2.2778e-05)
(0.000426031 -1.04876 -0 -0.000416232 -0 -9.79972e-06)
(0.000222712 -0.886992 -0 -0.000217539 -0 -5.17295e-06)
(0.000144388 -0.786106 -0 -0.000138213 -0 -6.17538e-06)
(0.00011295 -0.719374 -0 -0.000112247 -0 -7.03108e-07)
(8.90328e-05 -0.664665 -0 -8.45293e-05 -0 -4.50355e-06)
(7.93341e-05 -0.623314 -0 -8.09393e-05 -0 1.60524e-06)
(6.16089e-05 -0.5878 -0 -5.84053e-05 -0 -3.20359e-06)
(5.70758e-05 -0.561322 -0 -6.01151e-05 -0 3.0393e-06)
(4.36977e-05 -0.537862 -0 -4.19238e-05 -0 -1.7739e-06)
(4.24199e-05 -0.520552 -0 -4.67318e-05 -0 4.31199e-06)
(3.19729e-05 -0.504783 -0 -3.19253e-05 -0 -4.76528e-08)
(3.1827e-05 -0.493474 -0 -3.76487e-05 -0 5.82164e-06)
(2.3069e-05 -0.483347 -0 -2.53448e-05 -0 2.27585e-06)
(2.30308e-05 -0.476585 -0 -3.09097e-05 -0 7.87885e-06)
(1.5396e-05 -0.47106 -0 -2.07411e-05 -0 5.34509e-06)
(1.51019e-05 -0.468135 -0 -2.57407e-05 -0 1.06387e-05)
(8.47165e-06 -0.466526 -0 -1.75986e-05 -0 9.12691e-06)
(7.94061e-06 -0.4669 -0 -2.20156e-05 -0 1.4075e-05)
(2.29968e-06 -0.468579 -0 -1.57578e-05 -0 1.34582e-05)
(1.62725e-06 -0.471713 -0 -1.96432e-05 -0 1.80159e-05)
(-3.04844e-06 -0.476053 -0 -1.50616e-05 -0 1.811e-05)
(-3.68894e-06 -0.481392 -0 -1.8528e-05 -0 2.22169e-05)
(-7.28704e-06 -0.487738 -0 -1.55369e-05 -0 2.2824e-05)
(-7.57035e-06 -0.494663 -0 -1.88453e-05 -0 2.64156e-05)
(-9.9667e-06 -0.502292 -0 -1.73751e-05 -0 2.73418e-05)
(-9.89388e-06 -0.510158 -0 -2.04793e-05 -0 3.03732e-05)
(-1.1609e-05 -0.518469 -0 -1.98449e-05 -0 3.14539e-05)
(-1.2093e-05 -0.526896 -0 -2.17901e-05 -0 3.38831e-05)
(-1.44216e-05 -0.535733 -0 -2.05468e-05 -0 3.49684e-05)
(-1.66881e-05 -0.544821 -0 -2.00204e-05 -0 3.67085e-05)
(-2.05048e-05 -0.554434 -0 -1.71166e-05 -0 3.76215e-05)
(-2.46334e-05 -0.564464 -0 -1.3967e-05 -0 3.86004e-05)
(-2.93892e-05 -0.57502 -0 -9.82642e-06 -0 3.92157e-05)
(-3.41569e-05 -0.585974 -0 -5.39198e-06 -0 3.95489e-05)
(-3.86462e-05 -0.597251 -0 -1.30779e-06 -0 3.9954e-05)
(-4.27597e-05 -0.608777 -0 2.85557e-06 -0 3.99042e-05)
(-4.65194e-05 -0.620299 -0 6.01187e-06 -0 4.05075e-05)
(-5.00464e-05 -0.632129 -0 8.48504e-06 -0 4.15613e-05)
(0.000587132 -0.643687 -0 -0.00067113 -0 8.39972e-05)
(0.000681161 -0.721554 -0 -0.000825783 -0 0.000144622)
(-0.000762528 -0.739407 -0 0.000821605 -0 -5.90762e-05)
(-0.00080501 -0.672939 -0 0.000807791 -0 -2.78135e-06)
(-0.000124536 -0.693717 -0 7.54339e-05 -0 4.9102e-05)
(5.84962e-05 -0.706308 -0 -9.38825e-05 -0 3.53862e-05)
(-0.000106845 -0.708605 -0 5.98141e-05 -0 4.70306e-05)
(-0.000240337 -0.736181 -0 0.000180373 -0 5.99646e-05)
(0.000159615 -0.747518 -0 -0.000191729 -0 3.21141e-05)
(7.17737e-05 -0.747529 -0 -8.43122e-05 -0 1.25385e-05)
(-0.000114328 -0.764129 -0 6.86859e-05 -0 4.56424e-05)
(-0.000377305 -0.780488 -0 0.000283402 -0 9.39031e-05)
(-0.000482648 -0.813597 -0 0.000386301 -0 9.63463e-05)
(-0.000119346 -0.835428 -0 3.48426e-05 -0 8.45032e-05)
(-0.000238568 -0.849097 -0 0.000106454 -0 0.000132114)
(-0.000322416 -0.889595 -0 0.000186243 -0 0.000136173)
(-0.000265139 -0.908517 -0 7.57445e-05 -0 0.000189395)
(-0.000276925 -0.950831 -0 0.00011438 -0 0.000162545)
(-0.000292222 -0.965059 -0 5.41049e-05 -0 0.000238117)
(-0.000281496 -1.01751 -0 0.000112092 -0 0.000169404)
(-0.000295877 -1.02033 -0 6.28633e-05 -0 0.000233014)
(-0.000439428 -1.07885 -0 0.00030496 -0 0.000134469)
(-0.00197661 -1.08817 -0 0.00156825 -0 0.000408361)
(-0.00247128 -1.28163 -0 0.00223611 -0 0.000235173)
(-0.00125579 -1.2885 -0 0.00053853 -0 0.000717264)
(-0.000249744 -1.39831 -0 -0.000254225 -0 0.000503969)
(0.000406665 -1.33254 -0 -0.00139921 -0 0.000992545)
(0.000274901 -1.41518 -0 -0.00113194 -0 0.000857038)
(0.000567631 -1.34782 -0 -0.00213871 -0 0.00157108)
(-0.00115637 -1.43935 -0 -0.000251239 -0 0.0014076)
(-0.00204021 -1.45903 -0 2.37578e-05 -0 0.00201645)
(-0.00340562 -1.604 -0 0.0017682 -0 0.00163742)
(-0.00283124 -1.6663 -0 0.000816134 -0 0.0020151)
(-0.00230366 -1.79102 -0 0.000651246 -0 0.00165241)
(-0.000722498 -1.80774 -0 -0.00144846 -0 0.00217096)
(-0.0018359 -1.86715 -0 -0.000538736 -0 0.00237463)
(-0.00281371 -1.90904 -0 -8.47843e-05 -0 0.0028985)
(-0.00221734 -1.98903 -0 -0.000918217 -0 0.00313555)
(0.000168658 -2.01327 -0 -0.00472869 -0 0.00456003)
(0.00138925 -2.07002 -0 -0.00567301 -0 0.00428376)
(0.00274117 -2.0462 -0 -0.00957237 -0 0.0068312)
(0.000805603 -2.13818 -0 -0.00633622 -0 0.00553061)
(0.000780589 -2.1159 -0 -0.0102157 -0 0.00943516)
(0.00151415 -2.2879 -0 -0.00714462 -0 0.00563047)
(-0.0175215 -2.16402 -0 0.00224947 -0 0.015272)
(0.0305579 -2.92127 -0 -0.0428962 -0 0.0123382)
(-0.0438946 -1.47534 -0 0.0363176 -0 0.00757702)
(-0.203711 -3.48083 4.99441e-18 0.283125 -0 -0.0794145)
(0.014247 -2.48961 -0 -0.0142298 -0 -1.71904e-05)
(0.00287298 -1.40478 -0 -0.00284412 -0 -2.88641e-05)
(0.000786051 -1.04416 -0 -0.000768913 -0 -1.71378e-05)
(0.000410402 -0.881909 -0 -0.000401806 -0 -8.59596e-06)
(0.000265284 -0.780947 -0 -0.000254205 -0 -1.10796e-05)
(0.000208101 -0.714516 -0 -0.000208246 -0 1.44708e-07)
(0.000162117 -0.660367 -0 -0.000153187 -0 -8.93016e-06)
(0.00014614 -0.61923 -0 -0.000149702 -0 3.56183e-06)
(0.000112037 -0.583731 -0 -0.000104324 -0 -7.71295e-06)
(0.000105777 -0.556667 -0 -0.000110981 -0 5.204e-06)
(8.00941e-05 -0.532731 -0 -7.4825e-05 -0 -5.26903e-06)
(7.93342e-05 -0.514485 -0 -8.65104e-05 -0 7.17626e-06)
(5.95815e-05 -0.498064 -0 -5.79265e-05 -0 -1.65496e-06)
(6.0411e-05 -0.485726 -0 -7.03927e-05 -0 9.98175e-06)
(4.42082e-05 -0.474858 -0 -4.73646e-05 -0 3.15635e-06)
(4.49044e-05 -0.467046 -0 -5.88683e-05 -0 1.39638e-05)
(3.10451e-05 -0.460701 -0 -4.03299e-05 -0 9.28482e-06)
(3.10813e-05 -0.456722 -0 -5.04274e-05 -0 1.93462e-05)
(1.91657e-05 -0.454239 -0 -3.58487e-05 -0 1.6683e-05)
(1.86538e-05 -0.45359 -0 -4.47169e-05 -0 2.60631e-05)
(8.50207e-06 -0.45439 -0 -3.35737e-05 -0 2.50716e-05)
(7.66088e-06 -0.456581 -0 -4.14391e-05 -0 3.37782e-05)
(-8.68816e-07 -0.460106 -0 -3.32002e-05 -0 3.4069e-05)
(-1.71183e-06 -0.464643 -0 -4.03444e-05 -0 4.20562e-05)
(-8.48797e-06 -0.470319 -0 -3.47439e-05 -0 4.32318e-05)
(-8.79855e-06 -0.476651 -0 -4.15048e-05 -0 5.03034e-05)
(-1.36737e-05 -0.483813 -0 -3.8115e-05 -0 5.17888e-05)
(-1.35177e-05 -0.491278 -0 -4.39766e-05 -0 5.74943e-05)
(-1.74055e-05 -0.499227 -0 -4.11634e-05 -0 5.85689e-05)
(-1.83208e-05 -0.507226 -0 -4.41131e-05 -0 6.24339e-05)
(-2.32607e-05 -0.515498 -0 -3.9467e-05 -0 6.27277e-05)
(-2.71664e-05 -0.523778 -0 -3.75781e-05 -0 6.47444e-05)
(-3.43145e-05 -0.532307 -0 -3.02905e-05 -0 6.4605e-05)
(-4.12124e-05 -0.540957 -0 -2.41644e-05 -0 6.53768e-05)
(-4.94795e-05 -0.549882 -0 -1.60063e-05 -0 6.54858e-05)
(-5.74184e-05 -0.559034 -0 -8.36678e-06 -0 6.57852e-05)
(-6.49919e-05 -0.568417 -0 -1.54681e-06 -0 6.65387e-05)
(-7.20578e-05 -0.578064 -0 5.30429e-06 -0 6.67535e-05)
(-7.84877e-05 -0.58778 -0 9.99544e-06 -0 6.84923e-05)
(-8.44768e-05 -0.597941 -0 1.53063e-05 -0 6.91705e-05)
(0.000326324 -0.607286 -0 -0.000382388 -0 5.60647e-05)
(0.000315032 -0.664778 -0 -0.000349222 -0 3.41903e-05)
(-0.000471662 -0.680293 -0 0.000354259 -0 0.000117403)
(-0.000602752 -0.638591 -0 0.000513526 -0 8.92257e-05)
(-0.000202008 -0.652459 -0 0.00013111 -0 7.08979e-05)
(3.24947e-05 -0.662876 -0 -0.000122608 -0 9.01135e-05)
(-0.0001782 -0.676254 -0 9.38449e-05 -0 8.43547e-05)
(-0.000344994 -0.689698 -0 0.000279187 -0 6.58063e-05)
(0.000132793 -0.698906 -0 -0.00023203 -0 9.92368e-05)
(5.95226e-05 -0.716173 -0 -0.000170069 -0 0.000110546)
(-0.00020439 -0.727799 -0 0.000113286 -0 9.11037e-05)
(-0.00054664 -0.745824 -0 0.000477455 -0 6.91847e-05)
(-0.000644512 -0.75322 -0 0.000566006 -0 7.8506e-05)
(-0.000199253 -0.768478 -0 5.97127e-05 -0 0.00013954)
(-0.000391973 -0.779877 -0 0.000199279 -0 0.000192694)
(-0.000478908 -0.807117 -0 0.000267676 -0 0.000211232)
(-0.000417778 -0.817821 -0 9.7456e-05 -0 0.000320322)
(-0.000430275 -0.853969 -0 0.000143802 -0 0.000286473)
(-0.000492272 -0.861758 -0 8.46247e-05 -0 0.000407647)
(-0.000467669 -0.910706 -0 0.00017004 -0 0.00029763)
(-0.000504715 -0.909068 -0 0.000101526 -0 0.000403189)
(-0.00070436 -0.964551 -0 0.000401494 -0 0.000302866)
(-0.00337422 -0.967104 -0 0.00300135 -0 0.000372867)
(-0.00375284 -1.10439 -0 0.00362735 -0 0.000125493)
(-0.00214059 -1.08082 -0 0.00135518 -0 0.000785413)
(-0.000568256 -1.17582 -0 0.000187371 -0 0.000380885)
(0.000724134 -1.10116 -0 -0.00192709 -0 0.00120296)
(0.000590572 -1.15877 -0 -0.00141476 -0 0.000824187)
(0.00110803 -1.06897 -0 -0.00305347 -0 0.00194544)
(-0.00201443 -1.12828 -0 0.000455089 -0 0.00155934)
(-0.00347917 -1.12684 -0 0.000915534 -0 0.00256364)
(-0.00595713 -1.23024 -0 0.00416079 -0 0.00179634)
(-0.00512145 -1.26394 -0 0.00281698 -0 0.00230446)
(-0.00409926 -1.35224 -0 0.00249654 -0 0.00160272)
(-0.00161251 -1.33565 -0 -0.000196475 -0 0.00180899)
(-0.00329439 -1.36323 -0 0.00171628 -0 0.00157811)
(-0.00361157 -1.35876 -0 0.00107678 -0 0.00253479)
(-0.00222707 -1.36208 -0 -0.000473401 -0 0.00270047)
(0.0015566 -1.32179 -0 -0.00669689 -0 0.00514029)
(0.00329166 -1.33046 -0 -0.0083233 -0 0.00503164)
(0.00459158 -1.28696 -0 -0.0144159 -0 0.00982427)
(0.00193535 -1.37188 -0 -0.0103345 -0 0.00839911)
(0.0016637 -1.33255 -0 -0.0160148 -0 0.0143511)
(0.00402672 -1.46862 -0 -0.0146056 -0 0.0105789)
(-0.0241835 -1.37067 -0 0.00309898 -0 0.0210845)
(0.0651503 -1.64117 -0 -0.0756088 -0 0.0104585)
(-0.0552715 -0.582415 -0 0.0487654 -0 0.00650614)
(-0.0822981 -1.72891 -0 0.0269264 -0 0.0553717)
(0.0130267 -2.05481 -0 -0.0129985 -0 -2.82949e-05)
(0.00387185 -1.38764 -0 -0.00384549 -0 -2.63566e-05)
(0.00122107 -1.04468 -0 -0.0012007 -0 -2.03745e-05)
(0.000640155 -0.883761 -0 -0.000630093 -0 -1.00617e-05)
(0.000415785 -0.783198 -0 -0.000402041 -0 -1.37439e-05)
(0.000323298 -0.71626 -0 -0.000324 -0 7.02141e-07)
(0.00025356 -0.662661 -0 -0.000242381 -0 -1.11796e-05)
(0.000226035 -0.621531 -0 -0.000231283 -0 5.24864e-06)
(0.000176362 -0.586603 -0 -0.000166855 -0 -9.50736e-06)
(0.000164228 -0.559541 -0 -0.000171864 -0 7.63544e-06)
(0.000127101 -0.536023 -0 -0.000120816 -0 -6.2851e-06)
(0.000123592 -0.517701 -0 -0.000133969 -0 1.03764e-05)
(9.50529e-05 -0.501558 -0 -9.35192e-05 -0 -1.53362e-06)
(9.43624e-05 -0.489023 -0 -0.000108552 -0 1.41899e-05)
(7.08924e-05 -0.478252 -0 -7.58017e-05 -0 4.9093e-06)
(7.03763e-05 -0.470086 -0 -8.99826e-05 -0 1.96063e-05)
(5.02122e-05 -0.463604 -0 -6.34348e-05 -0 1.32226e-05)
(4.89614e-05 -0.45907 -0 -7.58906e-05 -0 2.69292e-05)
(3.15259e-05 -0.456166 -0 -5.4822e-05 -0 2.32961e-05)
(2.96017e-05 -0.454723 -0 -6.56405e-05 -0 3.60387e-05)
(1.46619e-05 -0.454789 -0 -4.93556e-05 -0 3.46937e-05)
(1.23248e-05 -0.45592 -0 -5.87615e-05 -0 4.64366e-05)
(-3.11303e-07 -0.458379 -0 -4.65206e-05 -0 4.68319e-05)
(-2.6413e-06 -0.461576 -0 -5.48307e-05 -0 5.7472e-05)
(-1.28072e-05 -0.465859 -0 -4.62258e-05 -0 5.9033e-05)
(-1.43749e-05 -0.470591 -0 -5.39277e-05 -0 6.83026e-05)
(-2.17938e-05 -0.476102 -0 -4.84732e-05 -0 7.0267e-05)
(-2.25175e-05 -0.481804 -0 -5.51377e-05 -0 7.76552e-05)
(-2.82204e-05 -0.487983 -0 -5.09335e-05 -0 7.9154e-05)
(-2.99391e-05 -0.494192 -0 -5.42266e-05 -0 8.41657e-05)
(-3.6564e-05 -0.500684 -0 -4.819e-05 -0 8.47539e-05)
(-4.18451e-05 -0.507189 -0 -4.55469e-05 -0 8.7392e-05)
(-5.11926e-05 -0.513903 -0 -3.6184e-05 -0 8.73766e-05)
(-6.0368e-05 -0.520698 -0 -2.79182e-05 -0 8.82862e-05)
(-7.14385e-05 -0.527645 -0 -1.68929e-05 -0 8.83314e-05)
(-8.22757e-05 -0.534728 -0 -6.12861e-06 -0 8.84044e-05)
(-9.292e-05 -0.541875 -0 3.9509e-06 -0 8.89691e-05)
(-0.000102914 -0.549184 -0 1.41615e-05 -0 8.87522e-05)
(-0.000112798 -0.5564 -0 2.24274e-05 -0 9.03701e-05)
(-0.000118373 -0.564035 -0 2.72185e-05 -0 9.11548e-05)
(0.000171183 -0.570346 -0 -0.000262648 -0 9.14645e-05)
(0.000159227 -0.608605 -0 -0.000250956 -0 9.17293e-05)
(-0.000426701 -0.620181 -0 0.000330623 -0 9.60783e-05)
(-0.000520908 -0.596795 -0 0.00042539 -0 9.55179e-05)
(-0.000251416 -0.604184 -0 0.000154082 -0 9.73338e-05)
(-6.611e-05 -0.611192 -0 -2.79692e-05 -0 9.40791e-05)
(-0.000260212 -0.626318 -0 0.000155645 -0 0.000104567)
(-0.000378347 -0.631501 -0 0.000275461 -0 0.000102886)
(-1.22097e-05 -0.637569 -0 -7.82413e-05 -0 9.0451e-05)
(-0.000100754 -0.658159 -0 3.47296e-06 -0 9.7281e-05)
(-0.000327441 -0.665506 -0 0.000222421 -0 0.000105019)
(-0.000583775 -0.681671 -0 0.000462088 -0 0.000121688)
(-0.000658521 -0.678168 -0 0.000520044 -0 0.000138477)
(-0.000316411 -0.689978 -0 0.000156866 -0 0.000159545)
(-0.000548129 -0.698578 -0 0.000313892 -0 0.000234237)
(-0.000615689 -0.717879 -0 0.000363296 -0 0.000252393)
(-0.000627694 -0.721095 -0 0.000262575 -0 0.00036512)
(-0.00063666 -0.750779 -0 0.000322946 -0 0.000313714)
(-0.000786145 -0.750008 -0 0.000337166 -0 0.000448979)
(-0.000725311 -0.791116 -0 0.000410919 -0 0.000314392)
(-0.000823191 -0.782256 -0 0.00039232 -0 0.000430871)
(-0.00106425 -0.830118 -0 0.000777689 -0 0.000286561)
(-0.0043064 -0.81633 -0 0.00383232 -0 0.000474083)
(-0.00430563 -0.907388 -0 0.00410467 -0 0.000200965)
(-0.00283019 -0.868386 -0 0.00195899 -0 0.000871194)
(-0.000650637 -0.959005 -0 0.000149971 -0 0.000500666)
(0.00100076 -0.893438 -0 -0.00221654 -0 0.00121577)
(0.00137336 -0.938204 -0 -0.00232133 -0 0.000947962)
(0.0017301 -0.851982 -0 -0.00365182 -0 0.00192172)
(-0.00256933 -0.889291 -0 0.000909656 -0 0.00165967)
(-0.00487556 -0.891233 -0 0.00244844 -0 0.00242712)
(-0.00764445 -0.946775 -0 0.00583111 -0 0.00181334)
(-0.00689674 -0.954797 -0 0.00471271 -0 0.00218402)
(-0.00474863 -0.999115 -0 0.00309549 -0 0.00165314)
(-0.00129312 -0.956964 -0 -0.000714909 -0 0.00200803)
(-0.00355023 -0.994693 -0 0.00202571 -0 0.00152452)
(-0.00358146 -0.97941 -0 0.00159105 -0 0.00199041)
(-0.00107218 -0.951639 -0 -0.00140076 -0 0.00247295)
(0.00228437 -0.894781 -0 -0.0075379 -0 0.00525353)
(0.00442965 -0.915777 -0 -0.0100104 -0 0.0055808)
(0.00414449 -0.857507 -0 -0.0147235 -0 0.010579)
(0.00265559 -0.898963 -0 -0.0122553 -0 0.00959972)
(-2.996e-05 -0.799205 -0 -0.0142249 -0 0.0142548)
(0.00443657 -0.881904 -0 -0.0146087 -0 0.0101721)
(-0.0224426 -0.76813 -0 0.0018007 -0 0.0206419)
(0.0792376 -0.721811 -0 -0.087036 -0 0.00779836)
(-0.0462969 -0.762419 -0 0.0302763 -0 0.0160206)
(-0.158107 -0.800668 -0 0.177936 -0 -0.019829)
(0.0114851 -1.62701 -0 -0.0114475 -0 -3.76442e-05)
(0.00465151 -1.33664 -0 -0.00462033 -0 -3.11836e-05)
(0.00171292 -1.03743 -0 -0.0016852 -0 -2.77177e-05)
(0.000912606 -0.881605 -0 -0.000898988 -0 -1.36177e-05)
(0.000595131 -0.782982 -0 -0.000576357 -0 -1.87747e-05)
(0.000461458 -0.716326 -0 -0.000462455 -0 9.96901e-07)
(0.000361573 -0.663904 -0 -0.000346277 -0 -1.5296e-05)
(0.000321495 -0.623113 -0 -0.00032876 -0 7.26426e-06)
(0.000251809 -0.589073 -0 -0.000238798 -0 -1.30106e-05)
(0.000234182 -0.562088 -0 -0.000244806 -0 1.0625e-05)
(0.000182309 -0.539121 -0 -0.000173774 -0 -8.5358e-06)
(0.000176925 -0.520678 -0 -0.000191406 -0 1.44807e-05)
(0.000137217 -0.50486 -0 -0.000135307 -0 -1.91026e-06)
(0.000136013 -0.492035 -0 -0.00015582 -0 1.98065e-05)
(0.000103543 -0.481352 -0 -0.000110604 -0 7.0609e-06)
(0.000102814 -0.472718 -0 -0.000130129 -0 2.73148e-05)
(7.51261e-05 -0.466047 -0 -9.37045e-05 -0 1.85785e-05)
(7.35475e-05 -0.460833 -0 -0.000110927 -0 3.73797e-05)
(4.97948e-05 -0.457428 -0 -8.22163e-05 -0 3.24215e-05)
(4.73716e-05 -0.455067 -0 -9.71377e-05 -0 4.97661e-05)
(2.71802e-05 -0.454308 -0 -7.50868e-05 -0 4.79066e-05)
(2.42159e-05 -0.454274 -0 -8.79263e-05 -0 6.37104e-05)
(7.26194e-06 -0.455588 -0 -7.14085e-05 -0 6.41465e-05)
(4.25448e-06 -0.457378 -0 -8.24969e-05 -0 7.82424e-05)
(-9.37753e-06 -0.460231 -0 -7.07572e-05 -0 8.01347e-05)
(-1.1568e-05 -0.463356 -0 -8.05837e-05 -0 9.21518e-05)
(-2.17031e-05 -0.467238 -0 -7.27292e-05 -0 9.44323e-05)
(-2.30594e-05 -0.471232 -0 -8.06597e-05 -0 0.000103719)
(-3.10636e-05 -0.475706 -0 -7.41735e-05 -0 0.000105237)
(-3.37636e-05 -0.480195 -0 -7.74621e-05 -0 0.000111226)
(-4.27505e-05 -0.484957 -0 -6.86997e-05 -0 0.00011145)
(-4.96689e-05 -0.489705 -0 -6.45837e-05 -0 0.000114253)
(-6.16225e-05 -0.494575 -0 -5.20173e-05 -0 0.00011364)
(-7.29896e-05 -0.499443 -0 -4.1181e-05 -0 0.000114171)
(-8.66851e-05 -0.504309 -0 -2.69138e-05 -0 0.000113599)
(-9.99043e-05 -0.509199 -0 -1.31307e-05 -0 0.000113035)
(-0.000113013 -0.51399 -0 -6.72666e-08 -0 0.00011308)
(-0.00012518 -0.518852 -0 1.30574e-05 -0 0.000112122)
(-0.000138073 -0.523485 -0 2.46126e-05 -0 0.00011346)
(-0.000141541 -0.528539 -0 2.80262e-05 -0 0.000113515)
(4.14357e-05 -0.532024 -0 -0.000153621 -0 0.000112186)
(6.45021e-06 -0.556242 -0 -0.000119258 -0 0.000112808)
(-0.000368918 -0.564124 -0 0.000248099 -0 0.000120819)
(-0.000445746 -0.551488 -0 0.000329166 -0 0.00011658)
(-0.000283328 -0.554311 -0 0.000168836 -0 0.000114492)
(-0.000146294 -0.558082 -0 3.01388e-05 -0 0.000116155)
(-0.00032778 -0.570426 -0 0.000202344 -0 0.000125436)
(-0.000401969 -0.571412 -0 0.000284675 -0 0.000117294)
(-0.000133464 -0.574508 -0 2.33352e-05 -0 0.000110129)
(-0.000228782 -0.591531 -0 0.000111092 -0 0.00011769)