/*--------------------------------*- C++ -*----------------------------------*\
| =========                 |                                                 |
| \\      /  F ield         | OpenFOAM: The Open Source CFD Toolbox           |
|  \\    /   O peration     | Version:  2306                                  |
|   \\  /    A nd           | Website:  www.openfoam.com                      |
|    \\/     M anipulation  |                                                 |
\*---------------------------------------------------------------------------*/
FoamFile
{
    version     2.0;
    format      ascii;
    arch        "LSB;label=32;scalar=64";
    class       volVectorField;
    location    "600";
    object      U;
}
// * * * * * * * * * * * * * * * * * * * * * * * * * * * * * * * * * * * * * //

dimensions      [0 1 -1 0 0 0 0];

internalField   nonuniform List<vector> 
20540
(
(29.993 -0.000532151 0)
(58.6936 0.00528584 0)
(30.0629 -0.00170702 0)
(58.5444 0.0157005 0)
(30.2532 -0.00310574 0)
(58.1837 0.0263531 0)
(30.6301 -0.00472984 0)
(57.5204 0.0367454 0)
(31.277 -0.00655598 0)
(56.4459 0.0463055 0)
(32.2855 -0.00850842 0)
(54.8618 0.0543203 0)
(33.7303 -0.0104296 0)
(52.7209 0.0600178 0)
(35.6232 -0.0120585 0)
(50.0931 0.0627518 0)
(37.857 -0.013048 0)
(47.2449 0.0623027 0)
(40.1716 -0.0130797 0)
(44.6798 0.059253 0)
(42.1927 -0.0121073 0)
(43.0174 0.0551834 0)
(43.5718 -0.0105864 0)
(42.6158 0.0521627 0)
(44.1857 -0.00933315 0)
(43.1576 0.0513306 0)
(44.2589 -0.00883931 0)
(43.8084 0.0518697 0)
(44.1895 -0.00880646 0)
(44.0488 0.0522354 0)
(44.1798 -0.00875008 0)
(44.0275 0.0519993 0)
(44.1948 -0.00858953 0)
(44.0018 0.0514645 0)
(44.196 -0.00839734 0)
(44.0052 0.0507644 0)
(44.1928 -0.00817761 0)
(44.0092 0.0498889 0)
(44.1901 -0.00791168 0)
(44.0113 0.0488006 0)
(44.1879 -0.00758413 0)
(44.0132 0.0474427 0)
(44.1861 -0.00718242 0)
(44.0153 0.0457506 0)
(44.1848 -0.00670204 0)
(44.0174 0.0436659 0)
(44.1837 -0.00613539 0)
(44.0196 0.0411259 0)
(44.1829 -0.00547604 0)
(44.022 0.0380652 0)
(44.1824 -0.00472229 0)
(44.0244 0.0344046 0)
(44.1819 -0.00375784 0)
(44.027 0.0300389 0)
(44.1816 -0.00233368 0)
(44.0296 0.0252659 0)
(44.1812 -0.000803031 0)
(44.032 0.0214323 0)
(44.1807 -0.000121669 0)
(44.0342 0.0193422 0)
(44.1804 0.000850839 0)
(44.0358 0.0168423 0)
(44.1804 0.00251997 0)
(44.0364 0.0123644 0)
(44.1804 0.00407548 0)
(44.0361 0.00713059 0)
(44.1805 0.00556669 0)
(44.0349 0.00288267 0)
(44.1805 0.00612816 0)
(44.033 0.000295361 0)
(44.1805 0.00670729 0)
(44.0307 -0.00267274 0)
(44.1807 0.00781159 0)
(44.0281 -0.00746837 0)
(44.1811 0.00850272 0)
(44.0255 -0.0131322 0)
(44.1816 0.00891074 0)
(44.0229 -0.0188063 0)
(44.1823 0.00916917 0)
(44.0204 -0.0241524 0)
(44.1831 0.00933521 0)
(44.018 -0.0289905 0)
(44.1842 0.00944221 0)
(44.0158 -0.0332456 0)
(44.1854 0.00951239 0)
(44.0137 -0.0369137 0)
(44.1868 0.00955663 0)
(44.0118 -0.040027 0)
(44.1881 0.00958045 0)
(44.0101 -0.0426309 0)
(44.1895 0.00958374 0)
(44.0085 -0.0447831 0)
(44.1915 0.00957496 0)
(44.006 -0.0465588 0)
(44.1923 0.00956977 0)
(44.0011 -0.0480279 0)
(44.1794 0.00957499 0)
(44.0103 -0.0492326 0)
(44.1593 0.00954032 0)
(44.0577 -0.050151 0)
(44.1913 0.0094089 0)
(44.0152 -0.0505367 0)
(44.2379 0.00943691 0)
(43.604 -0.0502818 0)
(44.0067 0.0101073 0)
(42.9126 -0.0503326 0)
(43.1539 0.0114134 0)
(42.6316 -0.0521228 0)
(41.588 0.012708 0)
(43.4235 -0.0557484 0)
(39.5084 0.0133137 0)
(45.3515 -0.0597272 0)
(37.2573 0.0129661 0)
(47.9681 -0.0622148 0)
(35.1561 0.0117982 0)
(50.7123 -0.0620192 0)
(33.4088 0.0101168 0)
(53.1748 -0.0588179 0)
(32.0868 0.00822172 0)
(55.1559 -0.0529174 0)
(31.1656 0.00633021 0)
(56.6158 -0.0449408 0)
(30.5732 0.00457157 0)
(57.6074 -0.0355953 0)
(30.2262 0.00300611 0)
(58.2226 -0.0255278 0)
(30.0499 0.00165244 0)
(58.5596 -0.0152375 0)
(29.9849 0.000517659 0)
(58.7003 -0.00512498 0)
(3.01794 0.00685649 0)
(1.1809 8.67111e-05 0)
(0.873834 3.02602e-06 0)
(0.736987 3.03258e-06 0)
(0.653112 -3.87043e-06 0)
(0.599544 4.88574e-06 0)
(0.554095 -4.10684e-06 0)
(0.519987 4.5629e-06 0)
(0.48967 -5.03091e-06 0)
(0.46688 3.27873e-06 0)
(0.446377 -4.3067e-06 0)
(0.431053 3.31316e-06 0)
(0.417143 -2.24452e-06 0)
(0.407111 4.42645e-06 0)
(0.39829 4.64841e-07 0)
(0.392528 6.31393e-06 0)
(0.388064 3.67775e-06 0)
(0.386115 8.94012e-06 0)
(0.385574 7.41248e-06 0)
(0.387116 1.22426e-05 0)
(0.390106 1.15731e-05 0)
(0.394803 1.60352e-05 0)
(0.400925 1.60213e-05 0)
(0.408419 2.01586e-05 0)
(0.417224 2.06326e-05 0)
(0.427027 2.4305e-05 0)
(0.437826 2.47874e-05 0)
(0.449126 2.73963e-05 0)
(0.460935 2.69956e-05 0)
(0.472749 2.78464e-05 0)
(0.484692 2.61123e-05 0)
(0.49643 2.5369e-05 0)
(0.508271 2.31469e-05 0)
(0.520074 2.19913e-05 0)
(0.532193 2.06927e-05 0)
(0.544583 2.01717e-05 0)
(0.557461 2.02828e-05 0)
(0.570813 2.04659e-05 0)
(0.584629 2.16122e-05 0)
(0.599046 2.02574e-05 0)
(0.613707 0.000164795 0)
(0.0250058 -0.000111537 0)
(0.00103204 0.000149844 0)
(0.64656 -0.0001539 0)
(0.679261 -6.4106e-06 0)
(0.695834 0.000121591 0)
(0.653714 3.12781e-05 0)
(0.733353 -7.78181e-05 0)
(0.74795 0.00019045 0)
(0.664171 0.000274709 0)
(0.700197 6.84826e-05 0)
(0.689172 -0.000213031 0)
(0.820099 -0.000188079 0)
(0.838088 8.8658e-05 0)
(0.841032 2.80948e-05 0)
(0.888586 8.91393e-05 0)
(0.913326 0.000150913 0)
(0.956402 0.000227542 0)
(0.983572 0.000200716 0)
(1.04042 0.000259868 0)
(1.05686 0.000230497 0)
(1.12114 0.000364079 0)
(1.14315 -0.000581483 0)
(1.37337 -0.000309646 0)
(1.41826 -0.000372331 0)
(1.50975 -0.000189291 0)
(1.45758 5.73008e-05 0)
(1.52482 8.20413e-05 0)
(1.471 0.000416227 0)
(1.56562 0.000331526 0)
(1.62187 0.000785091 0)
(1.82608 0.000298452 0)
(1.94065 0.000649924 0)
(2.10725 -2.77401e-05 0)
(2.15169 -0.000909991 0)
(2.24369 -0.00222241 0)
(2.35349 -0.00136969 0)
(2.48699 -0.000493869 0)
(2.52226 0.00240101 0)
(2.57065 0.00420965 0)
(2.60044 0.0088559 0)
(2.77847 0.00916841 0)
(2.9076 0.0129454 0)
(3.22363 0.0135133 0)
(3.2635 0.0138799 0)
(4.09318 0.0113368 0)
(2.52522 -0.00880541 0)
(5.67436 0.469182 0)
(8.92309 0.0215195 0)
(3.8334 0.00118731 0)
(2.85412 0.000249834 0)
(2.41463 0.000131457 0)
(2.14129 7.99694e-05 0)
(1.96108 6.84286e-05 0)
(1.81208 4.97031e-05 0)
(1.69979 5.10082e-05 0)
(1.60313 3.56302e-05 0)
(1.53168 3.95297e-05 0)
(1.4683 2.631e-05 0)
(1.42216 3.22642e-05 0)
(1.38005 2.0639e-05 0)
(1.35053 2.76322e-05 0)
(1.32412 1.75548e-05 0)
(1.30731 2.47811e-05 0)
(1.29384 1.64598e-05 0)
(1.28786 2.33948e-05 0)
(1.28551 1.70146e-05 0)
(1.28892 2.34014e-05 0)
(1.29598 1.89656e-05 0)
(1.30732 2.46287e-05 0)
(1.32208 2.19628e-05 0)
(1.33981 2.68094e-05 0)
(1.36041 2.57632e-05 0)
(1.38277 2.99793e-05 0)
(1.40713 3.05644e-05 0)
(1.43221 3.44581e-05 0)
(1.45854 3.64256e-05 0)
(1.4852 3.97371e-05 0)
(1.51304 4.19466e-05 0)
(1.54162 4.36163e-05 0)
(1.5718 4.44226e-05 0)
(1.60326 4.36338e-05 0)
(1.6364 4.23044e-05 0)
(1.67081 3.95653e-05 0)
(1.70633 3.68896e-05 0)
(1.74266 3.36109e-05 0)
(1.77915 3.08599e-05 0)
(1.81652 3.17751e-05 0)
(1.85408 0.0011416 0)
(1.42857 0.00137451 0)
(1.43854 -0.00134243 0)
(1.93429 -0.00125276 0)
(2.01192 7.42482e-06 0)
(2.05293 9.51538e-05 0)
(1.99856 -1.06076e-05 0)
(2.14623 -6.45242e-05 0)
(2.18312 0.000185583 0)
(2.07428 6.13856e-05 0)
(2.14634 -1.19699e-05 0)
(2.16229 -0.000121836 0)
(2.38925 -0.000181401 0)
(2.45747 4.98915e-05 0)
(2.48907 4.05074e-05 0)
(2.62916 1.37204e-05 0)
(2.69747 7.6296e-05 0)
(2.8258 7.10553e-05 0)
(2.88301 0.000112155 0)
(3.03819 9.44617e-05 0)
(3.06095 0.000114125 0)
(3.23374 -0.000173595 0)
(3.27084 -0.000598561 0)
(3.92199 -0.000994477 0)
(4.01466 0.000385261 0)
(4.33464 0.00133024 0)
(4.17859 0.00183219 0)
(4.43662 0.00236478 0)
(4.2948 0.00297634 0)
(4.59951 0.00249418 0)
(4.7224 0.00213426 0)
(5.22652 0.00139332 0)
(5.48129 0.00218171 0)
(5.91005 0.00229079 0)
(6.02325 0.0043205 0)
(6.27799 0.00424272 0)
(6.53728 0.00396221 0)
(6.93783 0.00554557 0)
(7.13365 0.0086515 0)
(7.39743 0.00995861 0)
(7.42867 0.0135315 0)
(7.77809 0.0119664 0)
(7.86232 0.0173119 0)
(8.50786 0.0127307 0)
(8.22216 0.0187466 0)
(10.981 0.0428708 0)
(7.04293 0.000475216 0)
(14.3194 -0.485122 0)
(15.0729 0.0382804 0)
(7.02897 0.00375801 0)
(5.22251 0.000874368 0)
(4.41428 0.000458432 0)
(3.91187 0.000278435 0)
(3.58174 0.000244902 0)
(3.30949 0.000166365 0)
(3.10394 0.000182301 0)
(2.92622 0.000111818 0)
(2.79336 0.000139115 0)
(2.67528 8.04621e-05 0)
(2.58779 0.000113174 0)
(2.50816 6.53579e-05 0)
(2.45084 9.82911e-05 0)
(2.39971 5.96138e-05 0)
(2.36555 9.05389e-05 0)
(2.33788 6.02449e-05 0)
(2.32349 8.8535e-05 0)
(2.31602 6.60986e-05 0)
(2.31887 9.18726e-05 0)
(2.32863 7.63793e-05 0)
(2.34617 9.97658e-05 0)
(2.3702 9.01159e-05 0)
(2.3998 0.000111305 0)
(2.43495 0.000106683 0)
(2.47358 0.000125913 0)
(2.51619 0.000125139 0)
(2.56033 0.000141413 0)
(2.60684 0.00014153 0)
(2.65382 0.0001518 0)
(2.70257 0.00014888 0)
(2.75206 0.000150387 0)
(2.80372 0.000143008 0)
(2.85697 0.000136846 0)
(2.91263 0.000127547 0)
(2.97016 0.000118176 0)
(3.02951 0.000110515 0)
(3.0904 0.000101855 0)
(3.1518 9.80205e-05 0)
(3.21514 9.2966e-05 0)
(3.2775 0.00167501 0)
(3.00829 0.00178082 0)
(3.0583 -0.00153742 0)
(3.43329 -0.00176444 0)
(3.55096 -6.91184e-05 0)
(3.6196 0.000420736 0)
(3.59049 1.10282e-05 0)
(3.78112 -0.000354082 0)
(3.84254 0.000699872 0)
(3.76407 0.000539419 0)
(3.86794 3.30183e-05 0)
(3.92557 -0.000662555 0)
(4.18675 -0.000848037 0)
(4.29337 0.00020958 0)
(4.3524 8.37723e-05 0)
(4.56451 -8.76362e-06 0)
(4.66606 0.000424689 0)
(4.88347 0.000369756 0)
(4.96897 0.000637225 0)
(5.24345 0.000424728 0)
(5.27139 0.000641356 0)
(5.57873 8.96179e-05 0)
(5.6399 -0.0032123 0)
(6.66062 -0.00471062 0)
(6.72667 -0.000125272 0)
(7.26908 0.00121406 0)
(6.93993 0.00511731 0)
(7.34257 0.00412073 0)
(7.0012 0.00830512 0)
(7.46758 0.00364559 0)
(7.59924 0.00502802 0)
(8.39907 -0.000228196 0)
(8.76722 0.00305181 0)
(9.44533 0.0017599 0)
(9.55131 0.00621362 0)
(9.87906 0.00303864 0)
(10.1478 0.00428781 0)
(10.5885 0.00744658 0)
(10.7003 0.022187 0)
(10.9613 0.0256181 0)
(10.8826 0.0451317 0)
(11.4425 0.035534 0)
(11.4799 0.0566616 0)
(12.5081 0.0426927 0)
(12.0527 0.0424365 0)
(15.919 0.130174 0)
(8.29685 -0.0760286 0)
(19.7842 -0.154089 0)
(21.3141 0.0570545 0)
(10.8827 0.00838331 0)
(8.09526 0.00218442 0)
(6.84149 0.00114326 0)
(6.06138 0.000706352 0)
(5.54756 0.000603988 0)
(5.12686 0.000421594 0)
(4.80808 0.000444578 0)
(4.53334 0.000285099 0)
(4.32604 0.000337872 0)
(4.14261 0.000206064 0)
(4.00487 0.000272707 0)
(3.88039 0.000165871 0)
(3.78891 0.000233649 0)
(3.70796 0.000147544 0)
(3.65186 0.000211102 0)
(3.6065 0.000143597 0)
(3.58042 0.000201442 0)
(3.56549 0.000151055 0)
(3.56546 0.000203515 0)
(3.57636 0.000168057 0)
(3.59843 0.000215536 0)
(3.63062 0.000192497 0)
(3.67079 0.000235491 0)
(3.71954 0.000223037 0)
(3.77327 0.00026211 0)
(3.83317 0.000257748 0)
(3.89527 0.000290826 0)
(3.96105 0.000288405 0)
(4.0274 0.000308981 0)
(4.09631 0.000300308 0)
(4.16601 0.000302363 0)
(4.23854 0.00028448 0)
(4.31297 0.000270106 0)
(4.39043 0.000248333 0)
(4.47028 0.000226817 0)
(4.55236 0.000208519 0)
(4.63656 0.000188135 0)
(4.72122 0.000177499 0)
(4.80897 0.000166938 0)
(4.89268 0.00223441 0)
(4.75034 0.00234275 0)
(4.83717 -0.00195231 0)
(5.12907 -0.00231125 0)
(5.2745 -0.000141959 0)
(5.36697 0.00061134 0)
(5.38082 -4.12204e-05 0)
(5.59336 -0.000590078 0)
(5.67569 0.000987904 0)
(5.65538 0.000732143 0)
(5.78465 -8.23534e-05 0)
(5.89091 -0.00113019 0)
(6.15133 -0.00138103 0)
(6.29534 0.000235732 0)
(6.38384 1.33427e-05 0)
(6.6585 -0.00013665 0)
(6.77866 0.000615572 0)
(7.08694 0.00040041 0)
(7.18103 0.000889565 0)
(7.58016 0.00037576 0)
(7.59284 0.000832393 0)
(8.04232 -0.000499785 0)
(8.08842 -0.00727237 0)
(9.41636 -0.00983673 0)
(9.38506 -0.00107314 0)
(10.1804 0.0018863 0)
(9.65046 0.0097433 0)
(10.1947 0.0081482 0)
(9.60139 0.0155937 0)
(10.1981 0.00528671 0)
(10.3113 0.00605565 0)
(11.3216 -0.0047631 0)
(11.7377 0.000591033 0)
(12.5993 -5.37029e-05 0)
(12.6229 0.00943363 0)
(13.014 0.00411563 0)
(13.2466 0.00789993 0)
(13.6566 0.0138673 0)
(13.6486 0.0383364 0)
(13.9605 0.0433682 0)
(13.7761 0.0735058 0)
(14.5479 0.0584956 0)
(14.426 0.0924921 0)
(15.7397 0.0756434 0)
(14.9477 0.0631948 0)
(18.9685 0.261038 0)
(9.99139 -0.0995906 0)
(22.8044 -0.476392 0)
(27.4236 0.0774535 0)
(15.4454 0.0154821 0)
(11.5647 0.00452281 0)
(9.78016 0.00237568 0)
(8.66749 0.00147932 0)
(7.93089 0.00124885 0)
(7.33347 0.000881309 0)
(6.87826 0.000913484 0)
(6.48869 0.000598471 0)
(6.19154 0.000694054 0)
(5.93083 0.000434802 0)
(5.73208 0.000559493 0)
(5.55455 0.000350022 0)
(5.42107 0.000477877 0)
(5.30459 0.000309442 0)
(5.22075 0.000429508 0)
(5.15369 0.000297559 0)
(5.11161 0.000406611 0)
(5.08641 0.000307931 0)
(5.08026 0.000406422 0)
(5.09022 0.000336517 0)
(5.11433 0.000425146 0)
(5.15299 0.000378931 0)
(5.20163 0.000458535 0)
(5.2624 0.000432143 0)
(5.32932 0.000503622 0)
(5.40494 0.000491998 0)
(5.48322 0.000551458 0)
(5.56677 0.000543114 0)
(5.65096 0.000578826 0)
(5.73864 0.000559003 0)
(5.82714 0.000560379 0)
(5.91905 0.000524032 0)
(6.01302 0.00049514 0)
(6.11029 0.000451962 0)
(6.21023 0.000409602 0)
(6.31233 0.000372547 0)
(6.41692 0.000331686 0)
(6.5214 0.000307181 0)
(6.63036 0.000289965 0)
(6.7302 0.00273469 0)
(6.68875 0.002802 0)
(6.80799 -0.00222999 0)
(7.04492 -0.0027462 0)
(7.20587 -0.000242464 0)
(7.31612 0.000786429 0)
(7.37855 -0.000147789 0)
(7.59904 -0.000878196 0)
(7.69641 0.00120017 0)
(7.74263 0.000810801 0)
(7.89002 -0.00033301 0)
(8.04491 -0.00169591 0)
(8.28294 -0.00200451 0)
(8.46023 0.000212999 0)
(8.57026 -0.000166215 0)
(8.89754 -0.000350562 0)
(9.01658 0.000725498 0)
(9.41226 0.000332643 0)
(9.49083 0.000955952 0)
(10.0124 0.000114158 0)
(9.98469 0.000729428 0)
(10.5804 -0.00141919 0)
(10.5531 -0.013523 0)
(12.1146 -0.0166108 0)
(11.9417 -0.00354213 0)
(13.0334 0.00223873 0)
(12.3106 0.0155555 0)
(12.9811 0.0141426 0)
(12.1196 0.025302 0)
(12.8068 0.00579431 0)
(12.9553 0.00474165 0)
(14.0801 -0.0126315 0)
(14.4913 -0.00483703 0)
(15.4254 -0.00265387 0)
(15.2686 0.0145889 0)
(15.834 0.0011469 0)
(16.0084 0.00485765 0)
(16.2703 0.0189755 0)
(16.0292 0.0613165 0)
(16.4188 0.0737181 0)
(15.9757 0.123282 0)
(16.7664 0.103361 0)
(16.1742 0.143808 0)
(17.6941 0.118149 0)
(16.5436 0.100708 0)
(20.0857 0.417941 0)
(13.0446 -0.11847 0)
(24.6199 -0.743831 0)
(33.117 0.0986544 0)
(20.675 0.0253471 0)
(15.7105 0.00835859 0)
(13.3149 0.00444479 0)
(11.8114 0.00278623 0)
(10.8083 0.00233225 0)
(10.0031 0.00165603 0)
(9.38488 0.00169736 0)
(8.86048 0.00112725 0)
(8.45502 0.00129024 0)
(8.1031 0.000822499 0)
(7.82984 0.00104041 0)
(7.58928 0.000663626 0)
(7.40347 0.000888607 0)
(7.24406 0.000586711 0)
(7.12435 0.000798366 0)
(7.02989 0.000562789 0)
(6.96523 0.000754743 0)
(6.92508 0.000579104 0)
(6.90734 0.000751649 0)
(6.91233 0.000627273 0)
(6.93371 0.000781295 0)
(6.9751 0.000698453 0)
(7.02789 0.000835032 0)
(7.09706 0.000785906 0)
(7.17316 0.000906014 0)
(7.26098 0.000880762 0)
(7.3518 0.000977537 0)
(7.44984 0.000956382 0)
(7.54856 0.00101109 0)
(7.65182 0.000970421 0)
(7.75576 0.000967336 0)
(7.86339 0.000900334 0)
(7.97287 0.000847568 0)
(8.08531 0.000770617 0)
(8.20026 0.000695785 0)
(8.31668 0.000629076 0)
(8.4357 0.000556361 0)
(8.55346 0.000507551 0)
(8.67739 0.00048488 0)
(8.78575 0.00319828 0)
(8.81705 0.00317955 0)
(8.96047 -0.00240586 0)
(9.16223 -0.00307482 0)
(9.32711 -0.000339391 0)
(9.44619 0.000920485 0)
(9.54913 -0.000328113 0)
(9.76791 -0.00120268 0)
(9.87199 0.00129238 0)
(9.97464 0.000742178 0)
(10.129 -0.000768734 0)
(10.3235 -0.0023861 0)
(10.527 -0.00271059 0)
(10.7307 8.80898e-05 0)
(10.8434 -0.000513356 0)
(11.2118 -0.00064649 0)
(11.3077 0.000661037 0)
(11.7779 9.22155e-05 0)
(11.8169 0.000661205 0)
(12.4455 -0.000479679 0)
(12.3498 9.47891e-05 0)
(13.0901 -0.00265993 0)
(12.928 -0.0223301 0)
(14.6234 -0.0248993 0)
(14.3552 -0.00881635 0)
(15.8095 0.00146383 0)
(14.9791 0.0214596 0)
(15.7043 0.0228413 0)
(14.6545 0.0367873 0)
(15.3731 0.00403088 0)
(15.7026 -0.000598302 0)
(16.813 -0.0236079 0)
(17.2137 -0.013425 0)
(17.9874 -0.00263867 0)
(17.4899 0.0226983 0)
(18.8878 0.0139015 0)
(19.1204 0.0302022 0)
(18.7217 0.0402787 0)
(17.4413 0.0825273 0)
(17.4666 0.101519 0)
(16.2581 0.154049 0)
(17.2633 0.13562 0)
(15.9757 0.179948 0)
(18.0268 0.151906 0)
(16.911 0.125098 0)
(19.9372 0.520499 0)
(17.0783 -0.209835 0)
(26.9484 -0.951879 0)
(38.0533 0.119295 0)
(26.3732 0.0379352 0)
(20.5555 0.0142129 0)
(17.5115 0.00774888 0)
(15.5668 0.00490344 0)
(14.2534 0.00407262 0)
(13.2088 0.00291221 0)
(12.399 0.00295027 0)
(11.7179 0.00198843 0)
(11.1827 0.00224456 0)
(10.723 0.00145838 0)
(10.3584 0.00181141 0)
(10.042 0.00118065 0)
(9.79023 0.00154818 0)
(9.57758 0.00104534 0)
(9.41062 0.00139179 0)
(9.27995 0.00100171 0)
(9.18287 0.0013152 0)
(9.11987 0.00102591 0)
(9.08173 0.00130583 0)
(9.07433 0.00110142 0)
(9.08492 0.0013485 0)
(9.12193 0.00121141 0)
(9.17135 0.00142672 0)
(9.24201 0.00134225 0)
(9.32027 0.00152641 0)
(9.41373 0.00147681 0)
(9.51062 0.00161893 0)
(9.61695 0.00157308 0)
(9.72406 0.00164661 0)
(9.83666 0.0015708 0)
(9.94955 0.00155599 0)
(10.0658 0.00144312 0)
(10.1832 0.00135508 0)
(10.3023 0.00123059 0)
(10.4233 0.00111063 0)
(10.5443 0.00100244 0)
(10.6678 0.000885939 0)
(10.7883 0.000800063 0)
(10.9168 0.000775945 0)
(11.0234 0.00364865 0)
(11.0971 0.00348286 0)
(11.2505 -0.00248218 0)
(11.4264 -0.00328757 0)
(11.5834 -0.000406145 0)
(11.6997 0.00100982 0)
(11.8236 -0.000574302 0)
(12.0304 -0.0015272 0)
(12.1306 0.00123795 0)
(12.2669 0.000502647 0)
(12.4118 -0.00139395 0)
(12.6281 -0.00314727 0)
(12.787 -0.00345191 0)
(13.0086 -0.000125191 0)
(13.0979 -0.00103544 0)
(13.4905 -0.00101259 0)
(13.5417 0.000372563 0)
(14.06 -0.000294549 0)
(14.0382 -6.19119e-05 0)
(14.7417 -0.00128143 0)
(14.5492 -0.00119766 0)
(15.4211 -0.00391215 0)
(15.0884 -0.0319354 0)
(16.6875 -0.0379682 0)
(16.5453 -0.0198972 0)
(18.4004 -0.00391504 0)
(17.7366 0.0309929 0)
(18.2866 0.0355379 0)
(17.3337 0.053737 0)
(17.861 -0.00549894 0)
(18.5434 -0.0163178 0)
(19.4117 -0.0382114 0)
(19.8184 -0.0206238 0)
(20.3498 0.00167645 0)
(20.0725 -0.0132147 0)
(22.8892 -0.053875 0)
(24.2839 0.0423221 0)
(23.4147 0.147952 0)
(19.9761 0.18809 0)
(19.0808 0.185303 0)
(16.1216 0.219785 0)
(18.4631 0.179506 0)
(16.3625 0.235439 0)
(19.8948 0.141428 0)
(19.1683 0.205008 0)
(20.5429 0.527765 0)
(21.8202 -0.441486 0)
(31.0113 -1.13066 0)
(41.8642 0.13749 0)
(32.132 0.0525787 0)
(25.9868 0.0224772 0)
(22.3752 0.0127679 0)
(19.9762 0.00821247 0)
(18.3226 0.00676611 0)
(17.0128 0.0048953 0)
(15.9859 0.00488057 0)
(15.1264 0.00336259 0)
(14.439 0.00371715 0)
(13.8527 0.00248435 0)
(13.3775 0.00300142 0)
(12.9692 0.00201844 0)
(12.6349 0.00256458 0)
(12.355 0.00178618 0)
(12.1261 0.00230284 0)
(11.9465 0.00170318 0)
(11.8037 0.00216953 0)
(11.7057 0.00172729 0)
(11.6347 0.00214043 0)
(11.6033 0.00182842 0)
(11.5913 0.00218838 0)
(11.6125 0.00197729 0)
(11.6473 0.00228497 0)
(11.7083 0.00214976 0)
(11.7779 0.00240504 0)
(11.8662 0.00231691 0)
(11.9588 0.0025045 0)
(12.063 0.00241888 0)
(12.1682 0.00250542 0)
(12.2796 0.00237913 0)
(12.3907 0.00234364 0)
(12.5042 0.00217178 0)
(12.6175 0.00203918 0)
(12.7307 0.00185738 0)
(12.8446 0.00168352 0)
(12.9565 0.00152574 0)
(13.0704 0.00135781 0)
(13.1792 0.00122365 0)
(13.2976 0.00120714 0)
(13.3901 0.00415031 0)
(13.4751 0.00377291 0)
(13.6188 -0.00244089 0)
(13.7673 -0.00334909 0)
(13.9034 -0.000373245 0)
(14.0039 0.00111756 0)
(14.123 -0.000820436 0)
(14.304 -0.0017707 0)
(14.3877 0.00111109 0)
(14.5295 0.000184499 0)
(14.6447 -0.00212525 0)
(14.8587 -0.0038626 0)
(14.9608 -0.00412411 0)
(15.1879 -0.000278398 0)
(15.2267 -0.00157288 0)
(15.6194 -0.00122521 0)
(15.6059 8.04343e-05 0)
(16.1359 -0.000490631 0)
(16.0392 -0.000977368 0)
(16.7737 -0.00178835 0)
(16.4731 -0.00292724 0)
(17.4126 -0.00501516 0)
(17.0154 -0.0405291 0)
(18.2464 -0.0489393 0)
(17.8991 -0.0420545 0)
(19.3189 -0.0245544 0)
(19.1554 0.0334942 0)
(19.5469 0.0478325 0)
(19.0618 0.0693865 0)
(19.0741 -0.00868889 0)
(19.2675 -0.0287813 0)
(19.7917 -0.0462819 0)
(20.0944 -0.027405 0)
(20.9509 0.0142045 0)
(20.3994 -0.0500402 0)
(21.6513 -0.162078 0)
(23.1479 -0.00355608 0)
(25.0485 0.241317 0)
(23.5678 0.351469 0)
(24.4673 0.37639 0)
(21.9681 0.332669 0)
(25.1871 0.254712 0)
(22.5063 0.255247 0)
(27.5862 0.113087 0)
(25.0849 0.305901 0)
(27.5267 0.349152 0)
(31.5449 -0.544475 0)
(37.6205 -0.809218 0)
(44.2342 0.151079 0)
(37.3312 0.0677061 0)
(31.6489 0.0330373 0)
(27.7663 0.0198992 0)
(24.9989 0.013157 0)
(23.0216 0.0107757 0)
(21.4444 0.00793825 0)
(20.1897 0.00775465 0)
(19.138 0.0055121 0)
(18.2818 0.00591748 0)
(17.5518 0.00411486 0)
(16.9481 0.00477983 0)
(16.4309 0.00335525 0)
(15.9971 0.00407743 0)
(15.6335 0.00295876 0)
(15.3268 0.00364763 0)
(15.0822 0.00279229 0)
(14.8781 0.00341366 0)
(14.7294 0.00278616 0)
(14.6104 0.00333294 0)
(14.539 0.00289047 0)
(14.4894 0.0033614 0)
(14.479 0.00305944 0)
(14.4841 0.00345506 0)
(14.5198 0.00325533 0)
(14.5657 0.00357448 0)
(14.6334 0.00343473 0)
(14.7067 0.00365781 0)
(14.7934 0.00351958 0)
(14.8819 0.00360878 0)
(14.9768 0.00342195 0)
(15.071 0.00335882 0)
(15.1663 0.00312353 0)
(15.2603 0.00294432 0)
(15.3517 0.00270568 0)
(15.4426 0.00247859 0)
(15.5292 0.00227232 0)
(15.6173 0.00205493 0)
(15.6983 0.00186835 0)
(15.7896 0.00187458 0)
(15.8544 0.00483487 0)
(15.9233 0.00419283 0)
(16.0359 -0.00219264 0)
(16.1476 -0.00315854 0)
(16.2493 -9.81297e-05 0)
(16.3215 0.00141197 0)
(16.412 -0.000895582 0)
(16.5517 -0.00176765 0)
(16.6056 0.00111655 0)
(16.7269 3.76038e-05 0)
(16.7954 -0.00273184 0)
(16.9832 -0.00426906 0)
(17.0181 -0.00448994 0)
(17.2347 -2.76677e-05 0)
(17.2081 -0.00172094 0)
(17.578 -0.000846514 0)
(17.4947 0.000251771 0)
(18.0069 -2.96134e-05 0)
(17.8475 -0.00166126 0)
(18.5673 -0.00156022 0)
(18.2014 -0.00434881 0)
(19.1128 -0.00691561 0)
(18.7497 -0.0449927 0)
(19.6106 -0.0533989 0)
(19.0739 -0.0437513 0)
(19.7057 -0.031249 0)
(19.4014 0.0363 0)
(19.6841 0.0575319 0)
(19.4566 0.0892928 0)
(19.7697 0.0103732 0)
(19.9698 -0.0184624 0)
(20.4761 -0.0433269 0)
(20.7861 -0.0391393 0)
(21.4024 0.0086297 0)
(21.5952 -0.0340989 0)
(21.9494 -0.160605 0)
(21.6955 -0.0853032 0)
(23.1928 0.185103 0)
(23.1463 0.298862 0)
(24.3335 0.367006 0)
(23.3916 0.276615 0)
(24.9455 0.247422 0)
(23.5939 0.202685 0)
(25.6965 0.0118346 0)
(25.4749 0.416565 0)
(25.8817 0.0880464 0)
(24.6746 -1.23969 0)
(32.96 -0.54573 0)
(45.0574 0.158311 0)
(41.2537 0.080832 0)
(36.8743 0.0447597 0)
(33.2716 0.029039 0)
(30.405 0.0200285 0)
(28.2273 0.0164377 0)
(26.4427 0.0124093 0)
(24.991 0.0118742 0)
(23.7601 0.00876653 0)
(22.7391 0.00910254 0)
(21.8615 0.00663697 0)
(21.1231 0.00736353 0)
(20.4863 0.00543677 0)
(19.9427 0.00626912 0)
(19.4818 0.00477112 0)
(19.085 0.00557922 0)
(18.7601 0.00444308 0)
(18.4812 0.00517505 0)
(18.2651 0.0043458 0)
(18.0831 0.00498803 0)
(17.9544 0.00440374 0)
(17.851 0.0049528 0)
(17.791 0.00455161 0)
(17.7495 0.00500732 0)
(17.7413 0.00473607 0)
(17.746 0.00509528 0)
(17.7744 0.00489692 0)
(17.8107 0.00513549 0)
(17.8617 0.00493872 0)
(17.9159 0.00501717 0)
(17.9768 0.00476913 0)
(18.0373 0.00467567 0)
(18.0978 0.00438485 0)
(18.1563 0.004167 0)
(18.2104 0.00388557 0)
(18.2631 0.00361852 0)
(18.3098 0.00337725 0)
(18.3576 0.00312459 0)
(18.3973 0.0028932 0)
(18.4469 0.00294081 0)
(18.4726 0.00590074 0)
(18.5066 0.00497275 0)
(18.5735 -0.00155053 0)
(18.6395 -0.00254064 0)
(18.697 0.000620519 0)
(18.7323 0.00214245 0)
(18.782 -0.000526992 0)
(18.8716 -0.00127672 0)
(18.8889 0.0015321 0)
(18.9742 0.000399317 0)
(18.9948 -0.0028798 0)
(19.143 -0.00402894 0)
(19.12 -0.00427897 0)
(19.3136 0.000892446 0)
(19.2378 -0.00116065 0)
(19.5767 0.000317682 0)
(19.4554 0.00107839 0)
(19.9387 0.00102077 0)
(19.7736 -0.00197536 0)
(20.4342 -0.000827438 0)
(20.0986 -0.00516731 0)
(20.9051 -0.00926379 0)
(20.6287 -0.0466756 0)
(21.2356 -0.0525212 0)
(20.5909 -0.0294652 0)
(20.8425 -0.0174645 0)
(20.1517 0.0537134 0)
(20.3949 0.0683484 0)
(20.3813 0.0930137 0)
(21.1025 0.00328568 0)
(21.5434 -0.0297431 0)
(22.1437 -0.0544028 0)
(22.5216 -0.0484726 0)
(22.938 -0.00298557 0)
(23.2374 -0.0418872 0)
(23.5283 -0.127296 0)
(22.7032 -0.0564564 0)
(22.5304 0.177514 0)
(22.2702 0.290615 0)
(22.8086 0.378919 0)
(22.5881 0.315091 0)
(23.5012 0.293205 0)
(22.9676 0.269717 0)
(24.4134 0.0233329 0)
(23.2988 0.421419 0)
(26.8057 0.31827 0)
(22.7947 -1.18574 0)
(29.3749 -0.485884 0)
(44.639 0.158965 0)
(43.3913 0.0892744 0)
(40.81 0.0552567 0)
(38.1278 0.0389551 0)
(35.6338 0.0284418 0)
(33.5499 0.0237442 0)
(31.7389 0.018499 0)
(30.2073 0.0174527 0)
(28.8726 0.0134175 0)
(27.739 0.0135211 0)
(26.7467 0.0103518 0)
(25.8969 0.0109937 0)
(25.1531 0.00854391 0)
(24.509 0.00935969 0)
(23.9526 0.00747503 0)
(23.467 0.00829441 0)
(23.0571 0.00687723 0)
(22.6993 0.00762854 0)
(22.4069 0.00659978 0)
(22.154 0.00726089 0)
(21.9559 0.00653719 0)
(21.7879 0.00710136 0)
(21.6643 0.00660289 0)
(21.5631 0.00706826 0)
(21.496 0.00672656 0)
(21.4453 0.00708626 0)
(21.419 0.00682905 0)
(21.4037 0.00705338 0)
(21.4038 0.00679872 0)
(21.4097 0.00684928 0)
(21.4227 0.0065473 0)
(21.4368 0.00642322 0)
(21.4505 0.00609474 0)
(21.4627 0.00585367 0)
(21.4699 0.00555408 0)
(21.4757 0.00526951 0)
(21.4753 0.0050155 0)
(21.4763 0.00474852 0)
(21.4699 0.00448873 0)
(21.4731 0.00459161 0)
(21.457 0.00754243 0)
(21.4512 0.0063405 0)
(21.4724 -0.000294994 0)
(21.4945 -0.00131006 0)
(21.5103 0.00194196 0)
(21.5105 0.00348396 0)
(21.5248 0.000498716 0)
(21.5705 -0.000135711 0)
(21.5607 0.00250772 0)
(21.6108 0.00140852 0)
(21.605 -0.00241371 0)
(21.7145 -0.00308277 0)
(21.6703 -0.00354141 0)
(21.8385 0.00222304 0)
(21.7608 -0.000226916 0)
(22.0709 0.00164893 0)
(21.9735 0.00187283 0)
(22.4222 0.0015965 0)
(22.3231 -0.00254792 0)
(22.8859 -0.000588819 0)
(22.6622 -0.00613976 0)
(23.3177 -0.011725 0)
(23.1443 -0.0475812 0)
(23.5423 -0.0457613 0)
(22.889 -0.00802626 0)
(23.035 0.00689253 0)
(22.3405 0.0759845 0)
(22.6435 0.0699082 0)
(22.8166 0.0752999 0)
(23.6547 -0.02164 0)
(24.1671 -0.0515591 0)
(24.7078 -0.0709139 0)
(25.046 -0.0578865 0)
(25.3201 -0.0117573 0)
(25.5562 -0.0399305 0)
(25.604 -0.0798369 0)
(24.7558 0.0367497 0)
(24.0382 0.262565 0)
(23.5523 0.35626 0)
(23.6095 0.420477 0)
(23.5395 0.350699 0)
(24.2269 0.329758 0)
(23.9173 0.296365 0)
(25.5274 0.101298 0)
(23.6604 0.38642 0)
(28.09 0.298064 0)
(24.5699 -1.05418 0)
(28.1667 -0.515403 0)
(43.7518 0.155334 0)
(43.8641 0.0918535 0)
(42.8879 0.061777 0)
(41.4603 0.0471319 0)
(39.8063 0.0367043 0)
(38.2275 0.0317171 0)
(36.7098 0.0257124 0)
(35.336 0.024252 0)
(34.0752 0.01942 0)
(32.9628 0.0192 0)
(31.958 0.0153812 0)
(31.0764 0.0157998 0)
(30.2864 0.0128608 0)
(29.5911 0.0135173 0)
(28.9762 0.0112734 0)
(28.4328 0.0119733 0)
(27.9604 0.0102985 0)
(27.5429 0.0109554 0)
(27.187 0.00974594 0)
(26.8741 0.0103297 0)
(26.6129 0.00948033 0)
(26.3855 0.00998026 0)
(26.2 0.00939401 0)
(26.0406 0.00980553 0)
(25.9136 0.00939912 0)
(25.8062 0.00970947 0)
(25.7228 0.00939575 0)
(25.6533 0.00956821 0)
(25.5997 0.00925758 0)
(25.5545 0.00925745 0)
(25.5171 0.00890949 0)
(25.4829 0.00875096 0)
(25.4492 0.00840269 0)
(25.4154 0.00815099 0)
(25.3776 0.00785549 0)
(25.3396 0.00757087 0)
(25.2969 0.00731965 0)
(25.2571 0.00704791 0)
(25.2127 0.00676653 0)
(25.1781 0.00691837 0)
(25.1298 0.00982436 0)
(25.0941 0.00835583 0)
(25.083 0.0016287 0)
(25.0752 0.0005518 0)
(25.0637 0.00382959 0)
(25.0424 0.00535084 0)
(25.0375 0.00209583 0)
(25.056 0.00150583 0)
(25.0383 0.00388678 0)
(25.0648 0.00279028 0)
(25.0584 -0.0015809 0)
(25.137 -0.00186666 0)
(25.107 -0.00276032 0)
(25.2501 0.0032562 0)
(25.207 0.000269587 0)
(25.4811 0.00211072 0)
(25.4407 0.00164082 0)
(25.834 0.000633997 0)
(25.8104 -0.00398545 0)
(26.2523 -0.00145343 0)
(26.1295 -0.00765162 0)
(26.6203 -0.014144 0)
(26.5035 -0.0466149 0)
(26.7063 -0.0349342 0)
(26.1352 0.0149828 0)
(26.2497 0.0301553 0)
(25.778 0.0907188 0)
(26.1492 0.0629174 0)
(26.3969 0.0502771 0)
(27.1119 -0.0501427 0)
(27.5385 -0.073912 0)
(27.9672 -0.0840094 0)
(28.2074 -0.0608688 0)
(28.3482 -0.0130261 0)
(28.4566 -0.0244945 0)
(28.2969 -0.0160833 0)
(27.4799 0.141457 0)
(26.7927 0.357169 0)
(26.361 0.429736 0)
(26.2811 0.467158 0)
(26.2573 0.380212 0)
(26.7356 0.364762 0)
(26.6058 0.29118 0)
(27.9306 0.190394 0)
(26.4687 0.313659 0)
(30.001 0.236807 0)
(27.5948 -0.810998 0)
(28.9869 -0.391561 0)
(43.2517 0.151493 0)
(43.5321 0.0904627 0)
(43.3872 0.0634475 0)
(42.9487 0.0512761 0)
(42.2194 0.0422625 0)
(41.3894 0.0381471 0)
(40.4581 0.0323262 0)
(39.5202 0.0310033 0)
(38.582 0.0258552 0)
(37.7007 0.0254852 0)
(36.8621 0.0212624 0)
(36.0966 0.02146 0)
(35.3864 0.0181691 0)
(34.7447 0.0186004 0)
(34.1609 0.0160828 0)
(33.6355 0.0165767 0)
(33.1658 0.0147025 0)
(32.7445 0.0151789 0)
(32.3735 0.0138292 0)
(32.0426 0.0142581 0)
(31.755 0.0133108 0)
(31.5 0.01368 0)
(31.2807 0.0130238 0)
(31.0875 0.0133264 0)
(30.9225 0.0128653 0)
(30.7778 0.0130813 0)
(30.6546 0.0127147 0)
(30.5464 0.0127995 0)
(30.453 0.0124337 0)
(30.3694 0.0123585 0)
(30.2937 0.0119681 0)
(30.2227 0.0117651 0)
(30.153 0.0114053 0)
(30.0847 0.0111433 0)
(30.0141 0.0108585 0)
(29.9449 0.0105722 0)
(29.8734 0.010318 0)
(29.8063 0.0100255 0)
(29.7378 0.00970444 0)
(29.6794 0.00987285 0)
(29.6132 0.012673 0)
(29.5605 0.0109113 0)
(29.5296 0.00407961 0)
(29.5035 0.00289682 0)
(29.4762 0.00613198 0)
(29.4436 0.00755091 0)
(29.4276 0.00404738 0)
(29.4271 0.00341349 0)
(29.4067 0.00549298 0)
(29.4139 0.00429641 0)
(29.4076 -0.000577923 0)
(29.455 -0.000650445 0)
(29.4369 -0.00208431 0)
(29.5445 0.00388433 0)
(29.526 0.000322265 0)
(29.742 0.0018475 0)
(29.7334 0.000759852 0)
(30.0417 -0.00105012 0)
(30.0436 -0.00537228 0)
(30.3595 -0.00217951 0)
(30.2763 -0.00843173 0)
(30.6116 -0.015045 0)
(30.5012 -0.041895 0)
(30.5398 -0.0206725 0)
(30.0804 0.0378219 0)
(30.1755 0.0487814 0)
(29.9068 0.0971293 0)
(30.2629 0.0503098 0)
(30.5172 0.0238207 0)
(31.0718 -0.0754413 0)
(31.399 -0.0935085 0)
(31.7079 -0.0936642 0)
(31.8482 -0.0585424 0)
(31.9143 -0.00453425 0)
(31.8838 0.00947184 0)
(31.5731 0.0662937 0)
(30.8787 0.250271 0)
(30.3431 0.447417 0)
(30.0505 0.50227 0)