/*--------------------------------*- C++ -*----------------------------------*\
| =========                 |                                                 |
| \\      /  F ield         | OpenFOAM: The Open Source CFD Toolbox           |
|  \\    /   O peration     | Version:  2306                                  |
|   \\  /    A nd           | Website:  www.openfoam.com                      |
|    \\/     M anipulation  |                                                 |
\*---------------------------------------------------------------------------*/
FoamFile
{
    version     2.0;
    format      ascii;
    arch        "LSB;label=32;scalar=64";
    class       volVectorField;
    location    "600";
    object      wallShearStress;
}
// * * * * * * * * * * * * * * * * * * * * * * * * * * * * * * * * * * * * * //

dimensions      [0 2 -2 0 0 0 0];

internalField   uniform (0 0 0);

boundaryField
{
    inlet
    {
        type            calculated;
        value           uniform (0 0 0);
    }
    outlet
    {
        type            calculated;
        value           uniform (0 0 0);
    }
    lowerWallStartup
    {
        type            symmetryPlane;
    }
    upperWallStartup
    {
        type            symmetryPlane;
    }
    upperWall
    {
        type            calculated;
        value           nonuniform List<vector> 
218
(
(-3.55661 0.0160712 0)
(-1.39493 0.000349331 0)
(-1.02856 3.01042e-05 0)
(-0.872137 6.54717e-05 0)
(-0.766549 -3.38382e-05 0)
(-0.709684 7.98592e-05 0)
(-0.648721 -6.54149e-05 0)
(-0.615763 9.87324e-05 0)
(-0.571978 -8.58615e-05 0)
(-0.553223 0.000113985 0)
(-0.520022 -9.51534e-05 0)
(-0.510898 0.000128086 0)
(-0.484577 -9.65162e-05 0)
(-0.48236 0.000141676 0)
(-0.461377 -9.31805e-05 0)
(-0.464597 0.000155785 0)
(-0.448342 -8.76151e-05 0)
(-0.456166 0.000172145 0)
(-0.44443 -8.22979e-05 0)
(-0.456119 0.000192476 0)
(-0.448841 -7.96053e-05 0)
(-0.463568 0.00021822 0)
(-0.460781 -8.17343e-05 0)
(-0.477674 0.000250696 0)
(-0.479377 -9.13323e-05 0)
(-0.497355 0.00028972 0)
(-0.503314 -0.000111013 0)
(-0.520773 0.000330952 0)
(-0.530548 -0.000139952 0)
(-0.545578 0.000366649 0)
(-0.558936 -0.000171448 0)
(-0.570163 0.000391511 0)
(-0.587445 -0.000196591 0)
(-0.594504 0.000407035 0)
(-0.616545 -0.000210712 0)
(-0.619566 0.000419093 0)
(-0.647348 -0.000215082 0)
(-0.646144 0.00043333 0)
(-0.680644 -0.000214069 0)
(-0.674071 0.000611462 0)
(-0.631638 -0.000292858 0)
(-0.705001 0.000759877 0)
(-0.158406 -9.1137e-05 0)
(-0.73622 0.000582512 0)
(-0.111434 0.000104634 0)
(-0.234267 0.00124969 0)
(-0.0290343 -6.88539e-06 0)
(-0.0492016 -0.00111741 0)
(-0.890666 -6.20544e-05 0)
(-0.0389052 -4.94169e-05 0)
(-0.945105 -0.000504872 0)
(-0.77679 0.000960657 0)
(-1.00788 -0.000215318 0)
(-0.935721 0.000457978 0)
(-1.06887 0.000172272 0)
(-1.00003 0.000390028 0)
(-1.13447 0.000118043 0)
(-1.0775 0.000342908 0)
(-1.17603 -3.74765e-05 0)
(-1.17216 0.000326692 0)
(-1.18155 -0.000143025 0)
(-1.26428 -1.51754e-05 0)
(-1.38302 -0.00174077 0)
(-1.60611 -0.0014911 0)
(-1.7208 -0.00140629 0)
(-1.80853 -0.00138117 0)
(-1.81929 0.000466181 0)
(-1.72399 -0.00262437 0)
(-2.04302 0.000986818 0)
(-1.90692 -0.00565168 0)
(-2.44543 0.00145912 0)
(-2.43831 -0.00572277 0)
(-2.74905 -0.00330977 0)
(-2.69917 -0.00349131 0)
(-2.59924 -0.00813096 0)
(-2.64951 -0.000555841 0)
(-2.33419 -0.0107974 0)
(-2.70702 0.000764165 0)
(-2.59957 -0.0109952 0)
(-2.97209 -0.00067474 0)
(-2.91948 -0.00621943 0)
(-3.20645 -0.00717024 0)
(-3.0548 -0.00783997 0)
(-3.63628 0.00110234 0)
(-4.17282 -0.00687503 0)
(-3.62384 0.0200402 0)
(-2.05788 0.0176869 0)
(-2.39423 0.013156 0)
(-2.04916 -0.0195293 9.10229e-18)
(-3.4507 0.0158089 0)
(-3.03212 -0.0106556 -9.07757e-18)
(-3.86659 0.0176267 9.05941e-18)
(-3.63586 -0.0180619 0)
(-4.46605 0.00251048 9.0289e-18)
(-4.06725 -0.0174551 0)
(-4.1114 0.0138441 0)
(-4.07942 -0.0380428 0)
(-4.42207 -0.012161 0)
(-6.02913 -0.0212316 -8.9678e-18)
(-6.63962 0.028209 0)
(-3.42975 0.0838424 8.99216e-18)
(0.0821899 0.140665 0)
(-0.469803 -0.0243698 9.06738e-18)
(-2.59263 0.0119565 -9.02538e-18)
(-2.97119 -0.0344706 0)
(-3.75338 -0.00146568 -9.00538e-18)
(-3.58918 -0.0257431 0)
(-4.16896 0.00843956 9.00044e-18)
(-3.90267 -0.0166549 0)
(-4.58867 0.0134983 0)
(-4.08272 -0.0127089 0)
(-4.90798 0.0317352 0)
(-4.07764 -0.0171138 0)
(-5.56789 0.00254927 0)
(-5.97301 -0.00795213 0)
(-5.93087 0.0301142 -8.95458e-18)
(-4.14774 -0.00869582 8.97511e-18)
(-4.68459 0.0346578 -8.97482e-18)
(-4.15207 -0.0107734 8.96766e-18)
(-4.64858 0.0190401 0)
(-4.57677 -0.0033394 8.9545e-18)
(-4.82811 0.0153156 0)
(-4.19242 0.00880236 8.94737e-18)
(-3.36165 0.0242773 0)
(-1.80005 -0.0182082 0)
(-2.31087 0.0150149 8.99895e-18)
(-2.35077 -0.0344443 0)
(-2.69776 0.00776539 8.98463e-18)
(-2.59274 -0.0305665 0)
(-3.41832 0.00490969 8.97771e-18)
(-1.99288 -0.0204138 0)
(-2.45506 0.0277882 8.95896e-18)
(-3.21954 -0.0888813 0)
(-4.99936 -0.0183424 0)
(-5.10582 -0.0216587 8.91799e-18)
(-3.7363 0.0192279 0)
(-2.25483 -0.0304275 8.97479e-18)
(-0.996951 0.0326786 0)
(0.029701 -0.0325565 8.99514e-18)
(-1.4065 -0.0344805 0)
(-5.27647 -0.113793 8.88572e-18)
(-9.74499 -0.0143682 0)
(-9.81913 0.0722234 0)
(-5.0408 0.140765 8.87942e-18)
(1.75683 0.171875 0)
(3.84493 0.0937949 8.94899e-18)
(3.88243 -0.0245157 0)
(2.13809 0.09208 8.99391e-18)
(1.03823 -0.166568 0)
(-0.534234 0.0274731 0)
(-0.841377 -0.0768245 8.99243e-18)
(-1.46322 0.00763652 8.99123e-18)
(-1.57255 -0.0699733 0)
(-1.71506 0.0184583 8.9946e-18)
(-1.76189 -0.0638039 0)
(-2.1127 0.011367 8.99534e-18)
(-2.35026 -0.0447775 0)
(-2.02846 0.012398 9.01221e-18)
(-1.44684 -0.0334225 0)
(-1.58817 0.0400628 8.99398e-18)
(-3.31188 -0.0645204 8.97125e-18)
(-6.34865 -0.0398246 0)
(-8.13828 -0.0527819 8.90755e-18)
(-10.3723 -0.00261266 0)
(-12.237 -0.0128499 8.8422e-18)
(-12.1119 0.0353171 0)
(-6.91475 0.152149 0)
(3.03989 0.192265 8.90913e-18)
(6.79156 0.0287765 -8.90916e-18)
(7.6429 0.0168193 8.93397e-18)
(6.88034 -0.0623552 -8.97497e-18)
(5.42123 0.0130157 0)
(4.44416 -0.0955908 0)
(2.30873 0.0537135 0)
(2.43116 -0.212473 -9.07877e-18)
(1.68125 0.0648437 0)
(1.13728 -0.146005 0)
(0.662384 -0.00960157 0)
(0.371105 -0.0977998 0)
(0.671723 2.44616e-05 0)
(0.228415 -0.0394518 0)
(0.094983 -0.0076377 0)
(-1.10719 -0.0224459 9.09955e-18)
(-3.1461 -0.0382013 -9.07824e-18)
(-5.45022 -0.0305672 0)
(-8.18679 -0.0271697 0)
(-10.3077 -0.0305451 2.3707e-18)
(-11.1635 -0.0145781 -2.06943e-18)
(-10.2101 -0.00331691 -3.61682e-18)
(-8.82194 0.00399234 -3.16658e-18)
(-4.12076 0.0655912 -5.53438e-18)
(3.0941 0.0656958 -4.8243e-18)
(6.41769 0.00903646 -4.21403e-18)
(7.13402 -0.00628488 0)
(5.38371 -0.0120725 -6.47218e-18)
(2.91296 -0.0159174 0)
(1.24277 -0.00746209 9.8991e-18)
(-0.0983791 -0.0142064 0)
(-0.812729 -0.00437725 0)
(-1.24635 -0.00620325 0)
(-1.50742 0.00240534 0)
(-1.89062 -0.00393314 0)
(-2.23567 0.00233551 0)
(-2.59942 -0.00569955 -3.03015e-17)
(-4.1124 -0.0054413 0)
(-5.2148 -0.0140072 4.57195e-17)
(-6.38189 -0.0276012 -3.95108e-17)
(-10.7124 -0.0688851 3.36541e-17)
(-15.9819 -0.178189 0)
(-28.4228 -0.470226 4.43691e-17)
(-29.1457 -0.564096 0)
(-12.8757 -0.457493 0)
(-14.014 -1.30888 0)
(-41.9573 -2.51709 0)
(-57.2106 -2.55453 0)
(-42.0322 -1.27219 0)
(-26.9421 -0.544399 -3.62753e-17)
(-29.2008 -5.56347 0)
)
;
    }
    lowerWall
    {
        type            calculated;
        value           nonuniform List<vector> 
266
(
(-3.55486 -0.0160793 0)
(-1.39024 -0.000346393 0)
(-1.02866 -5.02109e-05 0)
(-0.867544 -2.82815e-05 0)
(-0.768797 -9.13176e-06 0)
(-0.705732 -1.90669e-05 0)
(-0.652227 -3.04862e-06 0)
(-0.612075 -1.51529e-05 0)
(-0.576385 1.06933e-06 0)
(-0.549557 -1.09308e-05 0)
(-0.525421 1.79913e-06 0)
(-0.507382 -9.40766e-06 0)
(-0.491008 -4.64866e-08 0)
(-0.479198 -9.86908e-06 0)
(-0.468814 -3.0689e-06 0)
(-0.462032 -1.16144e-05 0)
(-0.456776 -6.87631e-06 0)
(-0.454482 -1.44744e-05 0)
(-0.453845 -1.14389e-05 0)
(-0.455661 -1.83296e-05 0)
(-0.459181 -1.66098e-05 0)
(-0.46471 -2.29008e-05 0)
(-0.471916 -2.21873e-05 0)
(-0.480738 -2.79654e-05 0)
(-0.491102 -2.80326e-05 0)
(-0.502642 -3.31485e-05 0)
(-0.515354 -3.33422e-05 0)
(-0.528657 -3.69627e-05 0)
(-0.542559 -3.59693e-05 0)
(-0.556465 -3.70243e-05 0)
(-0.570525 -3.40738e-05 0)
(-0.584343 -3.26752e-05 0)
(-0.598282 -2.8898e-05 0)
(-0.612177 -2.67104e-05 0)
(-0.626444 -2.4179e-05 0)
(-0.641029 -2.27793e-05 0)
(-0.656189 -2.22668e-05 0)
(-0.671908 -2.18374e-05 0)
(-0.688173 -2.28282e-05 0)
(-0.705146 -1.99408e-05 0)
(-0.722405 -0.000506193 0)
(-0.0294365 -8.93041e-05 0)
(-4.58595 0.20259 0)
(-0.761082 0.000556861 0)
(-0.799582 3.40954e-05 0)
(-0.819093 -0.000204406 0)
(-0.769505 -2.8065e-05 0)
(-0.863265 0.000173172 0)
(-0.880451 -0.000339346 0)
(-0.781816 -0.000458058 0)
(-0.82423 -9.26889e-05 0)
(-0.81125 0.000412343 0)
(-0.965397 0.00039218 0)
(-0.986577 -0.000124996 0)
(-0.990044 -7.57988e-06 0)
(-1.04603 -8.68435e-05 0)
(-1.07516 -0.000184641 0)
(-1.12588 -0.000301518 0)
(-1.15788 -0.000245244 0)
(-1.22481 -0.000345762 0)
(-1.24417 -0.000289233 0)
(-1.31987 -0.000492577 0)
(-1.34579 0.00120224 0)
(-1.61691 0.000823728 0)
(-1.66978 0.000800798 0)
(-1.77754 0.000356205 0)
(-1.71609 -5.85595e-05 0)
(-1.79528 -0.000109799 0)
(-1.7319 -0.000567814 0)
(-1.84335 -0.000217485 0)
(-1.9096 -0.000671131 0)
(-2.15016 0.00023871 0)
(-2.28514 -0.000356728 0)
(-2.48143 0.000557362 0)
(-2.53379 0.00178631 0)
(-2.64221 0.00404193 0)
(-2.77161 0.00285115 0)
(-2.92897 0.00127773 0)
(-2.97054 -0.0035036 0)
(-3.02759 -0.00635102 0)
(-3.06269 -0.0131641 0)
(-3.27254 -0.013269 0)
(-3.42477 -0.0185846 0)
(-3.7974 -0.0198004 0)
(-3.8444 -0.0179842 0)
(-4.82312 -0.0214156 0)
(-2.97734 0.0218878 0)
(-6.65003 -0.682951 0)
(669.52 -38.803 0)
(-26.6316 3.30195 0)
(4.00619 0.800318 -1.04965e-19)
(0.337609 0.619733 1.26251e-19)
(0.308118 0.444752 0)
(0.27522 0.284375 0)
(0.23962 0.149692 0)
(0.260091 0.0856117 0)
(0.269503 0.0300328 0)
(0.230228 -0.0161234 5.18849e-18)
(0.232103 -0.0315678 -4.38769e-18)
(0.231086 -0.0392652 7.54072e-18)
(0.227723 -0.0460214 -6.57083e-18)
(0.230173 -0.0525121 0)
(0.224683 -0.0643015 -1.04302e-17)
(0.228332 -0.0676227 9.62834e-18)
(0.215212 -0.107947 0)
(0.174274 -0.0953023 0)
(0.147434 -0.20263 0)
(-0.203371 -0.164998 -3.02911e-17)
(-0.286519 0.179254 1.88523e-17)
(-0.267978 0.456926 -3.57831e-17)
(-0.200676 0.791256 3.65223e-17)
(0.0114667 0.850628 0)
(0.158381 0.634046 -6.90425e-17)
(0.197059 0.361882 6.77106e-17)
(0.164379 0.148698 0)
(0.150029 0.0487625 0)
(0.148536 -0.0144079 0)
(0.130037 -0.0880738 0)
(0.100251 -0.155678 0)
(0.051572 -0.215569 0)
(-0.0175229 -0.235697 8.53163e-17)
(-0.0802093 -0.215969 1.30387e-21)
(-0.117516 -0.169955 -7.04242e-17)
(-0.155319 -0.144219 -0)
(-0.190628 -0.119463 0)
(-0.219655 -0.0916669 0)
(-0.242892 -0.0637109 0)
(-0.261596 -0.0366415 0)
(-0.278163 -0.0108557 -8.02923e-17)
(-0.290282 0.0162709 1.02241e-16)
(-0.106965 0.0410029 0)
(-0.34446 -0.244946 0)
(-0.673787 -0.409325 0)
(-0.466322 -0.424471 4.55085e-17)
(-0.389296 -0.663364 -4.2513e-17)
(-0.368654 -0.773932 -0)
(-0.814416 -91.9326 -0)
(1.67825 0.147814 7.1211e-20)
(-1.06059 0.0141423 0)
(-4.04462 0.0159252 7.11036e-20)
(-5.48728 0.00651139 0)
(-5.41484 -0.00102089 0)
(-4.22664 -0.00375153 0)
(-2.71662 -0.000270723 0)
(-2.14247 -0.0130397 -0)
(-0.951219 0.00605017 2.80797e-20)
(-2.64513 0.00521984 0)
(-0.214355 -0.0452984 0)
(1.58602 -0.0317846 0)
(0.0398489 -0.00402229 0)
(-3.98542 0.0404289 0)
(-7.229 0.0245237 0)
(-5.59068 -0.0107378 0)
(-2.5155 -0.016999 0)
(0.246557 0.00712927 0)
(0.621159 0.11564 0)
(-2.20634 0.0912135 -7.04152e-20)
(-4.66602 0.0533935 0)
(-4.25567 -0.0019731 -7.01926e-20)
(-3.6015 -1.54332e-05 0)
(-3.41332 0.00607256 -7.00971e-20)
(-3.28773 0.00301693 0)
(-2.58092 -0.00739531 -7.0013e-20)
(-0.971176 -0.0257598 -0)
(0.907768 -0.0220299 0)
(2.64224 -0.0181271 0)
(4.02682 -0.0101623 -6.97787e-20)
(5.12322 -0.00910081 -6.97661e-20)
(6.00432 -0.00512443 -6.97643e-20)
(6.74256 -0.00530215 -6.97951e-20)
(7.31699 -0.00229327 -6.98404e-20)
(7.58161 -0.00148667 -0)
(7.46646 0.0030551 0)
(6.96627 0.00105689 -7.01514e-20)
(6.26919 0.00526629 -7.02485e-20)
(5.21398 0.00100665 -7.04139e-20)
(3.82783 0.0173002 -7.05108e-20)
(1.44093 0.0100333 -7.06371e-20)
(-2.28866 0.0578815 -7.05719e-20)
(-6.43841 0.0466783 0)
(-9.86668 0.0448143 -7.03562e-20)
(-11.6698 0.0195849 -7.02005e-20)
(-11.3446 0.0100782 -6.99954e-20)
(-9.92052 -0.0160059 -6.98872e-20)
(-7.06707 -0.00716759 -6.97974e-20)
(-6.78966 -0.0218686 -6.97809e-20)
(-5.81642 0.00748088 0)
(-2.92048 -0.0380185 -6.97452e-20)
(0.106573 -0.0488083 -6.97036e-20)
(-0.334358 -0.0276746 -6.97234e-20)
(-0.865117 -0.00466481 -6.97005e-20)
(-1.80984 0.00674144 -6.97593e-20)
(-1.98913 0.0138877 -6.97719e-20)
(-2.55499 0.0128848 -0)
(-5.4179 0.0333381 -6.96832e-20)
(-8.19061 0.0250664 -0)
(-10.017 0.0210293 0)
(-10.2076 0.00263592 0)
(-6.16834 -0.0277989 6.91369e-20)
(0.619564 -0.0599872 0)
(4.71494 -0.0378643 -0)
(6.61702 -0.0144552 0)
(7.08307 -0.00426787 -0)
(6.6768 0.000661538 0)
(5.76442 0.00729376 -0)
(4.61942 0.00821107 6.92948e-20)
(3.41933 0.0129184 0)
(2.27869 0.0126504 0)
(1.22309 0.0174635 0)
(0.317876 0.0137842 6.94832e-20)
(-0.438046 0.0123592 0)
(-1.2027 0.00998868 0)
(-1.80641 0.00703447 0)
(-1.93796 0.00309431 0)
(-2.78729 0.0195245 0)
(-2.94465 0.00908934 0)
(-2.85519 0.0146032 6.92622e-20)
(-2.80665 0.00675792 0)
(-2.70838 0.0140136 0)
(-2.61073 0.00624016 6.92803e-20)
(-2.41437 0.0154016 0)
(-2.19133 0.00988579 6.93234e-20)
(-1.93258 0.0200689 0)
(-1.77114 0.0123158 0)
(-1.63823 0.0206038 -6.94204e-20)
(-1.6303 0.0101852 0)
(-1.56769 0.0196685 6.95185e-20)
(-1.53458 0.00900346 0)
(-1.34695 0.0221921 0)
(-1.1159 0.0114875 0)
(-0.732974 0.0268378 0)
(-0.203493 0.0160467 0)
(0.463425 0.029947 7.00506e-20)
(0.966058 0.0322713 0)
(1.33475 0.0472306 0)
(1.52712 0.0284208 8.33319e-18)
(1.24385 0.0256398 1.45611e-17)
(0.777213 0.0158883 0)
(0.258072 0.0100565 0)
(-0.104425 0.00588218 0)
(-0.346591 0.00301042 0)
(-0.524581 0.00183631 0)
(-0.625781 0.000632317 -2.58215e-17)
(-0.698341 -0.000312177 0)
(-0.712209 -0.00113306 -3.93471e-17)
(-0.688148 -0.00200644 3.43449e-17)
(-0.617797 -0.00286928 0)
(-0.495123 -0.00392766 0)
(-0.423452 0.200776 0)
(-0.132118 -0.00564297 7.98466e-17)
(0.351917 -0.00767656 -6.9757e-17)
(0.46185 -0.00917706 -0)
(1.07786 -0.0120886 1.06703e-16)
(1.80085 -0.0160533 -0)
(3.11767 -0.018244 1.63637e-16)
(-0.116665 -0.021727 0)
(10.63 -0.0580238 0)
(30.555 -0.165084 -0)
(-39.6921 1.18011 0)
(-114.721 2.81937 0)
(-111.005 1.43606 -2.00778e-16)
(-10.1739 -0.731438 1.73682e-16)
(34.6972 -1.28211 -0)
(2.83021 -0.41769 2.11447e-16)
(-4.58624 0.175312 0)
(-57.3866 1.07378 0)
)
;
    }
    front
    {
        type            empty;
    }
    back
    {
        type            empty;
    }
}


// ************************************************************************* //
