/*--------------------------------*- C++ -*----------------------------------*\
| =========                 |                                                 |
| \\      /  F ield         | OpenFOAM: The Open Source CFD Toolbox           |
|  \\    /   O peration     | Version:  2306                                  |
|   \\  /    A nd           | Website:  www.openfoam.com                      |
|    \\/     M anipulation  |                                                 |
\*---------------------------------------------------------------------------*/
FoamFile
{
    version     2.0;
    format      ascii;
    arch        "LSB;label=32;scalar=64";
    class       volScalarField;
    location    "0.4";
    object      p;
}
// * * * * * * * * * * * * * * * * * * * * * * * * * * * * * * * * * * * * * //

dimensions      [0 2 -2 0 0 0 0];

internalField   nonuniform List<scalar> 
400
(
4.70801e-06
-0.00872927
-0.0194835
-0.0277306
-0.0307944
-0.027481
-0.0177
-0.00214516
0.0179508
0.0409884
0.0651337
0.0884383
0.108969
0.124964
0.135026
0.138361
0.135074
0.126498
0.115519
0.106797
0.00866478
-0.00032049
-0.00874519
-0.0144131
-0.0160279
-0.0127555
-0.00448528
0.00828752
0.0246335
0.0433122
0.0628777
0.081784
0.098502
0.111655
0.120174
0.123476
0.12168
0.115729
0.107109
0.0981659
0.0200449
0.00760809
-0.00149453
-0.00670487
-0.00800947
-0.00496453
0.00242452
0.0136842
0.0280115
0.0443554
0.0614883
0.0780892
0.0928413
0.104544
0.112238
0.115346
0.113856
0.108318
0.0989642
0.0865582
0.0303915
0.0132248
0.00192906
-0.00400007
-0.00560693
-0.00279453
0.00426169
0.0150104
0.0286605
0.04423
0.0605864
0.0765034
0.0907369
0.102116
0.109643
0.112618
0.11083
0.104486
0.0928073
0.075583
0.0372071
0.0150707
0.00115907
-0.00581138
-0.00779131
-0.00498759
0.00224385
0.0132348
0.027152
0.0430222
0.0597422
0.0761105
0.0908796
0.102827
0.110838
0.114019
0.111926
0.104454
0.0899615
0.067565
0.0386723
0.0115101
-0.0051141
-0.0131099
-0.0152506
-0.012024
-0.00397501
0.00808512
0.0232449
0.0404985
0.0587272
0.0767049
0.0931259
0.106655
0.115992
0.119989
0.117925
0.10938
0.0919135
0.0641295
0.0332154
0.000936225
-0.0183387
-0.0270983
-0.0289416
-0.0246498
-0.0149776
-0.00090443
0.0165551
0.0363381
0.0572853
0.0781175
0.0974349
0.113742
0.125495
0.131217
0.129846
0.120587
0.100157
0.0666855
0.0191926
-0.0183775
-0.0401041
-0.0491122
-0.0499306
-0.0436944
-0.0314093
-0.0142501
0.00665156
0.0301713
0.0551096
0.080132
0.103734
0.124232
0.139781
0.148499
0.148868
0.139604
0.116393
0.0768054
-0.00536172
-0.0484864
-0.0722978
-0.0807264
-0.0794597
-0.0701069
-0.0539921
-0.0325164
-0.00692914
0.0216039
0.051873
0.0825201
0.111957
0.138311
0.159395
0.172823
0.176476
0.168364
0.142796
0.0965499
-0.0429685
-0.0919806
-0.117227
-0.123787
-0.118908
-0.104873
-0.083421
-0.0562098
-0.0245871
0.0102918
0.0472766
0.0850608
0.122039
0.156187
0.184966
0.205383
0.214529
0.209383
0.182294
0.128797
-0.0970203
-0.152256
-0.177757
-0.180406
-0.169689
-0.148855
-0.12018
-0.0855975
-0.0464982
-0.00392968
0.0411385
0.0875832
0.133912
0.178053
0.217154
0.247555
0.265327
0.265961
0.238934
0.177689
-0.172335
-0.233939
-0.257478
-0.252917
-0.233059
-0.202533
-0.16427
-0.120448
-0.0723862
-0.0208606
0.0335276
0.0900424
0.147517
0.204034
0.256579
0.300834
0.331648
0.342439
0.318411
0.24935
-0.276247
-0.343572
-0.360901
-0.343707
-0.309784
-0.265614
-0.21482
-0.159689
-0.101236
-0.0397112
0.0249229
0.0926057
0.16281
0.234113
0.303655
0.366668
0.416707
0.444466
0.42888
0.353207
-0.42093
-0.490759
-0.493542
-0.454783
-0.399515
-0.336409
-0.269567
-0.200993
-0.130991
-0.0588932
0.0163365
0.0956834
0.179682
0.267911
0.35825
0.446039
0.523838
0.579182
0.582218
0.504635
-0.628251
-0.689877
-0.661522
-0.586622
-0.499599
-0.410874
-0.32417
-0.240361
-0.158328
-0.0759404
0.00927854
0.099782
0.197666
0.304191
0.418908
0.538428
0.65545
0.754836
0.795786
0.730207
-0.938381
-0.961769
-0.870135
-0.736271
-0.603502
-0.481576
-0.37171
-0.271998
-0.178781
-0.0877693
0.00541969
0.105103
0.215434
0.340139
0.481772
0.640282
0.811155
0.979255
1.09376
1.07617
-1.4252
-1.33401
-1.12118
-0.895869
-0.700285
-0.537862
-0.403353
-0.289235
-0.187717
-0.0915814
0.00582611
0.110926
0.230284
0.370871
0.539941
0.744001
0.98596
1.25682
1.50676
1.62274
-2.25654
-1.84022
-1.39827
-1.0419
-0.768651
-0.563161
-0.407617
-0.284866
-0.181199
-0.0859881
0.00964057
0.114007
0.235999
0.386253
0.578469
0.829916
1.15781
1.5731
2.0729
2.5462
-3.8782
-2.4973
-1.59597
-1.07867
-0.741942
-0.514938
-0.359008
-0.244811
-0.152831
-0.0701905
0.0128115
0.104964
0.216011
0.358911
0.553412
0.830058
1.23011
1.82417
2.81455
4.29844
-6.63774
-3.13689
-1.50293
-0.865741
-0.542307
-0.353951
-0.239036
-0.161371
-0.100716
-0.0457664
0.01107
0.0764065
0.157791
0.266351
0.422035
0.662494
1.05683
1.79115
3.53923
7.15537
)
;

boundaryField
{
    movingWall
    {
        type            zeroGradient;
    }
    fixedWalls
    {
        type            zeroGradient;
    }
    frontAndBack
    {
        type            empty;
    }
}


// ************************************************************************* //
