/*--------------------------------*- C++ -*----------------------------------*\
| =========                 |                                                 |
| \\      /  F ield         | OpenFOAM: The Open Source CFD Toolbox           |
|  \\    /   O peration     | Version:  2306                                  |
|   \\  /    A nd           | Website:  www.openfoam.com                      |
|    \\/     M anipulation  |                                                 |
\*---------------------------------------------------------------------------*/
FoamFile
{
    version     2.0;
    format      ascii;
    arch        "LSB;label=32;scalar=64";
    class       surfaceScalarField;
    location    "0.4";
    object      phi;
}
// * * * * * * * * * * * * * * * * * * * * * * * * * * * * * * * * * * * * * //

dimensions      [0 3 -1 0 0 0 0];

oriented        oriented;

internalField   nonuniform List<scalar> 
760
(
1.44429e-08
-1.447e-08
-2.16688e-08
3.61117e-08
-1.13676e-07
9.20074e-08
-2.45235e-07
1.31558e-07
-3.9643e-07
1.51196e-07
-5.48287e-07
1.51857e-07
-6.8444e-07
1.36154e-07
-7.91835e-07
1.07395e-07
-8.6091e-07
6.90753e-08
-8.85648e-07
2.47378e-08
-8.63656e-07
-2.19925e-08
-7.96326e-07
-6.73298e-08
-6.89047e-07
-1.0728e-07
-5.51369e-07
-1.37677e-07
-3.97005e-07
-1.54364e-07
-2.43415e-07
-1.53591e-07
-1.10658e-07
-1.32757e-07
-1.9141e-08
-9.15172e-08
1.54134e-08
-3.45545e-08
1.54134e-08
-3.37113e-08
1.92413e-08
-1.79292e-07
1.81693e-07
-4.32859e-07
3.45574e-07
-7.63963e-07
4.62662e-07
-1.13285e-06
5.20081e-07
-1.49896e-06
5.17966e-07
-1.82564e-06
4.62833e-07
-2.08267e-06
3.64429e-07
-2.24753e-06
2.33935e-07
-2.306e-06
8.32119e-08
-2.25262e-06
-7.53731e-08
-2.09103e-06
-2.28922e-07
-1.83428e-06
-3.64035e-07
-1.50485e-06
-4.67105e-07
-1.13412e-06
-5.25093e-07
-7.60709e-07
-5.27002e-07
-4.27147e-07
-4.66318e-07
-1.74178e-07
-3.44486e-07
-3.14346e-08
-1.77298e-07
-1.60213e-08
-9.15143e-08
1.10755e-07
-3.55557e-07
4.45736e-07
-7.63203e-07
7.5322e-07
-1.26814e-06
9.67598e-07
-1.81587e-06
1.06781e-06
-2.3516e-06
1.0537e-06
-2.82566e-06
9.36887e-07
-3.19681e-06
7.35579e-07
-3.43416e-06
4.7129e-07
-3.51821e-06
1.67262e-07
-3.44148e-06
-1.52101e-07
-3.20904e-06
-4.61367e-07
-2.8388e-06
-7.34273e-07
-2.36147e-06
-9.44432e-07
-1.81965e-06
-1.06692e-06
-1.2655e-06
-1.08115e-06
-7.56531e-07
-9.75285e-07
-3.48884e-07
-7.52134e-07
-8.8256e-08
-4.37925e-07
-1.04277e-07
-1.44323e-07
2.55078e-07
-5.23933e-07
8.25346e-07
-1.08065e-06
1.30993e-06
-1.7482e-06
1.63515e-06
-2.45717e-06
1.77678e-06
-3.14095e-06
1.73748e-06
-3.74047e-06
1.53641e-06
-4.20722e-06
1.20234e-06
-4.50507e-06
7.69132e-07
-4.61116e-06
2.73357e-07
-4.51664e-06
-2.46621e-07
-4.22714e-06
-7.5087e-07
-3.76322e-06
-1.19819e-06
-3.1605e-06
-1.54716e-06
-2.4689e-06
-1.75851e-06
-1.75061e-06
-1.79945e-06
-1.07592e-06
-1.64997e-06
-5.17065e-07
-1.31099e-06
-1.40397e-07
-8.14593e-07
-2.44675e-07
-1.92707e-07
4.47786e-07
-6.83998e-07
1.31664e-06
-1.38623e-06
2.01217e-06
-2.21079e-06
2.45971e-06
-3.07218e-06
2.63817e-06
-3.89268e-06
2.55798e-06
-4.60572e-06
2.24944e-06
-5.1579e-06
1.75452e-06
-5.50995e-06
1.12119e-06
-5.63713e-06
4.00538e-07
-5.52951e-06
-3.54246e-07
-5.19245e-06
-1.08792e-06
-4.64734e-06
-1.7433e-06
-3.93217e-06
-2.26232e-06
-3.10171e-06
-2.58898e-06
-2.22633e-06
-2.67483e-06
-1.38894e-06
-2.48736e-06
-6.79682e-07
-2.02025e-06
-1.88819e-07
-1.30546e-06
-4.33494e-07
-2.39344e-07
6.8713e-07
-8.40957e-07
1.91825e-06
-1.68751e-06
2.85872e-06
-2.6663e-06
3.4385e-06
-3.67479e-06
3.64666e-06
-4.62444e-06
3.50764e-06
-5.44268e-06
3.06768e-06
-6.07319e-06
2.38503e-06
-6.47546e-06
1.52346e-06
-6.62402e-06
5.491e-07
-6.50813e-06
-4.7014e-07
-6.13206e-06
-1.46399e-06
-5.51619e-06
-2.35917e-06
-4.6986e-06
-3.07991e-06
-3.73659e-06
-3.55099e-06
-2.7073e-06
-3.70412e-06
-1.70639e-06
-3.48827e-06
-8.43858e-07
-2.88278e-06
-2.36847e-07
-1.91247e-06
-6.70341e-07
-2.86965e-07
9.74095e-07
-1.00092e-06
2.6322e-06
-1.99279e-06
3.8506e-06
-3.12378e-06
4.56949e-06
-4.27359e-06
4.79647e-06
-5.34372e-06
4.57777e-06
-6.25749e-06
3.98145e-06
-6.95808e-06
3.08562e-06
-7.40588e-06
1.97126e-06
-7.57617e-06
7.19389e-07
-7.45771e-06
-5.88604e-07
-7.05278e-06
-1.86892e-06
-6.37876e-06
-3.03319e-06
-5.47099e-06
-3.98768e-06
-4.38641e-06
-4.63557e-06
-3.2068e-06
-4.88373e-06
-2.04009e-06
-4.65498e-06
-1.01793e-06
-3.90495e-06
-2.88005e-07
-2.64239e-06
-9.58345e-07
-3.38088e-07
1.31218e-06
-1.1696e-06
3.46371e-06
-2.30889e-06
4.98989e-06
-3.58822e-06
5.84881e-06
-4.86922e-06
6.07747e-06
-6.04533e-06
5.75387e-06
-7.03889e-06
4.97502e-06
-7.79608e-06
3.8428e-06
-8.28122e-06
2.45641e-06
-8.47233e-06
9.10492e-07
-8.35828e-06
-7.02648e-07
-7.93846e-06
-2.28875e-06
-7.22475e-06
-3.7469e-06
-6.24607e-06
-4.96636e-06
-5.05472e-06
-5.82692e-06
-3.73334e-06
-6.20511e-06
-2.40022e-06
-5.9881e-06
-1.2099e-06
-5.09526e-06
-3.45695e-07
-3.50659e-06
-1.30404e-06
-3.95186e-07
1.70737e-06
-1.35217e-06
4.4207e-06
-2.64031e-06
6.27803e-06
-4.05884e-06
7.26735e-06
-5.4519e-06
7.47053e-06
-6.70846e-06
7.01043e-06
-7.75505e-06
6.0216e-06
-8.54593e-06
4.63368e-06
-9.05368e-06
2.96416e-06
-9.26188e-06
1.11869e-06
-9.16064e-06
-8.03891e-07
-8.74551e-06
-2.70388e-06
-8.01996e-06
-4.47245e-06
-7.00159e-06
-5.98473e-06
-5.73181e-06
-7.0967e-06
-4.28775e-06
-7.64916e-06
-2.79365e-06
-7.4822e-06
-1.42705e-06
-6.46186e-06
-4.13314e-07
-4.52033e-06
-1.71735e-06
-4.61288e-07
2.16866e-06
-1.55402e-06
5.51342e-06
-2.98912e-06
7.71314e-06
-4.52768e-06
8.80591e-06
-5.99855e-06
8.9414e-06
-7.29279e-06
8.30467e-06
-8.34893e-06
7.07775e-06
-9.13664e-06
5.42139e-06
-9.64248e-06
3.47001e-06
-9.8594e-06
1.33561e-06
-9.78041e-06
-8.82884e-07
-9.39659e-06
-3.0877e-06
-8.69974e-06
-5.1693e-06
-7.6901e-06
-6.99437e-06
-6.38958e-06
-8.39722e-06
-4.85991e-06
-9.17884e-06
-3.22281e-06
-9.1193e-06
-1.67613e-06
-8.00854e-06
-4.9476e-07
-5.7017e-06
-2.21211e-06
-5.41054e-07
2.70971e-06
-1.78203e-06
6.7544e-06
-3.35489e-06
9.28599e-06
-4.97715e-06
1.04282e-05
-6.46835e-06
1.04326e-05
-7.73261e-06
9.56893e-06
-8.73193e-06
8.07707e-06
-9.46098e-06
6.15044e-06
-9.92736e-06
3.93638e-06
-1.01379e-05
1.54619e-06
-1.00909e-05
-9.29932e-07
-9.77271e-06
-3.40588e-06
-9.1605e-06
-5.78151e-06
-8.23048e-06
-7.92439e-06
-6.97423e-06
-9.65347e-06
-5.42375e-06
-1.07293e-05
-3.68372e-06
-1.08593e-05
-1.96388e-06
-9.72838e-06
-5.95356e-07
-7.07022e-06
-2.80747e-06
-6.4258e-07
3.35229e-06
-2.04615e-06
8.15797e-06
-3.73316e-06
1.0973e-05
-5.37479e-06
1.20698e-05
-6.79465e-06
1.18524e-05
-7.92764e-06
1.07019e-05
-8.77487e-06
8.92429e-06
-9.36744e-06
6.74301e-06
-9.74143e-06
4.31037e-06
-9.92221e-06
1.72697e-06
-9.91566e-06
-9.36478e-07
-9.70446e-06
-3.61708e-06
-9.24926e-06
-6.23671e-06
-8.49634e-06
-8.67731e-06
-7.39504e-06
-1.07548e-05
-5.9288e-06
-1.21956e-05
-4.16195e-06
-1.26262e-05
-2.29725e-06
-1.15931e-05
-7.23405e-07
-8.64407e-06
-3.53088e-06
-7.80315e-07
4.13261e-06
-2.36013e-06
9.73779e-06
-4.10986e-06
1.27227e-05
-5.66163e-06
1.36216e-05
-6.87024e-06
1.30611e-05
-7.7284e-06
1.15601e-05
-8.2957e-06
9.49159e-06
-8.65101e-06
7.09832e-06
-8.8646e-06
4.52397e-06
-8.9833e-06
1.84567e-06
-9.02281e-06
-8.96964e-07
-8.96399e-06
-3.6759e-06
-8.75206e-06
-6.44865e-06
-8.30086e-06
-9.12851e-06
-7.5074e-06
-1.15482e-05
-6.2849e-06
-1.34181e-05
-4.62352e-06
-1.42876e-05
-2.68209e-06
-1.35345e-05
-8.92649e-07
-1.04335e-05
-4.42352e-06
-9.79276e-07
5.11188e-06
-2.73827e-06
1.14968e-05
-4.44494e-06
1.44294e-05
-5.72677e-06
1.49034e-05
-6.52021e-06
1.38545e-05
-6.91304e-06
1.19529e-05
-7.04308e-06
9.62162e-06
-7.04373e-06
7.09897e-06
-7.01963e-06
4.49986e-06
-7.03767e-06
1.86371e-06
-7.12379e-06
-8.1084e-07
-7.2604e-06
-3.53929e-06
-7.38297e-06
-6.32608e-06
-7.37772e-06
-9.13376e-06
-7.0869e-06
-1.1839e-05
-6.33478e-06
-1.41702e-05
-4.99439e-06
-1.56279e-05
-3.11644e-06
-1.54125e-05
-1.12549e-06
-1.24245e-05
-5.54901e-06
-1.27806e-06
6.38994e-06
-3.17716e-06
1.33959e-05
-4.63004e-06
1.58823e-05
-5.35534e-06
1.56287e-05
-5.45458e-06
1.39537e-05
-5.15279e-06
1.16511e-05
-4.67658e-06
9.14542e-06
-4.20787e-06
6.63026e-06
-3.87462e-06
4.16662e-06
-3.75488e-06
1.74397e-06
-3.8817e-06
-6.84025e-07
-4.24344e-06
-3.17754e-06
-4.77774e-06
-5.79178e-06
-5.35992e-06
-8.55158e-06
-5.79165e-06
-1.14073e-05
-5.80516e-06
-1.41567e-05
-5.11484e-06
-1.63183e-05
-3.56647e-06
-1.69608e-05
-1.45331e-06
-1.45376e-05
-7.00233e-06
-1.71578e-06
8.10573e-06
-3.58906e-06
1.52691e-05
-4.38676e-06
1.668e-05
-4.12828e-06
1.53702e-05
-3.19271e-06
1.30182e-05
-1.96712e-06
1.04255e-05
-7.49058e-07
7.92736e-06
2.6151e-07
5.61969e-06
9.41107e-07
3.48702e-06
1.21946e-06
1.46562e-06
1.0643e-06
-5.28873e-07
4.77014e-07
-2.59025e-06
-4.9996e-07
-4.8148e-06
-1.76259e-06
-7.28895e-06
-3.11271e-06
-1.00572e-05
-4.22402e-06
-1.30454e-05
-4.64155e-06
-1.59007e-05
-3.89232e-06
-1.77101e-05
-1.89659e-06
-1.65333e-05
-8.89892e-06
-2.25794e-06
1.03637e-05
-3.6072e-06
1.66184e-05
-3.04405e-06
1.61168e-05
-1.24819e-06
1.35744e-05
1.04031e-06
1.07297e-05
3.31886e-06
8.14699e-06
5.29387e-06
5.95234e-06
6.81185e-06
4.10171e-06
7.79862e-06
2.50026e-06
8.21843e-06
1.04581e-06
8.05169e-06
-3.6213e-07
7.28728e-06
-1.82585e-06
5.92867e-06
-3.45619e-06
4.01717e-06
-5.37744e-06
1.67984e-06
-7.71989e-06
-7.9296e-07
-1.05726e-05
-2.85393e-06
-1.38398e-05
-3.65541e-06
-1.69086e-05
-2.37843e-06
-1.78103e-05
-1.12773e-05
-2.5491e-06
1.29128e-05
-2.08843e-06
1.61577e-05
9.03493e-07
1.31249e-05
4.72478e-06
9.7531e-06
8.41951e-06
7.03493e-06
1.15798e-05
4.98673e-06
1.40685e-05
3.46366e-06
1.58676e-05
2.3026e-06
1.69984e-05
1.36939e-06
1.74823e-05
5.61975e-07
1.73224e-05
-2.02271e-07
1.64976e-05
-1.00101e-06
1.49631e-05
-1.92172e-06
1.26642e-05
-3.07857e-06
9.57498e-06
-4.63063e-06
5.78885e-06
-6.78642e-06
1.70111e-06
-9.75203e-06
-1.67192e-06
-1.35355e-05
-2.47163e-06
-1.70106e-05
-1.3749e-05
-6.98101e-07
1.36109e-05
4.30233e-06
1.11573e-05
1.06069e-05
6.82031e-06
1.6138e-05
4.22204e-06
2.04912e-05
2.68174e-06
2.37486e-05
1.72926e-06
2.60919e-05
1.12043e-06
2.76859e-05
7.08594e-07
2.86497e-05
4.05538e-07
2.90538e-05
1.57933e-07
2.89218e-05
-7.03324e-08
2.8231e-05
-3.10164e-07
2.69069e-05
-5.97665e-07
2.48154e-05
-9.87075e-07
2.17568e-05
-1.57198e-06
1.74894e-05
-2.51905e-06
1.18597e-05
-4.12233e-06
5.23501e-06
-6.91084e-06
-2.61522e-07
-1.15141e-05
-1.40105e-05
1.36109e-05
2.47682e-05
3.15885e-05
3.58105e-05
3.84923e-05
4.02215e-05
4.1342e-05
4.20506e-05
4.24561e-05
4.2614e-05
4.25437e-05
4.22335e-05
4.16359e-05
4.06488e-05
3.90768e-05
3.65578e-05
3.24354e-05
2.55246e-05
1.40105e-05
)
;

boundaryField
{
    movingWall
    {
        type            calculated;
        value           uniform 0;
    }
    fixedWalls
    {
        type            calculated;
        value           uniform 0;
    }
    frontAndBack
    {
        type            empty;
        value           nonuniform List<scalar> 0();
    }
}


// ************************************************************************* //
