/*--------------------------------*- C++ -*----------------------------------*\
| =========                 |                                                 |
| \\      /  F ield         | OpenFOAM: The Open Source CFD Toolbox           |
|  \\    /   O peration     | Version:  2306                                  |
|   \\  /    A nd           | Website:  www.openfoam.com                      |
|    \\/     M anipulation  |                                                 |
\*---------------------------------------------------------------------------*/
FoamFile
{
    version     2.0;
    format      ascii;
    arch        "LSB;label=32;scalar=64";
    class       volVectorField;
    location    "0.4";
    object      U;
}
// * * * * * * * * * * * * * * * * * * * * * * * * * * * * * * * * * * * * * //

dimensions      [0 1 -1 0 0 0 0];

internalField   nonuniform List<vector> 
400
(
(0.000255267 -0.000252008 0)
(0.000148747 0.000108834 0)
(-0.0011647 0.000564459 0)
(-0.00347143 0.000888296 0)
(-0.00637774 0.00105131 0)
(-0.00948248 0.00106729 0)
(-0.0124259 0.000961031 0)
(-0.0149107 0.000759907 0)
(-0.0167094 0.000490462 0)
(-0.0176658 0.000178107 0)
(-0.0176951 -0.000151827 0)
(-0.0167867 -0.000472869 0)
(-0.0150077 -0.000756504 0)
(-0.0125076 -0.000971945 0)
(-0.00952072 -0.00108692 0)
(-0.006363 -0.00107019 0)
(-0.00341797 -0.000897085 0)
(-0.00110446 -0.000559007 0)
(0.000185566 -9.47738e-05 0)
(0.000264964 0.000259985 0)
(-7.27974e-05 -0.00017752 0)
(-0.00159499 0.00163335 0)
(-0.00566811 0.00361566 0)
(-0.0117002 0.00504686 0)
(-0.018893 0.00576425 0)
(-0.0264255 0.00578094 0)
(-0.0335122 0.005183 0)
(-0.0394746 0.00408921 0)
(-0.0437806 0.00263019 0)
(-0.0460604 0.000941137 0)
(-0.0461154 -0.00083844 0)
(-0.0439259 -0.00256295 0)
(-0.039658 -0.00407983 0)
(-0.0336685 -0.0052319 0)
(-0.0265012 -0.0058652 0)
(-0.0188685 -0.00584543 0)
(-0.0115992 -0.00508697 0)
(-0.00554863 -0.00359723 0)
(-0.00151605 -0.0015763 0)
(-4.95009e-05 0.000216205 0)
(-0.000521655 0.00107096 0)
(-0.00368836 0.00571061 0)
(-0.0105572 0.0102214 0)
(-0.0199715 0.0134344 0)
(-0.0307725 0.0149918 0)
(-0.041862 0.014883 0)
(-0.0521824 0.013279 0)
(-0.0608105 0.0104477 0)
(-0.067018 0.00670322 0)
(-0.0702973 0.00238267 0)
(-0.0703761 -0.0021607 0)
(-0.0672284 -0.00655851 0)
(-0.0610832 -0.0104295 0)
(-0.0524289 -0.0133891 0)
(-0.042006 -0.0150728 0)
(-0.0307793 -0.0151783 0)
(-0.0198636 -0.0135336 0)
(-0.0104073 -0.0101914 0)
(-0.00357989 -0.0055874 0)
(-0.000487148 -0.000975893 0)
(-0.000919138 0.0034424 0)
(-0.00566463 0.0121796 0)
(-0.0152717 0.0199226 0)
(-0.0279106 0.0252492 0)
(-0.0420215 0.0276778 0)
(-0.056258 0.0272126 0)
(-0.069357 0.0241458 0)
(-0.0802287 0.0189351 0)
(-0.0880194 0.0121246 0)
(-0.0921361 0.00430423 0)
(-0.0922593 -0.00390546 0)
(-0.0883545 -0.011858 0)
(-0.0806822 -0.0188869 0)
(-0.0698051 -0.0243239 0)
(-0.0565856 -0.0275394 0)
(-0.0421618 -0.0280146 0)
(-0.0278711 -0.0254496 0)
(-0.0151333 -0.0199032 0)
(-0.0055405 -0.0119847 0)
(-0.000874746 -0.0032726 0)
(-0.00126869 0.00682136 0)
(-0.00751206 0.0209024 0)
(-0.0197944 0.0325292 0)
(-0.0355737 0.0401974 0)
(-0.0528492 0.043422 0)
(-0.0700232 0.0423066 0)
(-0.0856561 0.0373249 0)
(-0.0985377 0.0291697 0)
(-0.107738 0.0186507 0)
(-0.112615 0.00663978 0)
(-0.112821 -0.00594987 0)
(-0.108308 -0.0181682 0)
(-0.0993396 -0.0290347 0)
(-0.0865076 -0.0375614 0)
(-0.0707422 -0.0428082 0)
(-0.0533079 -0.0439815 0)
(-0.0357409 -0.0405817 0)
(-0.0197484 -0.0325847 0)
(-0.00740201 -0.020661 0)
(-0.00121858 -0.00656855 0)
(-0.00159842 0.0111424 0)
(-0.00930952 0.03183 0)
(-0.0242492 0.0480178 0)
(-0.0431358 0.0582411 0)
(-0.0634959 0.0621448 0)
(-0.0834728 0.0600436 0)
(-0.101471 0.0526771 0)
(-0.116198 0.0410304 0)
(-0.126688 0.0262128 0)
(-0.132284 0.00939509 0)
(-0.132626 -0.0082093 0)
(-0.127645 -0.0253417 0)
(-0.117582 -0.0406957 0)
(-0.103012 -0.0529374 0)
(-0.0848844 -0.0607671 0)
(-0.0645491 -0.0630405 0)
(-0.0437251 -0.0589551 0)
(-0.0244287 -0.0482804 0)
(-0.00926741 -0.0316195 0)
(-0.00155202 -0.0108182 0)
(-0.00193601 0.0163975 0)
(-0.0111477 0.0449719 0)
(-0.0287854 0.0663974 0)
(-0.0507764 0.0793544 0)
(-0.0741424 0.0837659 0)
(-0.0967699 0.0802964 0)
(-0.116938 0.0700569 0)
(-0.133319 0.0543924 0)
(-0.14496 0.0347434 0)
(-0.151227 0.0125843 0)
(-0.151766 -0.0105835 0)
(-0.146484 -0.0332091 0)
(-0.135565 -0.053668 0)
(-0.119521 -0.070265 0)
(-0.0992573 -0.0812907 0)
(-0.0761546 -0.0851575 0)
(-0.0520844 -0.0806249 0)
(-0.0293825 -0.0670944 0)
(-0.0112566 -0.04495 0)
(-0.00190959 -0.0160479 0)
(-0.00230693 0.0226318 0)
(-0.0131137 0.0604019 0)
(-0.03354 0.0877051 0)
(-0.058627 0.103491 0)
(-0.0848544 0.108144 0)
(-0.109873 0.102854 0)
(-0.131891 0.089231 0)
(-0.149617 0.0690558 0)
(-0.162179 0.0441263 0)
(-0.16902 0.0162077 0)
(-0.169818 -0.012947 0)
(-0.164451 -0.0415383 0)
(-0.153017 -0.0676569 0)
(-0.135896 -0.0892502 0)
(-0.113868 -0.104155 0)
(-0.0882575 -0.110233 0)
(-0.0610227 -0.105636 0)
(-0.0348063 -0.089184 0)
(-0.0134885 -0.0608361 0)
(-0.00232486 -0.0223546 0)
(-0.00273753 0.0299396 0)
(-0.0152936 0.0782545 0)
(-0.0386294 0.111987 0)
(-0.0667459 0.130539 0)
(-0.0955408 0.135012 0)
(-0.12248 0.127342 0)
(-0.1458 0.109799 0)
(-0.16435 0.0846772 0)
(-0.177439 0.0541466 0)
(-0.184658 0.0202263 0)
(-0.18576 -0.0151464 0)
(-0.180599 -0.0500024 0)
(-0.169143 -0.0822163 0)
(-0.151564 -0.109413 0)
(-0.1284 -0.128948 0)
(-0.100784 -0.138021 0)
(-0.0706429 -0.133966 0)
(-0.0408661 -0.114731 0)
(-0.0160817 -0.0795496 0)
(-0.00283354 -0.029903 0)
(-0.00326295 0.0384683 0)
(-0.01779 0.0987148 0)
(-0.0441591 0.139254 0)
(-0.0751038 0.160243 0)
(-0.105909 0.163868 0)
(-0.133961 0.153111 0)
(-0.157681 0.131086 0)
(-0.17622 0.100681 0)
(-0.189198 0.0644273 0)
(-0.196454 0.0245282 0)
(-0.197868 -0.0170016 0)
(-0.193281 -0.0581457 0)
(-0.182498 -0.0966788 0)
(-0.165386 -0.129984 0)
(-0.142093 -0.154947 0)
(-0.113369 -0.168003 0)
(-0.0809017 -0.165418 0)
(-0.0476921 -0.143881 0)
(-0.0191671 -0.101432 0)
(-0.00348117 -0.0389292 0)
(-0.00394144 0.0484386 0)
(-0.0207533 0.122015 0)
(-0.0502412 0.169421 0)
(-0.0835594 0.19209 0)
(-0.115391 0.19384 0)
(-0.143248 0.179096 0)
(-0.165976 0.152024 0)
(-0.183243 0.116165 0)
(-0.195152 0.0743615 0)
(-0.201902 0.0288879 0)
(-0.203569 -0.0183166 0)
(-0.200004 -0.0653603 0)
(-0.190818 -0.110091 0)
(-0.175483 -0.149796 0)
(-0.153583 -0.180967 0)
(-0.125222 -0.199213 0)
(-0.09154 -0.199469 0)
(-0.0553702 -0.176642 0)
(-0.0229119 -0.126873 0)
(-0.00433714 -0.0497595 0)
(-0.00488001 0.0601943 0)
(-0.0244284 0.148434 0)
(-0.0570026 0.202206 0)
(-0.0917905 0.225136 0)
(-0.123008 0.223495 0)
(-0.148655 0.203649 0)
(-0.168359 0.171022 0)
(-0.18258 0.129808 0)
(-0.192085 0.0830514 0)
(-0.197547 0.0329268 0)
(-0.199311 -0.0189007 0)
(-0.197267 -0.0708818 0)
(-0.190831 -0.121168 0)
(-0.179013 -0.167179 0)
(-0.160661 -0.205189 0)
(-0.134926 -0.23002 0)
(-0.101951 -0.235038 0)
(-0.0639104 -0.212729 0)
(-0.0275541 -0.156275 0)
(-0.00551946 -0.0628535 0)
(-0.00627981 0.0743029 0)
(-0.0292172 0.178285 0)
(-0.0645435 0.236944 0)
(-0.0991098 0.25774 0)
(-0.127085 0.250588 0)
(-0.147573 0.224357 0)
(-0.161468 0.185855 0)
(-0.170318 0.139816 0)
(-0.175712 0.0892775 0)
(-0.178874 0.0360859 0)
(-0.180456 -0.0186006 0)
(-0.180435 -0.0738185 0)
(-0.178066 -0.128296 0)
(-0.171897 -0.179898 0)
(-0.159938 -0.224996 0)
(-0.140089 -0.257843 0)
(-0.110919 -0.270149 0)
(-0.0731444 -0.251292 0)
(-0.0334422 -0.189982 0)
(-0.00723809 -0.0788939 0)
(-0.00850923 0.09173 0)
(-0.0357303 0.211825 0)
(-0.0727387 0.272221 0)
(-0.104016 0.287143 0)
(-0.124693 0.271744 0)
(-0.135944 0.237878 0)
(-0.140494 0.193628 0)
(-0.141217 0.143951 0)
(-0.14056 0.0915426 0)
(-0.140268 0.0376381 0)
(-0.14128 -0.0173408 0)
(-0.143694 -0.0732385 0)
(-0.146705 -0.12963 0)
(-0.148526 -0.185191 0)
(-0.146389 -0.236872 0)
(-0.136777 -0.278857 0)
(-0.116095 -0.301454 0)
(-0.0824378 -0.290433 0)
(-0.041041 -0.228082 0)
(-0.00986015 -0.0989325 0)
(-0.0121786 0.114084 0)
(-0.0446858 0.248914 0)
(-0.0805927 0.305176 0)
(-0.103176 0.30887 0)
(-0.110604 0.282164 0)
(-0.107424 0.23993 0)
(-0.0986509 0.190949 0)
(-0.0884591 0.139767 0)
(-0.0799445 0.0882659 0)
(-0.0751438 0.0367819 0)
(-0.0751538 -0.0151624 0)
(-0.0802015 -0.0683413 0)
(-0.0895887 -0.123357 0)
(-0.101502 -0.180042 0)
(-0.112753 -0.236529 0)
(-0.118608 -0.287802 0)
(-0.112967 -0.323648 0)
(-0.0899277 -0.326392 0)
(-0.0507297 -0.269904 0)
(-0.0139548 -0.124569 0)
(-0.0180175 0.143975 0)
(-0.0561218 0.28807 0)
(-0.0844129 0.330191 0)
(-0.0892537 0.315951 0)
(-0.0754716 0.27553 0)
(-0.0521864 0.225672 0)
(-0.0265776 0.1745 0)
(-0.00353711 0.125166 0)
(0.013819 0.0782058 0)
(0.0236428 0.0328604 0)
(0.0249556 -0.012243 0)
(0.0174435 -0.0587303 0)
(0.00148191 -0.108201 0)
(-0.0215867 -0.161818 0)
(-0.0489149 -0.219476 0)
(-0.0754053 -0.278148 0)
(-0.092925 -0.328875 0)
(-0.0906213 -0.352224 0)
(-0.0618065 -0.312877 0)
(-0.0200736 -0.158197 0)
(-0.025802 0.185842 0)
(-0.0664781 0.324097 0)
(-0.0732739 0.336325 0)
(-0.0467308 0.297879 0)
(-0.00305396 0.244309 0)
(0.0444478 0.190659 0)
(0.0879931 0.142116 0)
(0.123437 0.0993215 0)
(0.148736 0.061111 0)
(0.162931 0.0257067 0)
(0.165538 -0.00887615 0)
(0.156256 -0.0447446 0)
(0.134945 -0.0841318 0)
(0.101899 -0.129318 0)
(0.0585164 -0.182189 0)
(0.00855605 -0.242846 0)
(-0.0399 -0.306236 0)
(-0.0721841 -0.355578 0)
(-0.0693357 -0.350045 0)
(-0.0274412 -0.203629 0)
(-0.0293427 0.243529 0)
(-0.0598161 0.341344 0)
(-0.0191087 0.303959 0)
(0.0551457 0.241111 0)
(0.133205 0.182101 0)
(0.202833 0.133449 0)
(0.259643 0.0949157 0)
(0.302524 0.0641606 0)
(0.331736 0.0386328 0)
(0.347831 0.0160924 0)
(0.351112 -0.00544042 0)
(0.341413 -0.0278986 0)
(0.318046 -0.0534257 0)
(0.279907 -0.0846395 0)
(0.225943 -0.124776 0)
(0.156339 -0.177226 0)
(0.0747584 -0.243333 0)
(-0.0065927 -0.316437 0)
(-0.0556862 -0.3633 0)
(-0.0285377 -0.262495 0)
(0.0101279 0.28455 0)
(0.023546 0.297957 0)
(0.144574 0.212243 0)
(0.271241 0.143169 0)
(0.371327 0.0960553 0)
(0.44671 0.0643862 0)
(0.502014 0.0428606 0)
(0.540848 0.0276228 0)
(0.566051 0.0160639 0)
(0.579535 0.00645229 0)
(0.58225 -0.00247288 0)
(0.574217 -0.0118342 0)
(0.554483 -0.0229214 0)
(0.520972 -0.0375666 0)
(0.470373 -0.0586702 0)
(0.39818 -0.0908211 0)
(0.298456 -0.140671 0)
(0.167516 -0.215877 0)
(0.0378406 -0.309113 0)
(0.0170514 -0.296651 0)
(0.301472 0.14654 0)
(0.399859 0.127646 0)
(0.561921 0.0756534 0)
(0.678879 0.0430553 0)
(0.747588 0.0249382 0)
(0.790048 0.0147468 0)
(0.817607 0.00885742 0)
(0.835397 0.00526307 0)
(0.846249 0.00285631 0)
(0.851742 0.00102611 0)
(0.852599 -0.000600226 0)
(0.848897 -0.00231995 0)
(0.840073 -0.00448309 0)
(0.824697 -0.00765943 0)
(0.8 -0.0129271 0)
(0.76077 -0.0223879 0)
(0.695339 -0.0400817 0)
(0.579645 -0.0733666 0)
(0.412915 -0.127899 0)
(0.307627 -0.148804 0)
)
;

boundaryField
{
    movingWall
    {
        type            fixedValue;
        value           uniform (1 0 0);
    }
    fixedWalls
    {
        type            noSlip;
    }
    frontAndBack
    {
        type            empty;
    }
}


// ************************************************************************* //
