/*--------------------------------*- C++ -*----------------------------------*\
| =========                 |                                                 |
| \\      /  F ield         | OpenFOAM: The Open Source CFD Toolbox           |
|  \\    /   O peration     | Version:  2306                                  |
|   \\  /    A nd           | Website:  www.openfoam.com                      |
|    \\/     M anipulation  |                                                 |
\*---------------------------------------------------------------------------*/
FoamFile
{
    version     2.0;
    format      ascii;
    arch        "LSB;label=32;scalar=64";
    class       volScalarField;
    location    "700";
    object      cp;
}
// * * * * * * * * * * * * * * * * * * * * * * * * * * * * * * * * * * * * * //

dimensions      [0 0 0 0 0 0 0];

internalField   nonuniform List<scalar> 
20540
(
373.681
373.675
373.681
373.675
373.681
373.675
373.681
373.675
373.681
373.675
373.681
373.675
373.681
373.675
373.681
373.675
373.681
373.675
373.681
373.675
373.681
373.675
373.681
373.675
373.681
373.675
373.681
373.675
373.681
373.675
373.681
373.675
373.681
373.675
373.681
373.674
373.681
373.674
373.681
373.674
373.681
373.674
373.681
373.674
373.681
373.674
373.681
373.674
373.681
373.674
373.681
373.674
373.68
373.674
373.68
373.674
373.68
373.674
373.68
373.673
373.68
373.673
373.68
373.673
373.68
373.673
373.68
373.673
373.68
373.673
373.68
373.673
373.68
373.673
373.68
373.673
373.68
373.674
373.68
373.674
373.681
373.674
373.681
373.674
373.681
373.674
373.681
373.674
373.681
373.674
373.681
373.674
373.681
373.674
373.681
373.674
373.681
373.674
373.681
373.674
373.681
373.674
373.681
373.674
373.681
373.674
373.681
373.674
373.681
373.674
373.681
373.674
373.681
373.674
373.681
373.674
373.681
373.674
373.681
373.674
373.681
373.674
373.681
373.674
373.681
373.674
373.681
373.674
373.681
373.674
373.66
373.631
373.606
373.585
373.572
373.56
373.555
373.548
373.546
373.544
373.546
373.548
373.554
373.561
373.571
373.583
373.596
373.611
373.628
373.646
373.666
373.687
373.709
373.733
373.758
373.784
373.812
373.84
373.869
373.9
373.932
373.964
373.997
374.032
374.067
374.103
374.14
374.178
374.217
374.257
374.297
374.338
374.379
374.421
374.463
374.506
374.549
374.593
374.637
374.681
374.725
374.769
374.814
374.859
374.905
374.953
375.002
375.053
375.105
375.158
375.212
375.266
375.322
375.378
375.43
375.484
375.537
375.59
375.644
375.699
375.755
375.812
375.87
375.926
375.982
376.037
376.091
376.146
376.201
376.256
376.312
376.367
376.422
376.471
376.522
376.547
376.566
376.502
373.66
373.631
373.606
373.585
373.572
373.56
373.555
373.548
373.546
373.544
373.546
373.548
373.554
373.561
373.571
373.583
373.596
373.611
373.628
373.646
373.666
373.687
373.709
373.733
373.758
373.784
373.812
373.84
373.869
373.9
373.932
373.964
373.997
374.032
374.067
374.103
374.14
374.178
374.217
374.257
374.297
374.338
374.379
374.421
374.463
374.506
374.549
374.593
374.637
374.681
374.725
374.769
374.814
374.859
374.905
374.953
375.002
375.053
375.105
375.158
375.212
375.266
375.322
375.378
375.43
375.484
375.537
375.59
375.644
375.699
375.755
375.812
375.87
375.926
375.982
376.037
376.091
376.146
376.201
376.256
376.312
376.367
376.422
376.471
376.522
376.547
376.566
376.507
373.66
373.631
373.606
373.585
373.572
373.56
373.555
373.548
373.546
373.544
373.546
373.548
373.554
373.561
373.571
373.583
373.596
373.611
373.628
373.646
373.666
373.687
373.709
373.733
373.758
373.784
373.812
373.84
373.869
373.9
373.932
373.964
373.997
374.032
374.067
374.103
374.14
374.178
374.217
374.257
374.297
374.338
374.379
374.421
374.463
374.506
374.549
374.593
374.637
374.681
374.725
374.769
374.814
374.859
374.905
374.953
375.002
375.053
375.105
375.158
375.212
375.266
375.322
375.378
375.43
375.484
375.537
375.59
375.644
375.699
375.755
375.812
375.87
375.926
375.982
376.037
376.091
376.146
376.201
376.256
376.312
376.367
376.422
376.471
376.522
376.547
376.566
376.515
373.66
373.631
373.606
373.585
373.572
373.56
373.555
373.548
373.546
373.544
373.546
373.548
373.554
373.561
373.571
373.583
373.596
373.611
373.628
373.646
373.666
373.687
373.709
373.733
373.758
373.784
373.812
373.84
373.869
373.9
373.932
373.964
373.997
374.032
374.067
374.103
374.14
374.178
374.217
374.257
374.297
374.338
374.379
374.421
374.463
374.506
374.549
374.593
374.637
374.681
374.725
374.769
374.814
374.859
374.905
374.953
375.002
375.053
375.105
375.158
375.212
375.266
375.322
375.378
375.43
375.484
375.537
375.59
375.644
375.699
375.755
375.812
375.87
375.926
375.982
376.037
376.091
376.146
376.201
376.256
376.312
376.367
376.422
376.471
376.522
376.547
376.566
376.526
373.66
373.631
373.606
373.585
373.572
373.56
373.555
373.548
373.546
373.544
373.546
373.548
373.554
373.561
373.571
373.583
373.596
373.611
373.628
373.646
373.666
373.687
373.709
373.733
373.758
373.784
373.812
373.84
373.869
373.9
373.932
373.964
373.997
374.032
374.067
374.103
374.14
374.178
374.217
374.257
374.297
374.338
374.379
374.421
374.463
374.506
374.549
374.593
374.637
374.681
374.725
374.769
374.814
374.859
374.905
374.953
375.002
375.053
375.105
375.158
375.212
375.266
375.322
375.378
375.43
375.484
375.537
375.59
375.644
375.699
375.755
375.812
375.87
375.926
375.982
376.037
376.091
376.146
376.201
376.256
376.312
376.367
376.422
376.471
376.522
376.547
376.567
376.538
373.66
373.631
373.606
373.585
373.572
373.56
373.555
373.548
373.546
373.544
373.546
373.548
373.554
373.561
373.571
373.583
373.596
373.611
373.628
373.646
373.666
373.687
373.709
373.733
373.758
373.784
373.812
373.84
373.869
373.9
373.932
373.964
373.997
374.032
374.067
374.103
374.14
374.178
374.217
374.257
374.297
374.338
374.379
374.421
374.463
374.506
374.549
374.593
374.637
374.681
374.725
374.769
374.814
374.859
374.905
374.953
375.002
375.053
375.105
375.158
375.212
375.266
375.322
375.378
375.43
375.484
375.537
375.59
375.644
375.699
375.755
375.812
375.87
375.926
375.982
376.037
376.091
376.146
376.201
376.256
376.312
376.367
376.422
376.471
376.522
376.548
376.567
376.553
373.66
373.631
373.606
373.585
373.572
373.56
373.555
373.548
373.546
373.544
373.546
373.548
373.554
373.561
373.571
373.583
373.596
373.611
373.628
373.646
373.666
373.687
373.709
373.733
373.758
373.784
373.812
373.84
373.869
373.9
373.932
373.964
373.997
374.032
374.067
374.103
374.14
374.178
374.217
374.257
374.297
374.338
374.379
374.421
374.463
374.506
374.549
374.593
374.637
374.681
374.725
374.769
374.814
374.859
374.905
374.953
375.002
375.053
375.105
375.158
375.212
375.266
375.322
375.378
375.43
375.484
375.537
375.59
375.644
375.699
375.755
375.813
375.87
375.926
375.982
376.037
376.091
376.146
376.201
376.256
376.312
376.367
376.422
376.471
376.522
376.549
376.569
376.57
373.66
373.631
373.606
373.585
373.572
373.56
373.555
373.548
373.546
373.544
373.546
373.548
373.554
373.561
373.571
373.583
373.596
373.611
373.628
373.646
373.666
373.687
373.709
373.733
373.758
373.784
373.812
373.84
373.869
373.9
373.932
373.964
373.997
374.032
374.067
374.103
374.14
374.178
374.217
374.257
374.297
374.338
374.379
374.421
374.463
374.506
374.549
374.593
374.637
374.681
374.725
374.769
374.814
374.859
374.905
374.953
375.002
375.053
375.105
375.158
375.212
375.266
375.322
375.378
375.43
375.484
375.537
375.59
375.644
375.699
375.755
375.813
375.87
375.926
375.982
376.037
376.091
376.146
376.201
376.256
376.312
376.367
376.422
376.472
376.522
376.551
376.571
376.589
373.66
373.631
373.606
373.585
373.572
373.56
373.555
373.548
373.546
373.544
373.546
373.548
373.554
373.561
373.571
373.583
373.596
373.611
373.628
373.646
373.666
373.687
373.709
373.733
373.758
373.784
373.812
373.84
373.869
373.9
373.932
373.964
373.997
374.032
374.067
374.103
374.14
374.178
374.217
374.257
374.297
374.338
374.379
374.421
374.463
374.506
374.549
374.593
374.637
374.681
374.725
374.769
374.814
374.859
374.905
374.953
375.002
375.053
375.105
375.158
375.212
375.266
375.322
375.378
375.43
375.484
375.537
375.59
375.644
375.699
375.755
375.813
375.87
375.926
375.982
376.037
376.091
376.146
376.201
376.256
376.312
376.367
376.423
376.472
376.522
376.554
376.576
376.61
373.66
373.631
373.606
373.585
373.572
373.56
373.555
373.548
373.546
373.544
373.546
373.548
373.554
373.561
373.571
373.583
373.596
373.611
373.628
373.646
373.666
373.687
373.709
373.733
373.758
373.784
373.812
373.84
373.869
373.9
373.932
373.964
373.997
374.032
374.067
374.103
374.14
374.178
374.217
374.257
374.297
374.338
374.379
374.421
374.463
374.506
374.549
374.593
374.637
374.681
374.725
374.769
374.814
374.859
374.905
374.953
375.002
375.053
375.105
375.158
375.212
375.266
375.322
375.378
375.43
375.484
375.537
375.59
375.644
375.699
375.755
375.813
375.87
375.926
375.982
376.037
376.091
376.146
376.201
376.256
376.313
376.368
376.423
376.473
376.522
376.558
376.582
376.632
373.66
373.631
373.606
373.585
373.572
373.56
373.555
373.548
373.546
373.544
373.546
373.548
373.554
373.561
373.571
373.583
373.596
373.611
373.628
373.646
373.666
373.687
373.709
373.733
373.758
373.784
373.812
373.84
373.869
373.9
373.932
373.964
373.997
374.032
374.067
374.103
374.14
374.178
374.217
374.257
374.297
374.338
374.379
374.421
374.463
374.506
374.549
374.593
374.637
374.681
374.725
374.769
374.814
374.859
374.905
374.953
375.002
375.053
375.105
375.158
375.212
375.266
375.322
375.378
375.43
375.484
375.538
375.59
375.644
375.699
375.756
375.813
375.87
375.926
375.982
376.037
376.091
376.146
376.201
376.256
376.313
376.368
376.423
376.474
376.523
376.563
376.591
376.656
373.66
373.631
373.606
373.585
373.572
373.56
373.555
373.548
373.546
373.544
373.546
373.548
373.554
373.561
373.571
373.583
373.596
373.611
373.628
373.646
373.666
373.687
373.709
373.733
373.758
373.784
373.812
373.84
373.869
373.9
373.932
373.964
373.997
374.032
374.067
374.103
374.14
374.178
374.217
374.257
374.297
374.338
374.379
374.421
374.463
374.506
374.549
374.593
374.637
374.681
374.725
374.769
374.814
374.859
374.905
374.953
375.002
375.053
375.105
375.158
375.212
375.266
375.322
375.378
375.43
375.484
375.538
375.59
375.644
375.699
375.756
375.813
375.87
375.926
375.982
376.037
376.092
376.146
376.201
376.257
376.313
376.369
376.424
376.476
376.525
376.57
376.602
376.682
373.66
373.631
373.606
373.585
373.572
373.56
373.555
373.548
373.546
373.544
373.546
373.548
373.554
373.561
373.571
373.583
373.596
373.611
373.628
373.646
373.666
373.687
373.709
373.733
373.758
373.784
373.812
373.84
373.869
373.9
373.932
373.964
373.997
374.032
374.067
374.103
374.14
374.178
374.217
374.257
374.297
374.338
374.379
374.421
374.463
374.506
374.549
374.593
374.637
374.681
374.725
374.769
374.814
374.859
374.905
374.953
375.002
375.053
375.105
375.158
375.212
375.266
375.322
375.378
375.43
375.484
375.538
375.591
375.645
375.7
375.756
375.813
375.87
375.926
375.982
376.037
376.092
376.146
376.202
376.257
376.314
376.369
376.425
376.478
376.528
376.577
376.617
376.708
373.66
373.631
373.606
373.585
373.572
373.56
373.555
373.548
373.546
373.544
373.546
373.548
373.554
373.561
373.571
373.583
373.596
373.611
373.628
373.646
373.666
373.687
373.709
373.733
373.758
373.784
373.812
373.84
373.869
373.9
373.932
373.964
373.997
374.032
374.067
374.103
374.14
374.178
374.217
374.257
374.297
374.338
374.379
374.421
374.463
374.506
374.549
374.593
374.637
374.681
374.725
374.769
374.814
374.859
374.906
374.953
375.002
375.053
375.105
375.158
375.212
375.266
375.322
375.378
375.43
375.484
375.538
375.591
375.645
375.7
375.756
375.813
375.87
375.927
375.982
376.037
376.092
376.146
376.202
376.258
376.314
376.371
376.426
376.481
376.532
376.587
376.636
376.737
373.66
373.631
373.606
373.585
373.572
373.56
373.555
373.548
373.546
373.544
373.546
373.548
373.554
373.561
373.571
373.583
373.596
373.611
373.628
373.646
373.666
373.687
373.709
373.733
373.758
373.784
373.812
373.84
373.869
373.9
373.932
373.964
373.997
374.032
374.067
374.103
374.14
374.178
374.217
374.257
374.297
374.338
374.379
374.421
374.463
374.506
374.549
374.593
374.637
374.681
374.725
374.769
374.814
374.859
374.906
374.953
375.002
375.053
375.105
375.158
375.212
375.266
375.322
375.378
375.431
375.484
375.538
375.591
375.645
375.7
375.756
375.813
375.87
375.927
375.982
376.037
376.092
376.147
376.202
376.258
376.315
376.372
376.428
376.484
376.537
376.598
376.658
376.764
373.66
373.631
373.606
373.585
373.572
373.56
373.555
373.548
373.546
373.544
373.546
373.548
373.554
373.561
373.571
373.583
373.596
373.611
373.628
373.646
373.666
373.687
373.709
373.733
373.758
373.784
373.812
373.84
373.869
373.9
373.932
373.964
373.997
374.032
374.067
374.103
374.14
374.178
374.217
374.257
374.297
374.338
374.379
374.421
374.463
374.506
374.549
374.593
374.637
374.681
374.725
374.769
374.814
374.859
374.906
374.953
375.003
375.053
375.105
375.159
375.212
375.266
375.322
375.379
375.431
375.485
375.538
375.591
375.645
375.701
375.757
375.814
375.87
375.927
375.982
376.037
376.092
376.147
376.202
376.259
376.316
376.373
376.43
376.488
376.545
376.612
376.681
376.791
373.66
373.631
373.606
373.585
373.572
373.56
373.555
373.548
373.546
373.544
373.546
373.548
373.554
373.561
373.571
373.583
373.596
373.611
373.628
373.646
373.666
373.687
373.709
373.733
373.758
373.784
373.812
373.84
373.869
373.9
373.932
373.964
373.997
374.032
374.067
374.103
374.14
374.178
374.217
374.257
374.297
374.338
374.379
374.421
374.463
374.506
374.549
374.593
374.637
374.681
374.725
374.769
374.814
374.859
374.906
374.953
375.003
375.053
375.106
375.159
375.213
375.267
375.323
375.379
375.431
375.485
375.539
375.592
375.646
375.701
375.757
375.814
375.87
375.927
375.982
376.037
376.092
376.147
376.203
376.26
376.317
376.375
376.433
376.494
376.554
376.625
376.704
376.811
373.66
373.631
373.606
373.585
373.572
373.56
373.555
373.548
373.546
373.544
373.546
373.548
373.554
373.561
373.571
373.583
373.596
373.611
373.628
373.646
373.666
373.687
373.709
373.733
373.758
373.784
373.812
373.84
373.869
373.9
373.932
373.964
373.997
374.032
374.067
374.103
374.14
374.178
374.217
374.257
374.297
374.338
374.379
374.421
374.464
374.506
374.549
374.593
374.637
374.681
374.725
374.769
374.814
374.859
374.906
374.954
375.003
375.054
375.106
375.159
375.213
375.267
375.323
375.379
375.432
375.485
375.539
375.592
375.647
375.702
375.758
375.814
375.871
375.927
375.982
376.037
376.092
376.147
376.203
376.26
376.318
376.377
376.436
376.499
376.563
376.637
376.72
376.823
373.66
373.631
373.606
373.585
373.572
373.56
373.555
373.548
373.546
373.544
373.546
373.548
373.554
373.561
373.571
373.583
373.596
373.611
373.628
373.646
373.666
373.687
373.709
373.733
373.758
373.784
373.812
373.84
373.869
373.9
373.932
373.964
373.997
374.032
374.067
374.103
374.14
374.178
374.217
374.257
374.297
374.338
374.379
374.421
374.464
374.506
374.549
374.593
374.637
374.681
374.725
374.769
374.814
374.86
374.906
374.954
375.003
375.054
375.106
375.159
375.213
375.267
375.323
375.38
375.432
375.486
375.539
375.593
375.647
375.702
375.758
375.814
375.871
375.926
375.982
376.037
376.092
376.147
376.204
376.261
376.319
376.379
376.439
376.503
376.571
376.645
376.729
376.824
373.66
373.631
373.606
373.585
373.572
373.56
373.555
373.548
373.546
373.544
373.546
373.548
373.554
373.561
373.571
373.583
373.596
373.611
373.628
373.646
373.666
373.687
373.709
373.733
373.758
373.784
373.812
373.84
373.869
373.9
373.932
373.964
373.998
374.032
374.067
374.103
374.141
374.178
374.217
374.257
374.297
374.338
374.379
374.421
374.464
374.506
374.55
374.593
374.637
374.681
374.725
374.77
374.814
374.86
374.906
374.954
375.004
375.054
375.107
375.16
375.213
375.268
375.324
375.381
375.433
375.486
375.54
375.594
375.648
375.703
375.759
375.815
375.871
375.926
375.982
376.037
376.092
376.147
376.204
376.261
376.32
376.38
376.441
376.506
376.574
376.647
376.727
376.812
373.66
373.631
373.606
373.585
373.572
373.56
373.555
373.548
373.546
373.544
373.546
373.548
373.554
373.561
373.571
373.583
373.596
373.611
373.628
373.646
373.666
373.687
373.709
373.733
373.758
373.784
373.812
373.84
373.869
373.9
373.932
373.964
373.998
374.032
374.067
374.103
374.141
374.179
374.217
374.257
374.297
374.338
374.379
374.421
374.464
374.506
374.55
374.593
374.637
374.681
374.725
374.77
374.815
374.86
374.907
374.955
375.004
375.055
375.107
375.16
375.214
375.268
375.324
375.381
375.434
375.487
375.541
375.595
375.649
375.704
375.759
375.815
375.871
375.926
375.981
376.036
376.091
376.147
376.203
376.261
376.32
376.379
376.441
376.505
376.572
376.641
376.715
376.789
373.66
373.631
373.606
373.585
373.572
373.56
373.555
373.548
373.546
373.544
373.546
373.548
373.554
373.561
373.571
373.583
373.596
373.611
373.628
373.646
373.666
373.687
373.709
373.733
373.758
373.784
373.812
373.84
373.869
373.9
373.932
373.964
373.998
374.032
374.067
374.103
374.141
374.179
374.217
374.257
374.297
374.338
374.379
374.421
374.464
374.507
374.55
374.593
374.637
374.681
374.725
374.77
374.815
374.861
374.907
374.955
375.005
375.056
375.108
375.161
375.214
375.269
375.325
375.382
375.435
375.488
375.542
375.596
375.65
375.705
375.76
375.815
375.87
375.926
375.98
376.035
376.091
376.146
376.203
376.26
376.318
376.377
376.437
376.499
376.563
376.627
376.693
376.758
373.66
373.631
373.606
373.585
373.572
373.56
373.555
373.548
373.546
373.544
373.546
373.548
373.554
373.561
373.571
373.583
373.596
373.611
373.628
373.646
373.666
373.687
373.709
373.733
373.758
373.784
373.812
373.84
373.869
373.9
373.932
373.964
373.998
374.032
374.067
374.103
374.141
374.179
374.217
374.257
374.297
374.338
374.379
374.421
374.464
374.507
374.55
374.593
374.637
374.681
374.726
374.77
374.815
374.861
374.908
374.956
375.005
375.056
375.108
375.161
375.215
375.269
375.326
375.383
375.436
375.489
375.543
375.597
375.651
375.705
375.76
375.815
375.87
375.925
375.98
376.034
376.089
376.145
376.2
376.257
376.314
376.371
376.43
376.488
376.548
376.607
376.665
376.721
373.66
373.631
373.606
373.585
373.572
373.56
373.555
373.548
373.546
373.544
373.546
373.548
373.554
373.561
373.571
373.583
373.596
373.611
373.628
373.646
373.666
373.687
373.709
373.733
373.758
373.784
373.812
373.84
373.869
373.9
373.932
373.964
373.998
374.032
374.067
374.104
374.141
374.179
374.217
374.257
374.297
374.338
374.38
374.422
374.464
374.507
374.55
374.594
374.637
374.681
374.726
374.771
374.816
374.862
374.909
374.957
375.006
375.057
375.109
375.162
375.216
375.27
375.327
375.385
375.437
375.49
375.544
375.598
375.652
375.706
375.76
375.815
375.869
375.924
375.978
376.033
376.087
376.142
376.197
376.252
376.307
376.363
376.418
376.473
376.528
376.582
376.634
376.684
373.66
373.631
373.606
373.585
373.572
373.56
373.555
373.548
373.546
373.544
373.546
373.548
373.554
373.561
373.571
373.583
373.596
373.611
373.628
373.646
373.666
373.687
373.709
373.733
373.758
373.784
373.812
373.84
373.87
373.9
373.932
373.964
373.998
374.032
374.067
374.104
374.141
374.179
374.218
374.257
374.297
374.338
374.38
374.422
374.464
374.507
374.55
374.594
374.638
374.682
374.726
374.771
374.816
374.863
374.91
374.958
375.008
375.059
375.111
375.164
375.217
375.271
375.328
375.386
375.438
375.491
375.545
375.599
375.653
375.707
375.761
375.815
375.869
375.923
375.976
376.03
376.084
376.138
376.191
376.245
376.298
376.351
376.404
376.456
376.507
376.557
376.605
376.652
373.659
373.631
373.606
373.585
373.572
373.56
373.555
373.548
373.546
373.544
373.546
373.548
373.554
373.561
373.572
373.583
373.596
373.611
373.628
373.646
373.666
373.687
373.709
373.733
373.758
373.784
373.812
373.84
373.87
373.9
373.932
373.964
373.998
374.032
374.067
374.104
374.141
374.179
374.218
374.257
374.297
374.338
374.38
374.422
374.464
374.507
374.55
374.594
374.638
374.682
374.727
374.772
374.817
374.864
374.911
374.959
375.009
375.06
375.112
375.165
375.218
375.273
375.329
375.387
375.439
375.493
375.546
375.6
375.653
375.707
375.76
375.814
375.868
375.921
375.974
376.027
376.08
376.132
376.184
376.236
376.288
376.339
376.389
376.439
376.488
376.535
376.582
376.627
373.659
373.631
373.606
373.585
373.572
373.56
373.555
373.548
373.546
373.544
373.546
373.548
373.554
373.561
373.572
373.583
373.596
373.611
373.628
373.646
373.666
373.687
373.709
373.733
373.758
373.784
373.812
373.84
373.87
373.9
373.932
373.964
373.998
374.032
374.068
374.104
374.141
374.179
374.218
374.257
374.298
374.339
374.38
374.422
374.464
374.507
374.551
374.594
374.638
374.683
374.727
374.773
374.818
374.865
374.912
374.961
375.011
375.062
375.114
375.166
375.22
375.274
375.331
375.389
375.441
375.494
375.547
375.601
375.654
375.707
375.76
375.813
375.866
375.919
375.971
376.023
376.075
376.126
376.177
376.228
376.278
376.328
376.377
376.425
376.473
376.52
376.567
376.612
373.659
373.632
373.607
373.585
373.572
373.56
373.555
373.548
373.546
373.544
373.546
373.548
373.554
373.561
373.572
373.583
373.597
373.611
373.628
373.646
373.666
373.687
373.71
373.733
373.758
373.784
373.812
373.84
373.87
373.9
373.932
373.964
373.998
374.032
374.068
374.104
374.141
374.179
374.218
374.257
374.298
374.339
374.38
374.422
374.465
374.508
374.551
374.595
374.639
374.683
374.728
374.773
374.82
374.866
374.914
374.963
375.013
375.064
375.116
375.168
375.222
375.276
375.332
375.39
375.442
375.495
375.549
375.602
375.655
375.707
375.76
375.813
375.865
375.917
375.969
376.02
376.071
376.121
376.172
376.222
376.271
376.32
376.369
376.417
376.465
376.513
376.56
376.607
373.659
373.632
373.607
373.585
373.572
373.56
373.555
373.548
373.546
373.544
373.546
373.548
373.554
373.561
373.572
373.583
373.597
373.611
373.628
373.646
373.666
373.687
373.71
373.733
373.758
373.784
373.812
373.84
373.87
373.9
373.932
373.964
373.998
374.032
374.068
374.104
374.141
374.179
374.218
374.258
374.298
374.339
374.38
374.422
374.465
374.508
374.551
374.595
374.639
374.684
374.729
374.775
374.821
374.868
374.916
374.965
375.015
375.066
375.118
375.17
375.224
375.278
375.334
375.392
375.444
375.497
375.55
375.603
375.656
375.708
375.76
375.812
375.864
375.916
375.967
376.018
376.068
376.119
376.169
376.218
376.268
376.317
376.366
376.415
376.463
376.512
376.56
376.608
373.659
373.632
373.607
373.585
373.572
373.56
373.555
373.548
373.546
373.544
373.546
373.548
373.554
373.561
373.572
373.583
373.597
373.611
373.628
373.646
373.666
373.687
373.71
373.733
373.758
373.784
373.812
373.84
373.87
373.9
373.932
373.964
373.998
374.032
374.068
374.104
374.141
374.179
374.218
374.258
374.298
374.339
374.38
374.423
374.465
374.508
374.551
374.595
374.64
374.684
374.73
374.776
374.822
374.87
374.918
374.967
375.017
375.068
375.12
375.172
375.226
375.28
375.336
375.394
375.446
375.499
375.552
375.605
375.657
375.709
375.761
375.813
375.865
375.916
375.967
376.018
376.069
376.119
376.169
376.219
376.269
376.319
376.368
376.418
376.467
376.517
376.566
376.615
373.659
373.632
373.607
373.585
373.572
373.56
373.555
373.548
373.546
373.544
373.546
373.548
373.554
373.561
373.572
373.583
373.597
373.611
373.628
373.646
373.666
373.687
373.71
373.733
373.758
373.784
373.812
373.84
373.87
373.9
373.932
373.964
373.998
374.032
374.068
374.104
374.141
374.179
374.218
374.258
374.298
374.339
374.38
374.422
374.465
374.508
374.552
374.596
374.64
374.685
374.73
374.776
374.823
374.871
374.919
374.969
375.019
375.07
375.122
375.174
375.227
375.281
375.338
375.396
375.448
375.501
375.554
375.607
375.66
375.712
375.764
375.816
375.868
375.919
375.971
376.022
376.073
376.123
376.174
376.224
376.274
376.325
376.375
376.425
376.475
376.524
376.574
376.624
373.659
373.632
373.607
373.585
373.572
373.56
373.555
373.548
373.546
373.544
373.546
373.548
373.554
373.561
373.572
373.583
373.597
373.611
373.628
373.646
373.666
373.687
373.71
373.733
373.758
373.784
373.812
373.84
373.87
373.9
373.932
373.964
373.998
374.032
374.068
374.104
374.141
374.179
374.218
374.258
374.298
374.339
374.38
374.422
374.465
374.508
374.552
374.596
374.64
374.685
374.731
374.777
374.824
374.872
374.921
374.97
375.02
375.071
375.123
375.176
375.229
375.283
375.34
375.398
375.45
375.504
375.557
375.61
375.663
375.716
375.768
375.82
375.872
375.924
375.976
376.027
376.078
376.13
376.18
376.231
376.282
376.332
376.383
376.433
376.484
376.534
376.584
376.634
373.659
373.632
373.607
373.585
373.572
373.56
373.555
373.548
373.546
373.544
373.546
373.548
373.555
373.561
373.572
373.582
373.597
373.611
373.628
373.646
373.666
373.687
373.71
373.733
373.758
373.784
373.812
373.84
373.87
373.9
373.932
373.964
373.998
374.032
374.068
374.104
374.141
374.179
374.218
374.257
374.298
374.339
374.38
374.422
374.465
374.508
374.551
374.595
374.64
374.685
374.731
374.777
374.825
374.872
374.921
374.971
375.021
375.072
375.124
375.177
375.231
375.285
375.342
375.4
375.453
375.507
375.56
375.614
375.667
375.72
375.773
375.826
375.878
375.931
375.983
376.035
376.086
376.138
376.189
376.24
376.291
376.342
376.393
376.444
376.495
376.545
376.595
376.645
373.659
373.632
373.607
373.585
373.572
373.56
373.555
373.548
373.547
373.544
373.546
373.548
373.555
373.561
373.572
373.582
373.597
373.611
373.629
373.646
373.666
373.686
373.71
373.733
373.758
373.784
373.812
373.84
373.87
373.9
373.932
373.964
373.998
374.032
374.067
374.103
374.141
374.179
374.218
374.257
374.297
374.338
374.38
374.422
374.464
374.507
374.551
374.595
374.64
374.685
374.731
374.777
374.825
374.873
374.922
374.971
375.022
375.073
375.125
375.178
375.232
375.286
375.344
375.403
375.456
375.51
375.564
375.619
375.672
375.726
375.779
375.833
375.886
375.939
375.992
376.044
376.096
376.148
376.2
376.252
376.303
376.355
376.406
376.457
376.508
376.559
376.609
376.659
373.659
373.631
373.607
373.584
373.573
373.56
373.555
373.548
373.547
373.543
373.546
373.548
373.555
373.561
373.572
373.582
373.597
373.611
373.629
373.646
373.666
373.686
373.71
373.732
373.758
373.784
373.812
373.839
373.87
373.9
373.932
373.964
373.998
374.032
374.067
374.103
374.141
374.178
374.217
374.257
374.297
374.338
374.379
374.421
374.464
374.507
374.55
374.594
374.639
374.684
374.73
374.777
374.824
374.872
374.921
374.971
375.022
375.073
375.126
375.179
375.233
375.288
375.346
375.405
375.459
375.514
375.569
375.624
375.678
375.733
375.787
375.841
375.895
375.949
376.002
376.056
376.109
376.161
376.214
376.266
376.318
376.37
376.422
376.473
376.525
376.576
376.627
376.677
373.659
373.631
373.607
373.584
373.573
373.559
373.555
373.548
373.547
373.543
373.546
373.547
373.555
373.561
373.572
373.582
373.597
373.61
373.629
373.645
373.666
373.686
373.71
373.732
373.758
373.783
373.812
373.839
373.87
373.899
373.932
373.963
373.997
374.031
374.067
374.103
374.14
374.178
374.217
374.256
374.297
374.337
374.379
374.421
374.463
374.506
374.55
374.594
374.639
374.684
374.73
374.776
374.824
374.872
374.921
374.971
375.022
375.073
375.126
375.179
375.233
375.289
375.347
375.407
375.462
375.517
375.573
375.629
375.685
375.74
375.795
375.85
375.905
375.96
376.014
376.068
376.122
376.176
376.229
376.282
376.335
376.388
376.44
376.492
376.544
376.596
376.647
376.698
373.66
373.631
373.607
373.584
373.573
373.559
373.555
373.547
373.547
373.543
373.546
373.547
373.555
373.56
373.572
373.582
373.597
373.61
373.629
373.645
373.666
373.686
373.71
373.732
373.758
373.783
373.812
373.839
373.87
373.899
373.932
373.963
373.997
374.031
374.067
374.102
374.14
374.177
374.217
374.255
374.296
374.336
374.378
374.42
374.463
374.505
374.549
374.593
374.638
374.683
374.729
374.776
374.823
374.871
374.92
374.97
375.021
375.073
375.126
375.179
375.234
375.289
375.348
375.409
375.464
375.521
375.577
375.634
375.691
375.747
375.803
375.859
375.915
375.97
376.026
376.081
376.135
376.19
376.244
376.298
376.351
376.405
376.458
376.51
376.563
376.615
376.667
376.719
373.66
373.631
373.607
373.584
373.573
373.559
373.555
373.547
373.547
373.543
373.546
373.547
373.555
373.56
373.572
373.582
373.597
373.61
373.629
373.645
373.667
373.686
373.71
373.732
373.758
373.783
373.812
373.838
373.87
373.899
373.932
373.963
373.997
374.03
374.067
374.102
374.14
374.177
374.217
374.255
374.296
374.336
374.378
374.419
374.463
374.505
374.549
374.592
374.638
374.682
374.729
374.775
374.823
374.87
374.92
374.97
375.021
375.073
375.126
375.179
375.234
375.289
375.349
375.41
375.466
375.523
375.581
375.638
375.696
375.753
375.81
375.867
375.923
375.98
376.036
376.092
376.147
376.202
376.257
376.312
376.366
376.42
376.474
376.528
376.581
376.634
376.686
376.738
373.66
373.631
373.607
373.584
373.573
373.559
373.555
373.547
373.547
373.543
373.546
373.547
373.555
373.56
373.572
373.581
373.597
373.61
373.629
373.645
373.667
373.685
373.71
373.731
373.758
373.782
373.812
373.838
373.87
373.898
373.932
373.962
373.997
374.03
374.067
374.101
374.14
374.176
374.216
374.255
374.296
374.335
374.378
374.419
374.462
374.504
374.549
374.592
374.637
374.682
374.728
374.774
374.822
374.87
374.919
374.969
375.02
375.072
375.125
375.179
375.234
375.29
375.349
375.411
375.467
375.525
375.584
375.642
375.7
375.758
375.816
375.874
375.931
375.988
376.045
376.102
376.158
376.214
376.269
376.325
376.38
376.434
376.489
376.543
376.597
376.651
376.704
376.756
373.66
373.631
373.607
373.584
373.573
373.559
373.555
373.547
373.547
373.543
373.546
373.547
373.555
373.56
373.572
373.581
373.597
373.61
373.629
373.645
373.667
373.685
373.71
373.731
373.759
373.782
373.812
373.838
373.87
373.898
373.932
373.962
373.997
374.03
374.067
374.101
374.14
374.176
374.216
374.254
374.296
374.335
374.378
374.418
374.462
374.504
374.548
374.591
374.637
374.681
374.728
374.773
374.822
374.869
374.919
374.968
375.02
375.072
375.125
375.179
375.234
375.289
375.349
375.411
375.468
375.527
375.586
375.645
375.704
375.763
375.821
375.88
375.938
375.995
376.053
376.11
376.167
376.224
376.28
376.336
376.391
376.447
376.502
376.557
376.611
376.665
376.719
376.772
373.66
373.631
373.607
373.584
373.573
373.559
373.555
373.547
373.547
373.543
373.546
373.547
373.555
373.56
373.572
373.581
373.597
373.61
373.629
373.644
373.667
373.685
373.71
373.731
373.759
373.782
373.812
373.838
373.87
373.898
373.932
373.962
373.997
374.029
374.067
374.101
374.14
374.176
374.216
374.254
374.296
374.334