/*--------------------------------*- C++ -*----------------------------------*\
| =========                 |                                                 |
| \\      /  F ield         | OpenFOAM: The Open Source CFD Toolbox           |
|  \\    /   O peration     | Version:  2306                                  |
|   \\  /    A nd           | Website:  www.openfoam.com                      |
|    \\/     M anipulation  |                                                 |
\*---------------------------------------------------------------------------*/
FoamFile
{
    version     2.0;
    format      ascii;
    arch        "LSB;label=32;scalar=64";
    class       volScalarField;
    location    "700";
    object      nut;
}
// * * * * * * * * * * * * * * * * * * * * * * * * * * * * * * * * * * * * * //

dimensions      [0 2 -1 0 0 0 0];

internalField   uniform 0;

boundaryField
{
    inlet
    {
        type            calculated;
        value           uniform 0;
    }
    outlet
    {
        type            calculated;
        value           uniform 0;
    }
    lowerWallStartup
    {
        type            symmetryPlane;
    }
    upperWallStartup
    {
        type            symmetryPlane;
    }
    upperWall
    {
        type            nutUBlendedWallFunction;
        value           nonuniform List<scalar> 
218
(
1.1917e-08
4.12619e-09
3.15423e-09
2.67756e-09
2.44327e-09
2.19824e-09
2.09622e-09
1.92347e-09
1.88332e-09
1.74798e-09
1.7387e-09
1.61923e-09
1.62551e-09
1.51547e-09
1.53132e-09
1.42891e-09
1.44951e-09
1.35335e-09
1.37436e-09
1.28348e-09
1.30156e-09
1.21541e-09
1.22826e-09
1.14641e-09
1.15305e-09
1.07514e-09
1.07701e-09
1.00307e-09
9.88841e-10
9.32019e-10
9.31391e-10
8.68865e-10
8.69518e-10
7.97031e-10
8.13821e-10
7.5256e-10
7.67e-10
6.96824e-10
7.13166e-10
6.31642e-10
6.45556e-10
4.80771e-10
5.6663e-10
3.95925e-10
4.44871e-10
1.97063e-10
2.27966e-10
0
0
0
0
0
0
0
1.51819e-06
0
1.78181e-09
5.54861e-09
6.30776e-10
1.81501e-10
5.5893e-10
6.7714e-10
8.77729e-10
1.26853e-09
1.54726e-09
1.76758e-09
1.81667e-09
1.95744e-09
2.05795e-09
2.01794e-09
2.02998e-09
1.93202e-09
2.15336e-09
2.06139e-09
2.29144e-09
2.26259e-09
2.17983e-09
2.13127e-09
2.1559e-09
2.296e-09
2.19608e-09
2.45178e-09
2.08712e-09
2.17631e-09
1.6829e-09
1.73895e-09
1.52683e-09
1.41567e-09
1.1912e-09
9.83827e-10
8.8286e-10
1.87197e-10
0
0
0
0
0
0
9.87453e-10
0
1.52283e-09
4.46046e-10
1.73444e-09
7.67165e-10
1.83356e-09
1.04261e-09
1.90079e-09
1.15882e-09
1.87111e-09
1.06148e-09
1.78137e-09
9.9403e-10
1.71494e-09
1.02081e-09
1.75067e-09
1.16685e-09
1.91706e-09
1.40844e-09
2.10183e-09
1.57676e-09
2.13586e-09
1.51478e-09
1.98944e-09
1.3159e-09
1.80985e-09
1.19309e-09
1.71131e-09
1.14208e-09
1.64102e-09
9.89392e-10
1.45526e-09
6.47017e-10
1.11785e-09
3.87922e-10
8.60032e-10
7.20123e-10
1.16048e-09
1.17666e-09
1.67314e-09
1.45446e-09
2.01952e-09
1.57939e-09
2.23554e-09
1.64157e-09
2.35735e-09
1.64673e-09
2.42931e-09
1.64751e-09
2.53793e-09
1.77102e-09
2.71624e-09
2.07546e-09
2.96094e-09
2.52139e-09
3.05277e-09
3.04137e-09
2.96951e-09
3.04912e-09
4.28506e-09
2.54966e-09
3.95509e-09
7.74404e-09
1.21757e-08
1.21248e-08
1.11972e-08
7.72318e-09
5.25514e-09
1.83776e-09
0
1.18995e-09
0
0
1.79524e-09
3.59555e-09
7.00904e-09
7.7337e-09
8.80142e-09
7.86238e-09
7.76646e-09
6.85423e-09
6.7466e-09
6.76903e-09
7.25709e-09
8.01804e-09
9.30684e-09
1.01997e-08
1.22531e-08
1.43423e-08
1.66162e-08
1.82948e-08
1.98934e-08
2.05618e-08
1.93049e-08
1.64218e-08
1.2642e-08
8.83687e-09
6.07157e-09
5.4432e-09
5.93983e-09
9.67484e-09
1.67976e-08
1.76025e-08
4.19442e-08
2.7657e-08
1.1648e-07
7.57548e-08
3.09072e-07
6.45618e-07
6.69035e-07
1.24636e-07
1.61291e-07
2.1217e-08
4.60701e-09
8.07698e-08
1.64345e-07
1.17247e-07
0
0
)
;
    }
    lowerWall
    {
        type            nutUBlendedWallFunction;
        value           nonuniform List<scalar> 
266
(
1.28916e-08
4.43979e-09
3.36659e-09
2.88399e-09
2.59617e-09
2.37272e-09
2.21763e-09
2.07933e-09
1.98488e-09
1.89247e-09
1.82626e-09
1.75498e-09
1.70179e-09
1.6434e-09
1.59853e-09
1.54931e-09
1.50943e-09
1.46593e-09
1.42823e-09
1.38761e-09
1.35013e-09
1.31034e-09
1.27191e-09
1.23163e-09
1.19188e-09
1.15034e-09
1.11095e-09
1.06901e-09
1.00311e-09
9.74461e-10
9.53233e-10
9.21685e-10
8.87471e-10
8.58107e-10
8.29599e-10
8.03049e-10
7.77881e-10
7.54262e-10
7.32405e-10
7.12059e-10
6.93479e-10
6.77187e-10
6.63942e-10
6.54908e-10
6.51614e-10
6.56297e-10
6.7192e-10
7.01884e-10
7.52022e-10
8.15792e-10
9.05073e-10
9.83573e-10
1.15251e-09
1.6549e-09
1.16747e-07
0.065176
0
0
1.63335e-10
3.90211e-10
4.39726e-10
7.65921e-10
1.10645e-09
1.48861e-09
1.67251e-09
1.71002e-09
1.69108e-09
1.83525e-09
1.97535e-09
2.22035e-09
2.41932e-09
2.66699e-09
2.73377e-09
2.82699e-09
2.7304e-09
2.72009e-09
2.64665e-09
2.70133e-09
2.7383e-09
2.86531e-09
2.86113e-09
2.90911e-09
2.11356e-09
1.29045e-09
4.8148e-10
0
0
1.33591e-08
0.000263607
0
0
0
0
0
0
0
0
0
0
0
0
0
0
0
0
0
1.52091e-06
2.04802e-06
2.11579e-06
1.78501e-06
1.11869e-06
0
0
0
0
3.88338e-07
4.92563e-06
1.92049e-06
6.823e-06
0
4.75602e-07
0
0
3.35156e-06
1.03664e-05
1.51948e-05
1.83914e-05
1.99831e-05
2.06944e-05
2.10118e-05
2.11253e-05
2.08993e-05
2.03756e-05
1.97355e-05
1.93302e-05
1.88911e-05
0
3.50666e-10
8.77855e-10
1.52086e-09
1.8281e-09
1.47557e-09
2.38244e-09
4.71962e-09
3.81781e-09
0.0668523
1.28749e-09
1.55727e-09
1.56961e-09
2.99587e-10
0
1.03239e-09
1.04321e-09
7.14143e-10
2.52029e-09
3.80251e-09
4.64508e-09
5.15305e-09
5.41155e-09
5.50952e-09
5.5517e-09
5.55636e-09
5.52351e-09
5.41027e-09
5.22261e-09
4.97692e-09
4.73061e-09
4.75132e-09
5.7752e-09
5.97674e-09
3.62263e-09
0
0
1.76161e-09
2.2695e-09
1.87958e-09
8.26223e-10
2.30544e-09
5.10753e-09
0
4.4247e-09
2.66859e-09
0
0
1.20489e-10
7.37399e-10
1.09727e-09
0
1.85483e-10
0.000114861
0
0
2.18566e-09
3.97427e-09
5.32235e-09
6.16247e-09
6.55619e-09
6.58326e-09
6.34724e-09
5.93843e-09
5.46237e-09
4.97146e-09
4.53673e-09
4.16778e-09
3.8782e-09
3.62057e-09
3.38768e-09
3.18116e-09
3.06186e-09
3.05385e-09
3.14208e-09
3.20966e-09
3.10854e-09
2.85977e-09
2.65533e-09
2.57325e-09
2.60213e-09
2.74696e-09
2.92932e-09
3.03993e-09
3.08352e-09
2.96289e-09
2.82614e-09
2.98574e-09
3.02104e-09
2.54394e-09
1.92707e-09
1.38773e-09
6.6982e-10
0
0
0
0
0
9.34414e-10
0
5.98797e-09
8.70537e-09
0
6.5252e-09
4.5832e-09
1.25762e-09
3.00638e-09
6.77136e-09
7.07136e-09
4.46692e-09
1.55088e-09
2.77919e-10
4.14072e-09
9.58078e-09
1.44761e-08
8.97003e-09
7.31211e-09
6.60793e-08
1.10934e-07
5.02572e-08
1.06628e-07
3.21963e-07
6.80633e-07
2.18797e-06
1.75744e-06
3.39894e-06
6.4025e-06
9.87169e-06
1.02291e-05
1.28823e-05
)
;
    }
    front
    {
        type            empty;
    }
    back
    {
        type            empty;
    }
}


// ************************************************************************* //
