/*--------------------------------*- C++ -*----------------------------------*\
| =========                 |                                                 |
| \\      /  F ield         | OpenFOAM: The Open Source CFD Toolbox           |
|  \\    /   O peration     | Version:  2306                                  |
|   \\  /    A nd           | Website:  www.openfoam.com                      |
|    \\/     M anipulation  |                                                 |
\*---------------------------------------------------------------------------*/
FoamFile
{
    version     2.0;
    format      ascii;
    arch        "LSB;label=32;scalar=64";
    class       volScalarField;
    location    "700";
    object      p;
}
// * * * * * * * * * * * * * * * * * * * * * * * * * * * * * * * * * * * * * //

dimensions      [0 2 -2 0 0 0 0];

internalField   nonuniform List<scalar> 
20540
(
365019
365013
365019
365013
365019
365013
365019
365013
365019
365013
365019
365013
365019
365013
365019
365013
365019
365013
365019
365013
365019
365013
365019
365013
365019
365013
365019
365013
365019
365013
365019
365013
365019
365013
365019
365013
365019
365013
365019
365013
365019
365013
365019
365013
365019
365012
365019
365012
365019
365012
365019
365012
365019
365012
365019
365012
365019
365012
365019
365012
365019
365011
365019
365011
365019
365011
365019
365011
365019
365011
365019
365011
365019
365012
365019
365012
365019
365012
365019
365012
365019
365012
365019
365012
365019
365012
365019
365012
365019
365012
365019
365012
365019
365012
365019
365012
365019
365012
365019
365012
365019
365012
365019
365012
365019
365012
365019
365012
365019
365012
365019
365012
365019
365012
365019
365012
365019
365012
365019
365012
365019
365012
365019
365012
365019
365012
365019
365012
365019
365012
364998
364970
364946
364925
364913
364901
364896
364889
364887
364885
364887
364889
364895
364902
364912
364923
364936
364951
364967
364985
365004
365025
365047
365070
365094
365120
365147
365174
365203
365233
365264
365296
365328
365362
365396
365432
365468
365505
365543
365581
365621
365661
365701
365742
365783
365825
365867
365910
365952
365995
366039
366082
366126
366170
366215
366261
366310
366359
366410
366462
366515
366567
366622
366676
366728
366780
366832
366884
366937
366990
367045
367101
367157
367212
367267
367320
367374
367426
367480
367534
367589
367642
367697
367744
367794
367818
367838
367775
364998
364970
364946
364925
364913
364901
364896
364889
364887
364885
364887
364889
364895
364902
364912
364923
364936
364951
364967
364985
365004
365025
365047
365070
365094
365120
365147
365174
365203
365233
365264
365296
365328
365362
365396
365432
365468
365505
365543
365581
365621
365661
365701
365742
365783
365825
365867
365910
365952
365995
366039
366082
366126
366170
366215
366261
366310
366359
366410
366462
366515
366567
366622
366676
366728
366780
366832
366884
366937
366990
367045
367101
367157
367212
367267
367320
367374
367426
367480
367534
367589
367642
367697
367744
367794
367818
367837
367780
364998
364970
364946
364925
364913
364901
364896
364889
364887
364885
364887
364889
364895
364902
364912
364923
364936
364951
364967
364985
365004
365025
365047
365070
365094
365120
365147
365174
365203
365233
365264
365296
365328
365362
365396
365432
365468
365505
365543
365581
365621
365661
365701
365742
365783
365825
365867
365910
365952
365995
366039
366082
366126
366170
366215
366261
366310
366359
366410
366462
366515
366567
366622
366676
366728
366780
366832
366884
366937
366990
367045
367101
367157
367212
367267
367320
367374
367426
367480
367534
367589
367642
367697
367744
367794
367818
367837
367788
364998
364970
364946
364925
364913
364901
364896
364889
364887
364885
364887
364889
364895
364902
364912
364923
364936
364951
364967
364985
365004
365025
365047
365070
365094
365120
365147
365174
365203
365233
365264
365296
365328
365362
365396
365432
365468
365505
365543
365581
365621
365661
365701
365742
365783
365825
365867
365910
365952
365995
366039
366082
366126
366170
366215
366261
366310
366359
366410
366462
366515
366567
366622
366676
366728
366780
366832
366884
366937
366990
367045
367101
367157
367212
367267
367320
367374
367426
367480
367534
367589
367642
367697
367744
367794
367819
367837
367798
364998
364970
364946
364925
364913
364901
364896
364889
364887
364885
364887
364889
364895
364902
364912
364923
364936
364951
364967
364985
365004
365025
365047
365070
365094
365120
365147
365174
365203
365233
365264
365296
365328
365362
365396
365432
365468
365505
365543
365581
365621
365661
365701
365742
365783
365825
365867
365910
365952
365995
366039
366082
366126
366170
366215
366261
366310
366359
366410
366462
366515
366567
366622
366676
366728
366780
366832
366884
366937
366990
367045
367101
367157
367212
367267
367320
367374
367426
367480
367534
367589
367642
367697
367744
367794
367819
367838
367810
364998
364970
364946
364925
364913
364901
364896
364889
364887
364885
364887
364889
364895
364902
364912
364923
364936
364951
364967
364985
365004
365025
365047
365070
365094
365120
365147
365174
365203
365233
365264
365296
365328
365362
365396
365432
365468
365505
365543
365581
365621
365661
365701
365742
365783
365825
365867
365910
365952
365995
366039
366082
366126
366170
366215
366261
366310
366359
366410
366462
366515
366567
366622
366676
366728
366780
366832
366884
366937
366990
367045
367101
367157
367212
367267
367320
367374
367426
367480
367534
367589
367642
367697
367744
367794
367820
367838
367825
364998
364970
364946
364925
364913
364901
364896
364889
364887
364885
364887
364889
364895
364902
364912
364923
364936
364951
364967
364985
365004
365025
365047
365070
365094
365120
365147
365174
365203
365233
365264
365296
365328
365362
365396
365432
365468
365505
365543
365581
365621
365661
365701
365742
365783
365825
365867
365910
365952
365995
366039
366082
366126
366170
366215
366261
366310
366359
366410
366462
366515
366567
366622
366676
366728
366780
366832
366884
366937
366990
367045
367101
367157
367212
367267
367320
367374
367426
367480
367534
367589
367643
367697
367745
367794
367821
367840
367842
364998
364970
364946
364925
364913
364901
364896
364889
364887
364885
364887
364889
364895
364902
364912
364923
364936
364951
364967
364985
365004
365025
365047
365070
365094
365120
365147
365174
365203
365233
365264
365296
365328
365362
365396
365432
365468
365505
365543
365581
365621
365661
365701
365742
365783
365825
365867
365910
365952
365995
366039
366082
366126
366170
366215
366261
366310
366359
366410
366462
366515
366567
366622
366676
366728
366780
366832
366884
366937
366990
367045
367101
367157
367212
367267
367320
367374
367427
367481
367534
367589
367643
367697
367745
367794
367823
367842
367860
364998
364970
364946
364925
364913
364901
364896
364889
364887
364885
364887
364889
364895
364902
364912
364923
364936
364951
364967
364985
365004
365025
365047
365070
365094
365120
365147
365174
365203
365233
365264
365296
365328
365362
365396
365432
365468
365505
365543
365581
365621
365661
365701
365742
365783
365825
365867
365910
365952
365995
366039
366082
366126
366170
366215
366261
366310
366359
366410
366462
366515
366567
366622
366676
366728
366780
366833
366884
366937
366990
367045
367101
367157
367212
367267
367320
367374
367427
367481
367534
367590
367643
367697
367746
367794
367826
367847
367880
364998
364970
364946
364925
364913
364901
364896
364889
364887
364885
364887
364889
364895
364902
364912
364923
364936
364951
364967
364985
365004
365025
365047
365070
365094
365120
365147
365174
365203
365233
365264
365296
365328
365362
365396
365432
365468
365505
365543
365581
365621
365661
365701
365742
365783
365825
365867
365910
365952
365995
366039
366082
366126
366170
366215
366261
366310
366359
366410
366462
366515
366567
366622
366676
366728
366780
366833
366884
366937
366990
367045
367101
367157
367212
367267
367320
367374
367427
367481
367535
367590
367643
367697
367746
367795
367830
367853
367902
364998
364970
364946
364925
364913
364901
364896
364889
364887
364885
364887
364889
364895
364902
364912
364923
364936
364951
364967
364985
365004
365025
365047
365070
365094
365120
365147
365174
365203
365233
365264
365296
365328
365362
365396
365432
365468
365505
365543
365581
365621
365661
365701
365742
365783
365825
365867
365910
365952
365995
366039
366082
366126
366170
366215
366261
366310
366359
366410
366462
366515
366567
366622
366676
366728
366780
366833
366884
366937
366991
367046
367101
367157
367212
367267
367320
367374
367427
367481
367535
367590
367644
367698
367748
367796
367835
367861
367926
364998
364970
364946
364925
364913
364901
364896
364889
364887
364885
364887
364889
364895
364902
364912
364923
364936
364951
364967
364985
365004
365025
365047
365070
365094
365120
365147
365174
365203
365233
365264
365296
365328
365362
365396
365432
365468
365505
365543
365581
365621
365661
365701
365742
365783
365825
365867
365910
365952
365995
366039
366082
366126
366170
366215
366262
366310
366359
366410
366462
366515
366567
366622
366676
366728
366780
366833
366884
366937
366991
367046
367101
367157
367212
367267
367320
367374
367427
367481
367535
367590
367644
367698
367749
367797
367841
367873
367950
364998
364970
364946
364925
364913
364901
364896
364889
364887
364885
364887
364889
364895
364902
364912
364923
364936
364951
364967
364985
365004
365025
365047
365070
365094
365120
365147
365174
365203
365233
365264
365296
365328
365362
365396
365432
365468
365505
365543
365581
365621
365661
365701
365742
365783
365825
365867
365910
365952
365995
366039
366082
366126
366170
366215
366262
366310
366359
366410
366462
366515
366567
366622
366677
366728
366780
366833
366884
366937
366991
367046
367102
367157
367213
367267
367320
367374
367427
367481
367536
367591
367645
367699
367751
367800
367848
367887
367976
364998
364970
364946
364925
364913
364901
364896
364889
364887
364885
364887
364889
364895
364902
364912
364923
364936
364951
364967
364985
365004
365025
365047
365070
365094
365120
365147
365174
365203
365233
365264
365296
365328
365362
365396
365432
365468
365505
365543
365581
365621
365661
365701
365742
365783
365825
365867
365910
365952
365995
366039
366082
366126
366170
366215
366262
366310
366359
366410
366462
366515
366567
366622
366677
366728
366780
366833
366885
366937
366991
367046
367102
367157
367213
367267
367320
367374
367427
367481
367536
367591
367646
367700
367754
367804
367858
367905
368004
364998
364970
364946
364925
364913
364901
364896
364889
364887
364885
364887
364889
364895
364902
364912
364923
364936
364951
364967
364985
365004
365025
365047
365070
365094
365120
365147
365174
365203
365233
365264
365296
365328
365362
365396
365432
365468
365505
365543
365581
365621
365661
365701
365742
365783
365825
365867
365910
365953
365995
366039
366082
366126
366170
366215
366262
366310
366359
366410
366462
366515
366568
366622
366677
366728
366781
366833
366885
366938
366991
367046
367102
367158
367213
367267
367321
367374
367427
367482
367537
367592
367648
367702
367757
367809
367869
367927
368031
364998
364970
364946
364925
364913
364901
364896
364889
364887
364885
364887
364889
364895
364902
364912
364923
364936
364951
364967
364985
365004
365025
365047
365070
365094
365120
365147
365174
365203
365233
365264
365296
365328
365362
365396
365432
365468
365505
365543
365581
365621
365661
365701
365742
365783
365825
365867
365910
365953
365995
366039
366082
366126
366170
366215
366262
366310
366360
366411
366462
366515
366568
366622
366677
366728
366781
366833
366885
366938
366992
367047
367102
367158
367213
367267
367321
367374
367428
367482
367537
367593
367649
367704
367761
367817
367882
367950
368057
364998
364970
364946
364925
364913
364901
364896
364889
364887
364885
364887
364889
364895
364902
364912
364923
364936
364951
364967
364985
365004
365025
365047
365070
365094
365120
365147
365174
365203
365233
365264
365296
365328
365362
365396
365432
365468
365505
365543
365581
365621
365661
365701
365742
365783
365825
365867
365910
365953
365996
366039
366082
366126
366170
366215
366262
366310
366360
366411
366463
366515
366568
366623
366678
366729
366781
366834
366886
366938
366992
367047
367102
367158
367213
367267
367320
367374
367428
367482
367538
367594
367651
367707
367766
367826
367895
367972
368077
364998
364970
364946
364925
364913
364901
364896
364889
364887
364885
364887
364889
364895
364902
364912
364923
364936
364951
364967
364985
365004
365025
365047
365070
365094
365120
365147
365174
365203
365233
365264
365296
365328
365362
365396
365432
365468
365505
365543
365581
365621
365661
365701
365742
365783
365825
365867
365910
365953
365996
366039
366082
366126
366170
366216
366262
366310
366360
366411
366463
366515
366568
366623
366678
366729
366782
366834
366886
366939
366993
367048
367103
367158
367213
367267
367320
367374
367428
367483
367539
367595
367653
367711
367772
367835
367907
367988
368088
364998
364970
364946
364925
364913
364901
364896
364889
364887
364885
364887
364889
364895
364902
364912
364923
364936
364951
364967
364985
365004
365025
365047
365070
365094
365120
365147
365174
365203
365233
365264
365296
365328
365362
365396
365432
365468
365505
365543
365582
365621
365661
365701
365742
365783
365825
365867
365910
365953
365996
366039
366082
366126
366170
366216
366262
366311
366360
366411
366463
366516
366568
366623
366679
366730
366782
366834
366887
366940
366994
367048
367103
367158
367212
367267
367320
367374
367428
367483
367539
367596
367654
367714
367776
367842
367915
367996
368089
364998
364970
364946
364925
364913
364901
364896
364889
364887
364885
364887
364889
364895
364902
364912
364923
364936
364951
364967
364985
365004
365025
365047
365070
365094
365120
365147
365174
365203
365233
365264
365296
365328
365362
365396
365432
365468
365505
365543
365582
365621
365661
365701
365742
365784
365825
365867
365910
365953
365996
366039
366082
366126
366171
366216
366263
366311
366361
366412
366463
366516
366569
366624
366679
366730
366783
366835
366888
366941
366994
367049
367103
367158
367212
367266
367320
367374
367428
367483
367540
367597
367655
367715
367778
367845
367916
367995
368078
364998
364970
364946
364925
364913
364901
364896
364889
364887
364885
364887
364889
364895
364902
364912
364923
364936
364951
364967
364985
365004
365025
365047
365070
365094
365120
365147
365174
365203
365233
365264
365296
365328
365362
365396
365432
365468
365505
365543
365582
365621
365661
365701
365742
365784
365825
365868
365910
365953
365996
366039
366083
366126
366171
366216
366263
366311
366361
366412
366464
366516
366569
366624
366680
366731
366783
366836
366888
366941
366995
367049
367104
367158
367212
367266
367320
367374
367428
367483
367539
367596
367655
367715
367777
367843
367911
367983
368056
364998
364970
364946
364925
364913
364901
364896
364889
364887
364885
364887
364889
364895
364902
364912
364923
364936
364951
364967
364985
365004
365025
365047
365070
365094
365120
365147
365174
365203
365233
365264
365296
365328
365362
365396
365432
365468
365505
365543
365582
365621
365661
365701
365742
365784
365825
365868
365910
365953
365996
366039
366083
366127
366171
366217
366264
366312
366362
366413
366464
366517
366570
366625
366681
366732
366784
366837
366889
366942
366996
367050
367104
367158
367212
367265
367319
367373
367427
367482
367538
367595
367653
367712
367772
367834
367897
367961
368025
364998
364970
364946
364925
364913
364901
364896
364889
364887
364885
364887
364889
364895
364902
364912
364923
364936
364951
364967
364985
365004
365025
365047
365070
365094
365120
365147
365174
365203
365233
365264
365296
365328
365362
365396
365432
365468
365505
365543
365582
365621
365661
365701
365742
365784
365826
365868
365910
365953
365996
366039
366083
366127
366172
366218
366264
366313
366363
366413
366465
366518
366571
366626
366682
366733
366785
366838
366890
366943
366996
367050
367104
367157
367211
367264
367318
367372
367426
367480
367535
367591
367647
367704
367761
367819
367877
367934
367989
364998
364970
364946
364925
364913
364901
364896
364889
364887
364885
364887
364889
364895
364902
364912
364923
364936
364951
364967
364985
365004
365025
365047
365070
365094
365120
365147
365174
365203
365233
365264
365296
365328
365362
365396
365432
365468
365505
365543
365582
365621
365661
365701
365742
365784
365826
365868
365910
365953
365996
366040
366083
366128
366172
366218
366265
366314
366364
366414
366466
366519
366572
366627
366683
366734
366786
366839
366891
366944
366997
367050
367104
367157
367210
367263
367316
367369
367423
367476
367530
367584
367638
367693
367747
367800
367853
367904
367953
364998
364970
364946
364925
364913
364901
364896
364889
364887
364885
364887
364889
364895
364902
364912
364923
364936
364951
364967
364985
365004
365025
365047
365070
365094
365120
365147
365174
365203
365233
365264
365296
365328
365362
365396
365432
365468
365505
365543
365582
365621
365661
365702
365743
365784
365826
365868
365911
365954
365997
366040
366084
366128
366173
366219
366266
366315
366365
366416
366467
366520
366573
366628
366684
366735
366788
366840
366892
366945
366998
367050
367103
367156
367209
367261
367314
367366
367419
367471
367523
367575
367627
367679
367730
367779
367828
367876
367921
364998
364971
364946
364925
364913
364901
364896
364889
364887
364885
364887
364889
364895
364902
364912
364923
364936
364951
364967
364985
365004
365025
365047
365070
365094
365120
365147
365174
365203
365233
365264
365296
365328
365362
365397
365432
365468
365505
365543
365582
365621
365661
365702
365743
365784
365826
365868
365911
365954
365997
366041
366085
366129
366174
366220
366268
366316
366366
366417
366469
366521
366574
366629
366686
366737
366789
366841
366893
366946
366998
367050
367103
367155
367207
367259
367311
367362
367413
367464
367515
367565
367615
367665
367713
367761
367807
367853
367897
364998
364971
364946
364925
364913
364901
364896
364889
364887
364885
364887
364889
364895
364902
364912
364923
364937
364951
364967
364985
365004
365025
365047
365070
365094
365120
365147
365174
365203
365233
365264
365296
365329
365362
365397
365432
365468
365505
365543
365582
365621
365661
365702
365743
365784
365826
365869
365911
365954
365997
366041
366085
366130
366175
366222
366269
366318
366368
366419
366470
366522
366575
366631
366687
366738
366790
366842
366894
366946
366998
367050
367102
367154
367205
367256
367307
367358
367408
367458
367507
367556
367604
367652
367700
367746
367793
367838
367883
364998
364971
364946
364925
364913
364901
364896
364889
364887
364885
364887
364889
364895
364902
364912
364923
364937
364951
364968
364985
365004
365025
365047
365070
365094
365120
365147
365175
365203
365233
365264
365296
365329
365362
365397
365432
365468
365506
365544
365582
365622
365662
365702
365743
365785
365827
365869
365912
365955
365998
366042
366086
366131
366177
366224
366271
366320
366370
366421
366472
366524
366577
366632
366689
366739
366791
366843
366895
366947
366999
367050
367101
367152
367203
367254
367304
367354
367403
367452
367501
367549
367597
367645
367692
367739
367785
367831
367877
364998
364971
364946
364925
364913
364901
364896
364889
364888
364885
364887
364889
364895
364902
364912
364923
364937
364951
364968
364985
365005
365025
365047
365070
365095
365120
365147
365175
365203
365233
365264
365296
365329
365362
365397
365432
365469
365506
365544
365582
365622
365662
365702
365743
365785
365827
365869
365912
365955
365999
366043
366087
366132
366178
366225
366273
366322
366372
366423
366474
366526
366579
366634
366690
366741
366793
366845
366896
366948
366999
367050
367101
367152
367202
367252
367302
367351
367400
367449
367498
367546
367594
367642
367689
367737
367784
367831
367878
364998
364971
364946
364925
364913
364901
364896
364889
364888
364885
364887
364889
364895
364902
364912
364923
364937
364951
364968
364985
365005
365025
365047
365070
365095
365120
365147
365175
365204
365233
365264
365296
365329
365362
365397
365432
365469
365506
365544
365582
365622
365662
365702
365743
365785
365827
365869
365912
365956
365999
366043
366088
366134
366180
366227
366275
366324
366374
366425
366476
366528
366581
366636
366692
366743
366795
366847
366898
366949
367000
367051
367102
367152
367203
367253
367302
367352
367401
367450
367499
367547
367596
367644
367693
367741
367789
367837
367885
364998
364971
364947
364925
364913
364901
364896
364889
364888
364885
364887
364889
364895
364902
364912
364923
364937
364951
364968
364985
365005
365025
365047
365070
365095
365120
365147
365175
365204
365233
365264
365296
365329
365362
365397
365432
365469
365506
365544
365582
365622
365662
365702
365743
365785
365827
365869
365912
365956
366000
366044
366089
366135
366181
366229
366277
366326
366376
366426
366478
366530
366582
366638
366694
366745
366797
366849
366900
366952
367003
367054
367105
367155
367206
367256
367306
367355
367405
367454
367503
367552
367601
367650
367699
367748
367797
367845
367894
364998
364971
364947
364925
364913
364901
364896
364889
364888
364885
364887
364889
364895
364902
364912
364923
364937
364951
364968
364985
365005
365025
365047
365070
365095
365120
365147
365174
365204
365233
365264
365296
365329
365362
365397
365432
365469
365506
365544
365582
365622
365662
365702
365743
365785
365827
365869
365912
365956
366000
366044
366090
366136
366182
366230
366278
366327
366377
366428
366479
366531
366584
366640
366696
366747
366800
366852
366904
366955
367007
367058
367109
367160
367210
367261
367311
367361
367411
367461
367510
367560
367609
367658
367708
367757
367806
367855
367903
364998
364971
364947
364925
364913
364901
364896
364889
364888
364885
364887
364889
364896
364902
364912
364923
364937
364951
364968
364985
365005
365025
365047
365070
365095
365120
365147
365174
365203
365233
365264
365296
365329
365362
365397
365432
365468
365505
365543
365582
365621
365661
365702
365743
365785
365827
365869
365912
365956
366000
366045
366090
366136
366183
366231
366279
366328
366378
366429
366480
366533
366586
366641
366698
366750
366803
366855
366907
366959
367011
367063
367114
367165
367217
367267
367318
367369
367419
367469
367519
367569
367619
367668
367718
367767
367817
367866
367915
364998
364971
364947
364925
364913
364901
364896
364889
364888
364885
364887
364889
364896
364902
364912
364923
364937
364951
364968
364985
365005
365024
365047
365070
365095
365120
365147
365174
365203
365233
365264
365295
365328
365362
365397
365432
365468
365505
365543
365582
365621
365661
365702
365743
365784
365826
365869
365912
365956
366000
366045
366090
366136
366183
366231
366279
366329
366379
366430
366481
366534
366587
366643
366701
366753
366806
366859
366912
366964
367017
367069
367121
367173
367225
367276
367327
367378
367429
367480
367530
367581
367631
367681
367731
367781
367830
367880
367929
364998
364971
364947
364925
364913
364900
364896
364889
364888
364885
364887
364889
364896
364902
364913
364922
364937
364950
364968
364984
365005
365024
365047
365069
365095
365119
365147
365174
365203
365233
365264
365295
365328
365361
365396
365431
365468
365505
365543
365581
365621
365660
365701
365742
365784
365826
365868
365911
365955
365999
366044
366090
366136
366183
366231
366279
366329
366379
366430
366482
366535
366589
366645
366703
366756
366809
366863
366917
366970
367023
367076
367129
367182
367234
367287
367339
367390
367442
367493
367544
367595
367646
367696
367747
367797
367847
367897
367946
364998
364971
364947
364925
364913
364900
364896
364889
364888
364885
364887
364889
364896
364901
364913
364922
364937
364950
364968
364984
365005
365024
365047
365069
365095
365119
365147
365174
365203
365232
365264
365295
365328
365361
365396
365431
365468
365504
365543
365581
365620
365660
365701
365741
365783
365825
365868
365911
365954
365999
366044
366089
366135
366182
366230
366279
366329
366379
366431
366483
366536
366589
366646
366705
366758
366813
366868
366922
366976
367031
367084
367138
367192
367245
367298
367351
367404
367456
367508
367560
367612
367663
367714
367765
367816
367866
367916
367966
364998
364970
364947
364924
364913
364900
364896
364889
364888
364884
364887
364888
364896
364901
364913
364922
364937
364950
364968
364984
365005
365024
365047
365069
365095
365119
365147
365173
365203
365232
365264
365294
365328
365361
365396
365431
365468
365504
365542
365580
365620
365659
365700
365741
365783
365824
365867
365910
365954
365998
366043
366088
366135
366182
366230
366278
366328
366379
366430
366483
366536
366590
366647
366707
366761
366816
366871
366927
366982
367037
367092
367147
367201
367255
367309
367363
367416
367470
367523
367575
367627
367679
367731
367783
367834
367885
367936
367986
364998
364970
364947
364924
364913
364900
364896
364888
364888
364884
364887
364888
364896
364901
364913
364922
364937
364950
364968
364984
365005
365023
365047
365068
365095
365118
365147
365173
365203
365232
365264
365294
365328
365360
365396
365430
365467
365503
365542
365580
365620
365659
365700
365740
365782
365824
365867
365909
365953
365997
366042
366088
366134
366181
366229
366278
366328
366379
366430
366483
366536
366590
366648
366708
366763
366819
366875
366931
366987
367043
367099
367154
367210
367265
367319
367374
367428
367482
367536
367589
367642
367695
367747
367800
367852
367903
367955
368006
364998
364970
364947
364924
364913
364900
364896
364888
364888
364884
364887
364888
364896
364901
364913
364922
364937
364950
364968
364984
365005
365023
365047
365068
365095
365118
365147
365173
365203
365231
365264
365294
365328
365360
365396
365430
365467
365503
365542
365579
365620
365658
365700
365740
365782
365823
365867
365909
365953
365996
366042
366087
366134
366180
366229
366277
366327
366378
366430
366482
366536
366590
366648
366709
366764
366821
366878
366935
366991
367048
367105
367161
367217
367273
367328
367384
367439
367493
367547
367602
367655
367709
367762
367815
367867
367920
367972
368023
364998
364970
364947
364924
364913
364900
364896
364888
364888
364884
364887
364888
364896
364901
364913
364922
364937
364949
364968
364983
365005
365023
365047
365068
365095
365118
365147
365172
365203
365231
365264
365294
365328
365360
365396
365430
365467
365503
365542
365579
365620
365658
365700
365739
365782
365823
365866
365908
365953
365996
366042
366086
366133
366179
366228
366276
366327
366378
366430
366482
366536
366590
366648
366709
366765
366822
366880
366938
366995
367052
367110
367167
367223
367280
367336
367392
367448
367503
367558
367612
367667
367721
367775
367828
367881
367934
367987
368039
364999
364970
364947
364924
364913
364900
364896
364888
364888
364884
364887
364888
364896
364901
364913
364922
364937
364949
364968
364983
365005
365023
365047
365068
365095
365118
365147
365172
365203
365231
365264
365293
365328
365359
365396
365429
365467
365502
365542
365579
365620
365657
365700
365739
365782
365822
365866
365908
365953
365995
366042
366086
366133
366179
366228
366276
366327
366377
366429
366482
366536
366590
366648
366709
366765
366823
366881
366940
366998
367056
367114
367171
367229
367286
367343
367399
367455
367511
367566
367622
367677
367731
367785
367839
367893
367946
367999
368052
364999
364970
364947
364924
364913
364900
364896
364888
364888
364884
364887
364888
364896
364901
364913
364922
364937
364949
364968
364983
365005
365023
365047
365068
365095
365118
365147
365172
365203
365231
365264
365293
365328
365359
365396
365429
365467
365502
365542
365578
365619
365657
365699
365738
365782
365822
365866
365907
365953
365995
366041
366085
366133
366178
366228
366275
366326
366377
366429
366482
366535
366590
366648
366709
366765
366824
366883
366942
367001
367059
367117
367175
367233
367291
367348
367405
367462
367518
367574
367630
367685
367740
367795
367849
367903
367957
368010
368063
364999
364970
364947
364924
364913
364900
364896
364888
364888
364884
364887
364888
364896
364901
364913
364921
364937
364949
364968
364983
365005
365023
365047
365068
365095
365118
365147
365172
365203
365231
365264
365293
365328
365359
365396
365429
365467
365502
365542
365578
365619
365657
365699
365738
365782
365821
365866
365907
365952
365994
366041
366085
366133
366178
366227
366275
366326
366376
366429
366482
366535
366590
366648
366709
366765
366824
366884
366943
367002
367061
367120
367179
367237
367295
367353
367410
367467
367524
367580
367636
367692
367747
367802
367857
367911
367965
368019
368072
364999
364970
364947
364924
364913
364900
364896
364888
364888
364884
364887
364888
364896
364901
364913
364921
364937
364949
364968
364983
365005
365023
365047
365068
365095
365118
365147
365172
365203
365231
365264
365293
365328
365359
365396
365429
365467
365502
365542
365578
365619
365657
365699
365738
365782
365821
365866
365906
365952
365994
366041
366084
366133
366177
366227
366274
366326
366376
366429
366481
366535
366589
366647
366708
366765
366825
366885
366944
367004
367063
367122
367181
367240
367299
367357
367415
367472
367529
367585
367641
367698
367754
367809
367864
367918
367973
368026
368080
364999
364970
364947
364924
364913
364900
364896
364888
364888
364884
364887
364888
364896
364901
364913
364921
364937
364949
364968
364983
365005
365023
365048
365068
365095
365117
365147
365172
365203
365230
365264
365293
365328
365359
365396
365429
365467
365502
365542
365578
365619
365656
365699
365738
365782
365821
365866
365906
365952
365994
366041
366084
366133
366177
366227
366274
366326
366376
366429
366481
366535
366589
366647
366708
366765
366825
366885
366945
367005
367064
367124
367183
367243
367302
367360
367418
367475
367532
367589
367646
367702
367759
367815
367870
367924
367979
368032
368086
364999
364970
364947
364924
364913
364900
364896
364888
364888
364884
364887
364888
364896
364901
364913
364921
364937
364949
364968
364983
365005
365023
365048
365068
365095
365117
365147
365172
365203
365230
365264
365293
365328
365359
365396
365429
365467
365502
365542
365578
365619
365656
365699
365738
365782
365821
365866
365906
365952
365994
366041
366084
366133
366177
366227
366273
366326
366375
366429
366481
366535
366589
366647
366708
366765
366825
366886