/*--------------------------------*- C++ -*----------------------------------*\
| =========                 |                                                 |
| \\      /  F ield         | OpenFOAM: The Open Source CFD Toolbox           |
|  \\    /   O peration     | Version:  2306                                  |
|   \\  /    A nd           | Website:  www.openfoam.com                      |
|    \\/     M anipulation  |                                                 |
\*---------------------------------------------------------------------------*/
FoamFile
{
    version     2.0;
    format      ascii;
    arch        "LSB;label=32;scalar=64";
    class       surfaceScalarField;
    location    "700";
    object      phi;
}
// * * * * * * * * * * * * * * * * * * * * * * * * * * * * * * * * * * * * * //

dimensions      [0 3 -1 0 0 0 0];

oriented        oriented;

internalField   nonuniform List<scalar> 
40747
(
1.75281e-05
-2.64667e-06
7.49295e-06
1.0039e-05
2.11792e-05
-5.82105e-06
1.52915e-05
1.33931e-05
2.55274e-05
-9.56523e-06
2.31102e-05
1.77306e-05
3.06539e-05
-1.38641e-05
3.05609e-05
2.32391e-05
3.66229e-05
-1.86001e-05
3.71549e-05
3.00852e-05
4.34747e-05
-2.34942e-05
4.23389e-05
3.83743e-05
5.12382e-05
-2.80523e-05
4.55856e-05
4.81107e-05
5.99923e-05
-3.1564e-05
4.65592e-05
5.91836e-05
7.0014e-05
-3.32382e-05
4.53503e-05
7.14467e-05
8.20242e-05
-3.25729e-05
4.26917e-05
8.4982e-05
9.73754e-05
-2.98982e-05
3.99134e-05
0.000100547
0.000117762
-2.66106e-05
3.83279e-05
0.000119852
0.000144218
-2.4378e-05
3.82135e-05
0.000144961
0.000176489
-2.36897e-05
3.86227e-05
0.000176849
0.000214335
-2.36777e-05
3.86266e-05
0.00021527
0.000259194
-2.35601e-05
3.81999e-05
0.000260767
0.000313405
-2.32591e-05
3.75992e-05
0.000315406
0.000379098
-2.28504e-05
3.68685e-05
0.000381536
0.000458586
-2.23322e-05
3.59822e-05
0.000461543
0.000554761
-2.16993e-05
3.49484e-05
0.000558301
0.000671119
-2.094e-05
3.37519e-05
0.000675355
0.00081189
-2.00378e-05
3.23648e-05
0.000816967
0.000982199
-1.89745e-05
3.07516e-05
0.00098829
0.00118824
-1.77321e-05
2.88678e-05
0.00119555
0.00143752
-1.62954e-05
2.6658e-05
0.0014463
0.00173912
-1.46548e-05
2.40509e-05
0.00174966
0.00210402
-1.28081e-05
2.09541e-05
0.00211667
0.0025455
-1.09481e-05
1.68618e-05
0.00256068
0.00307964
-9.44973e-06
1.04834e-05
0.00309784
0.00372589
-8.56016e-06
1.52218e-06
0.00374765
0.0035703
-6.8771e-06
-4.98342e-06
0.00359091
0.0035705
-4.96138e-06
-1.06666e-05
0.00359087
0.00357062
-3.0785e-06
-1.6108e-05
0.00359076
0.00357068
-1.66288e-06
-2.24402e-05
0.00359061
0.00361351
-7.45034e-07
-2.98125e-05
0.00363345
0.00300597
1.11822e-06
-3.41946e-05
0.00302241
0.00250054
3.4649e-06
-3.67055e-05
0.00251415
0.00208007
5.97376e-06
-3.80903e-05
0.00209138
0.0017303
8.44326e-06
-3.88275e-05
0.00173973
0.00143934
1.07545e-05
-3.92067e-05
0.00144723
0.00119732
1.28474e-05
-3.94007e-05
0.00120392
0.000995995
1.46998e-05
-3.95077e-05
0.00100153
0.00082853
1.63121e-05
-3.9582e-05
0.000833176
0.000689228
1.76976e-05
-3.96521e-05
0.00069313
0.000573356
1.88739e-05
-3.9721e-05
0.000576633
0.000476976
1.98581e-05
-3.97711e-05
0.000479724
0.000396805
2.06711e-05
-3.98076e-05
0.0003991
0.000330108
2.13413e-05
-3.98362e-05
0.000332011
0.000274657
2.18556e-05
-3.98664e-05
0.000276239
0.000228609
2.21556e-05
-3.97454e-05
0.000229772
0.000189985
2.25932e-05
-3.92439e-05
0.000190551
0.000156911
2.4091e-05
-3.87413e-05
0.000157297
0.000128843
2.70225e-05
-3.92453e-05
0.000130081
0.000106247
3.03887e-05
-4.1237e-05
0.000108832
8.8958e-05
3.26023e-05
-4.39994e-05
9.21916e-05
7.57404e-05
3.26895e-05
-4.62227e-05
7.83323e-05
6.51245e-05
3.06285e-05
-4.68272e-05
6.60145e-05
5.60798e-05
2.69956e-05
-4.53155e-05
5.47869e-05
4.80951e-05
2.25181e-05
-4.17176e-05
4.46619e-05
4.09823e-05
1.78104e-05
-3.63889e-05
3.57747e-05
3.46888e-05
1.329e-05
-2.98199e-05
2.82063e-05
2.91902e-05
9.19224e-06
-2.25033e-05
2.19378e-05
2.44496e-05
5.61942e-06
-1.48652e-05
1.68689e-05
2.04091e-05
2.56848e-06
-7.27824e-06
1.28512e-05
1.69976e-05
9.71932e-06
7.27379e-07
9.3197e-06
3.8069e-07
3.52356e-07
3.11834e-07
7.57375e-08
2.75327e-07
3.80186e-08
2.50988e-07
2.89209e-08
2.31848e-07
1.69584e-08
2.17407e-07
1.62466e-08
2.05192e-07
8.98472e-09
1.95724e-07
9.19799e-09
1.87187e-07
5.07144e-09
1.8004e-07
5.48623e-09
1.73221e-07
3.01679e-09
1.67308e-07
3.31338e-09
1.61562e-07
1.58767e-09
1.5649e-07
1.78124e-09
1.51459e-07
5.5834e-10
1.46886e-07
7.12723e-10
1.4224e-07
-1.44493e-10
1.37868e-07
-1.42834e-11
1.33341e-07
-6.23303e-10
1.28945e-07
-5.22651e-10
1.24351e-07
-9.66188e-10
1.19778e-07
-9.08972e-10
1.15004e-07
-1.25153e-09
1.10171e-07
-1.23939e-09
1.05245e-07
-1.59203e-09
1.00283e-07
-1.67535e-09
9.35294e-08
-2.06083e-10
8.75885e-08
-1.14523e-09
8.4359e-08
-4.05039e-09
8.09213e-08
-3.93253e-09
7.65481e-08
-3.09552e-09
7.22304e-08
-3.23405e-09
6.8204e-08
-3.60678e-09
6.42777e-08
-3.82967e-09
6.04654e-08
-4.06678e-09
5.67324e-08
-4.32857e-09
5.30909e-08
-4.60384e-09
4.95086e-08
-4.9024e-09
4.5943e-08
-5.1557e-09
4.23867e-08
-5.44262e-09
3.88483e-08
-5.73285e-09
3.53493e-08
-6.06636e-09
3.192e-08
-6.42363e-09
2.86011e-08
-6.81953e-09
2.5429e-08
-7.244e-09
2.24908e-08
-7.72977e-09
1.98075e-08
-8.23927e-09
1.75519e-08
-8.90584e-09
1.56894e-08
-9.64126e-09
1.42315e-08
-1.06259e-08
1.27719e-08
-1.1991e-08
1.08409e-08
-1.36154e-08
7.27003e-09
-1.71227e-08
1.90827e-09
-1.98158e-08
-6.32817e-09
-2.70952e-08
-1.59348e-08
-3.10601e-08
-2.68842e-08
-3.99895e-08
-3.67884e-08
-4.44289e-08
-4.52367e-08
-5.13426e-08
-5.58255e-08
-4.8033e-08
-8.22314e-08
-3.35996e-08
-1.28048e-07
-9.31818e-09
-1.61272e-07
-3.45225e-08
-1.72696e-07
-5.28636e-08
-1.74453e-07
-7.45203e-08
-1.79747e-07
-5.58395e-08
-1.9741e-07
-7.38167e-08
-2.17882e-07
-5.79592e-08
-2.43055e-07
-8.68468e-08
-2.64482e-07
-7.84266e-08
-2.79054e-07
-9.11011e-08
-2.85374e-07
-8.78687e-08
-2.82918e-07
-7.96075e-08
-2.76541e-07
-7.45358e-08
-2.73253e-07
-6.87088e-08
-2.73477e-07
-6.68974e-08
-2.85635e-07
-7.90882e-08
-3.01442e-07
-9.07196e-08
-3.27896e-07
-1.15413e-07
-3.43831e-07
-1.42081e-07
-3.56501e-07
-1.70683e-07
-3.25018e-07
-2.25759e-07
-2.6435e-07
-2.63962e-07
-5.88167e-08
-4.32519e-07
-1.26007e-07
-1.17168e-07
7.87913e-07
-1.04963e-06
-3.73698e-06
4.47891e-06
2.65965e-06
2.00776e-05
1.45449e-06
1.57399e-06
1.18212e-06
3.68879e-07
1.03355e-06
1.9031e-07
9.46284e-07
1.29723e-07
8.72258e-07
8.39698e-08
8.2327e-07
7.0343e-08
7.76871e-07
4.53584e-08
7.42823e-07
4.20993e-08
7.10256e-07
2.68604e-08
6.83227e-07
2.71741e-08
6.57444e-07
1.69722e-08
6.34728e-07
1.78461e-08
6.13039e-07
1.0363e-08
5.93335e-07
1.11954e-08
5.74102e-07
5.90877e-09
5.56224e-07
6.55785e-09
5.3818e-07
3.02757e-09
5.21152e-07
3.35658e-09
5.03421e-07
1.12022e-09
4.86495e-07
1.09808e-09
4.68562e-07
-2.98974e-10
4.51256e-07
-6.5167e-10
4.3296e-07
-1.66459e-09
4.15091e-07
-2.24113e-09
3.96756e-07
-3.47828e-09
3.78763e-07
-4.27662e-09
3.54079e-07
2.91529e-09
3.33029e-07
-2.04034e-09
3.21552e-07
-1.50914e-08
3.09131e-07
-1.43013e-08
2.92935e-07
-9.98513e-09
2.77268e-07
-1.09135e-08
2.62313e-07
-1.22573e-08
2.47908e-07
-1.342e-08
2.33962e-07
-1.45081e-08
2.20801e-07
-1.61303e-08
2.08291e-07
-1.76337e-08
1.96661e-07
-1.95588e-08
1.85613e-07
-2.11324e-08
1.75309e-07
-2.30223e-08
1.65528e-07
-2.46807e-08
1.56395e-07
-2.65683e-08
1.47691e-07
-2.82393e-08
1.3956e-07
-3.00806e-08
1.31741e-07
-3.16659e-08
1.24577e-07
-3.35704e-08
1.17695e-07
-3.51398e-08
1.11731e-07
-3.7469e-08
1.059e-07
-3.94602e-08
9.98746e-08
-4.22706e-08
9.17364e-08
-4.6377e-08
8.02785e-08
-5.16958e-08
6.09981e-08
-6.45475e-08
4.00067e-08
-7.96497e-08
7.00472e-09
-1.06515e-07
-1.58738e-08
-1.36722e-07
-4.94821e-08
-1.65425e-07
-6.00428e-08
-2.02552e-07
-8.55391e-08
-2.10495e-07
-9.59284e-08
-2.176e-07
-1.39078e-07
-1.7563e-07
-2.13726e-07
-1.10299e-07
-3.70886e-07
-1.01246e-07
-4.01762e-07
-2.28999e-07
-4.27195e-07
-2.99273e-07
-4.1133e-07
-2.72816e-07
-4.95801e-07
-2.94373e-07
-5.29734e-07
-2.90664e-07
-6.30551e-07
-3.576e-07
-6.51119e-07
-3.92386e-07
-6.83104e-07
-3.98612e-07
-6.60563e-07
-4.07035e-07
-6.41547e-07
-3.35557e-07
-6.11435e-07
-3.08013e-07
-6.18052e-07
-2.59532e-07
-6.35536e-07
-2.50838e-07
-6.95823e-07
-2.89756e-07
-7.38147e-07
-3.6224e-07
-8.05526e-07
-4.60149e-07
-7.71758e-07
-6.30285e-07
-7.69384e-07
-6.83528e-07
-4.96593e-07
-1.0046e-06
-2.90516e-07
-9.48787e-07
4.74844e-07
-1.67852e-06
-5.56466e-07
5.0068e-07
2.90891e-06
-4.75528e-06
-8.54063e-06
7.64246e-06
5.57717e-06
3.22732e-05
3.22115e-06
3.95822e-06
2.61733e-06
1.00931e-06
2.29391e-06
5.19532e-07
2.09823e-06
3.49116e-07
1.93663e-06
2.32733e-07
1.82546e-06
1.90258e-07
1.72389e-06
1.28894e-07
1.64773e-06
1.15915e-07
1.5768e-06
7.83639e-08
1.51754e-06
7.66536e-08
1.46175e-06
5.14522e-08
1.41253e-06
5.22348e-08
1.36589e-06
3.37541e-08
1.32359e-06
3.49202e-08
1.28259e-06
2.19301e-08
1.24454e-06
2.2923e-08
1.20645e-06
1.43823e-08
1.17045e-06
1.47633e-08
1.13331e-06
9.52792e-09
1.09771e-06
9.16508e-09
1.06033e-06
6.06479e-09
1.02406e-06
4.98056e-09
9.85986e-07
2.8107e-09
9.48583e-07
1.27197e-09
9.10437e-07
-1.60912e-09
8.72744e-07
-3.528e-09
8.21859e-07
1.51462e-08
7.78289e-07
2.20069e-09
7.54366e-07
-3.1486e-08
7.29037e-07
-2.97502e-08
6.96376e-07
-1.86058e-08
6.64975e-07
-2.1254e-08
6.35496e-07
-2.49697e-08
6.07424e-07
-2.82265e-08
5.80633e-07
-3.12816e-08
5.55648e-07
-3.5718e-08
5.32247e-07
-3.98151e-08
5.10786e-07
-4.49791e-08
4.90692e-07
-4.91987e-08
4.72224e-07
-5.41978e-08
4.55021e-07
-5.85702e-08
4.39325e-07
-6.35091e-08
4.24815e-07
-6.78592e-08
4.11789e-07
-7.26368e-08
3.99863e-07
-7.67152e-08
3.89726e-07
-8.16287e-08
3.80777e-07
-8.5617e-08
3.74301e-07
-9.15801e-08
3.68989e-07
-9.65849e-08
3.64361e-07
-1.03622e-07
3.57038e-07
-1.13858e-07
3.44395e-07
-1.26244e-07
3.1831e-07
-1.56176e-07
2.87796e-07
-1.909e-07
2.35688e-07
-2.49891e-07
1.9841e-07
-3.21269e-07
1.43129e-07
-3.81518e-07
1.26409e-07
-4.71305e-07
8.9385e-08
-4.83222e-07
7.56498e-08
-5.02616e-07
7.5049e-09
-4.12362e-07
-8.13958e-08
-3.06639e-07
-3.06642e-07
-2.30557e-07
-3.23512e-07
-5.26672e-07
-3.35558e-07
-6.63706e-07
-2.79222e-07
-6.27008e-07
-3.96185e-07
-6.25129e-07
-4.24389e-07
-6.51349e-07
-5.66464e-07
-7.41162e-07
-5.64341e-07
-8.61883e-07
-5.84138e-07
-8.34361e-07
-5.09543e-07
-8.68551e-07
-4.41935e-07
-7.0281e-07
-3.485e-07
-6.50083e-07
-3.02672e-07
-5.43253e-07
-2.63249e-07
-5.27093e-07
-2.87235e-07
-5.76543e-07
-2.92927e-07
-7.09177e-07
-3.40305e-07
-8.67325e-07
-2.49904e-07
-1.21456e-06
-1.83942e-07
-1.29239e-06
2.26398e-07
-1.92957e-06
5.76151e-07
-1.75069e-06
1.63639e-06
-3.12772e-06
6.64704e-07
1.13763e-06
6.17054e-06
-1.04896e-05
-1.42594e-05
1.18265e-05
9.82827e-06
4.57534e-05
6.01181e-06
7.82133e-06
4.88506e-06
2.19833e-06
4.28495e-06
1.12875e-06
3.91939e-06
7.55114e-07
3.62031e-06
5.09295e-07
3.41243e-06
4.12901e-07
3.22431e-06
2.85619e-07
3.08242e-06
2.53446e-07
2.95141e-06
1.7555e-07
2.84201e-06
1.68856e-07
2.73954e-06
1.16805e-07
2.64936e-06
1.16508e-07
2.56415e-06
7.85197e-08
2.4871e-06
7.9595e-08
2.41265e-06
5.29822e-08
2.34378e-06
5.4078e-08
2.27507e-06
3.66752e-08
2.21033e-06
3.68026e-08
2.1438e-06
2.62469e-08
2.08016e-06
2.50629e-08
2.0136e-06
1.89088e-08
1.94911e-06
1.64032e-08
1.88168e-06
1.21271e-08
1.81552e-06
8.82801e-09
1.74829e-06
2.96313e-09
1.6818e-06
-8.30532e-10
1.59408e-06
3.61648e-08
1.51867e-06
9.7662e-09
1.47593e-06
-5.81911e-08
1.43206e-06
-5.60324e-08
1.3765e-06
-3.39817e-08
1.32346e-06
-3.98739e-08
1.27432e-06
-4.81747e-08
1.2283e-06
-5.56269e-08
1.18515e-06
-6.26158e-08
1.14578e-06
-7.24145e-08
1.10983e-06
-8.1495e-08
1.0779e-06
-9.26982e-08
1.04901e-06
-1.01923e-07
1.02357e-06
-1.12628e-07
1.00099e-06
-1.22014e-07
9.8166e-07
-1.32476e-07
9.65073e-07
-1.417e-07
9.51726e-07
-1.51715e-07
9.41005e-07
-1.60254e-07
9.34061e-07
-1.70423e-07
9.29921e-07
-1.78644e-07
9.30732e-07
-1.90813e-07
9.34483e-07
-2.01109e-07
9.40525e-07
-2.15579e-07
9.43831e-07
-2.36924e-07
9.40216e-07
-2.61441e-07
9.17258e-07
-3.19804e-07
8.8814e-07
-3.84157e-07
8.26679e-07
-4.91301e-07
7.87544e-07
-6.21722e-07
7.22234e-07
-7.25432e-07
7.15141e-07
-8.88925e-07
6.83327e-07
-9.05288e-07
6.87525e-07
-9.36892e-07
6.22814e-07
-7.75465e-07
5.62663e-07
-6.2251e-07
3.47679e-07
-4.46393e-07
4.02652e-07
-9.44252e-07
4.69939e-07
-1.15688e-06
5.98778e-07
-1.08531e-06
5.19709e-07
-1.02943e-06
5.27224e-07
-1.06797e-06
4.2501e-07
-1.16928e-06
4.70265e-07
-1.36419e-06
5.21944e-07
-1.31375e-06
6.84339e-07
-1.38439e-06
8.78853e-07
-1.16578e-06
1.12017e-06
-1.1109e-06
1.32722e-06
-9.5959e-07
1.52977e-06
-9.35866e-07
1.65389e-06
-9.66735e-07
1.77687e-06
-1.12788e-06
1.83744e-06
-1.29903e-06
2.00054e-06
-1.77171e-06
2.16451e-06
-1.88066e-06
2.65212e-06
-2.82106e-06
3.13103e-06
-2.58795e-06
4.41118e-06
-4.72483e-06
4.40956e-06
9.15713e-07
1.08042e-05
-1.70656e-05
-1.98966e-05
1.63881e-05
1.583e-05
6.01161e-05
1.03017e-05
1.34227e-05
8.39246e-06
4.20802e-06
7.36587e-06
2.16893e-06
6.73935e-06
1.44751e-06
6.22865e-06
9.82342e-07
5.87254e-06
7.92885e-07
5.55094e-06
5.54994e-07
5.30778e-06
4.88953e-07
5.08388e-06
3.4308e-07
4.89737e-06
3.26486e-07
4.72307e-06
2.29265e-07
4.57023e-06
2.26077e-07
4.42598e-06
1.55498e-07
4.29608e-06
1.55607e-07
4.17073e-06
1.06288e-07
4.05531e-06
1.06886e-07
3.94042e-06
7.46889e-08
3.83269e-06
7.38502e-08
3.72227e-06
5.43594e-08
3.61715e-06
5.13747e-08
3.50753e-06
4.00206e-08
3.40176e-06
3.48063e-08
3.29151e-06
2.68771e-08
3.18374e-06
2.03986e-08
3.07452e-06
9.49007e-09
2.96666e-06
2.61442e-09
2.82867e-06
6.51268e-08
2.70942e-06
1.82823e-08
2.63821e-06
-1.00054e-07
2.56774e-06
-9.94954e-08
2.48101e-06
-6.21874e-08
2.39888e-06
-7.3536e-08
2.32375e-06
-8.96063e-08
2.25488e-06
-1.04667e-07
2.19175e-06
-1.18667e-07
2.13588e-06
-1.37751e-07
2.08671e-06
-1.55453e-07
2.04522e-06
-1.76896e-07
2.00992e-06
-1.94665e-07
1.98134e-06
-2.14825e-07
1.95854e-06
-2.32469e-07
1.9421e-06
-2.51819e-07
1.93124e-06
-2.68819e-07
1.92668e-06
-2.87003e-07
1.92748e-06
-3.02412e-07
1.93538e-06
-3.20531e-07
1.94892e-06
-3.35081e-07
1.97131e-06
-3.56445e-07
1.99982e-06
-3.74776e-07
2.03369e-06
-4.00568e-07
2.06641e-06
-4.39284e-07
2.09222e-06
-4.81997e-07
2.09423e-06
-5.81286e-07
2.08984e-06
-6.8485e-07
2.04329e-06
-8.54006e-07
2.02691e-06
-1.05736e-06
1.97788e-06
-1.21168e-06
2.00544e-06
-1.46305e-06
2.01145e-06
-1.48538e-06
2.0676e-06
-1.52693e-06
2.05968e-06
-1.28398e-06
2.14007e-06
-1.12891e-06
2.07431e-06
-8.36664e-07
2.29159e-06
-1.53325e-06
2.51178e-06
-1.80919e-06
2.76981e-06
-1.67334e-06
2.80735e-06
-1.54358e-06
2.91965e-06
-1.57742e-06
2.94369e-06
-1.69692e-06
3.10722e-06
-1.95503e-06
3.30669e-06
-1.90616e-06
3.62179e-06
-2.02095e-06
3.99658e-06
-1.78354e-06
4.42863e-06
-1.74118e-06
4.83016e-06
-1.55042e-06
5.22617e-06
-1.51823e-06
5.52253e-06
-1.50248e-06
5.80593e-06
-1.67598e-06
5.98922e-06
-1.81211e-06
6.26553e-06
-2.39649e-06
6.4879e-06
-2.47748e-06
7.06132e-06
-3.7533e-06
7.51819e-06
-3.36683e-06
8.93264e-06
-6.43282e-06
9.69365e-06
-4.63738e-08
1.62877e-05
-2.38007e-05
-2.51685e-05
2.15128e-05
2.40284e-05
7.46187e-05
1.67084e-05
2.08494e-05
1.37125e-05
7.35501e-06
1.20524e-05
3.84776e-06
1.10342e-05
2.56608e-06
1.02059e-05
1.75167e-06
9.62626e-06
1.40864e-06
9.10313e-06
9.96532e-07
8.7066e-06
8.72852e-07
8.34202e-06
6.19408e-07
8.03926e-06
5.83678e-07
7.75672e-06
4.15081e-07
7.51011e-06
4.04873e-07
7.27742e-06
2.83239e-07
7.06897e-06
2.79988e-07
6.86799e-06
1.95276e-07
6.68401e-06
1.93613e-07
6.50125e-06
1.38418e-07
6.33093e-06
1.34894e-07
6.15689e-06
1.01535e-07
5.99216e-06
9.4837e-08
5.82098e-06
7.54115e-08
5.65671e-06
6.53206e-08
5.48611e-06
5.16997e-08
5.32011e-06
3.98695e-08
5.15241e-06
2.12465e-08
4.98718e-06
9.68647e-09
4.7831e-06
1.04515e-07
4.6059e-06
2.87215e-08
4.49365e-06
-1.57381e-07
4.38641e-06
-1.62429e-07
4.25929e-06
-1.05987e-07
4.14008e-06
-1.25784e-07
4.0327e-06
-1.53931e-07
3.93689e-06
-1.81608e-07
3.85172e-06
-2.07059e-07
3.77946e-06
-2.40859e-07
3.71931e-06
-2.72183e-07
3.67269e-06
-3.09454e-07
3.63744e-06
-3.4048e-07
3.61414e-06
-3.74849e-07
3.6014e-06
-4.04834e-07
3.59997e-06
-4.37184e-07
3.60876e-06
-4.65538e-07
3.62874e-06
-4.95463e-07
3.65866e-06
-5.20786e-07
3.7009e-06
-5.5026e-07
3.75356e-06
-5.7399e-07
3.82094e-06
-6.08417e-07
3.89982e-06
-6.38643e-07
3.98935e-06
-6.80771e-07
4.08208e-06
-7.44304e-07
4.17068e-06
-8.11936e-07
4.23429e-06
-9.63495e-07
4.29269e-06
-1.11317e-06
4.30265e-06
-1.35334e-06
4.34791e-06
-1.63574e-06
4.35893e-06
-1.84443e-06
4.45829e-06
-2.18838e-06
4.55102e-06
-2.22638e-06
4.70674e-06
-2.27691e-06
4.83303e-06
-1.9732e-06
5.1974e-06
-1.93825e-06
5.40642e-06
-1.50404e-06
5.8556e-06
-2.35115e-06
6.266e-06
-2.64767e-06
6.68349e-06
-2.41667e-06
6.87662e-06
-2.20391e-06
7.13458e-06
-2.2223e-06
7.32358e-06
-2.37229e-06
7.64426e-06
-2.68632e-06
8.02045e-06
-2.6581e-06
8.5066e-06
-2.81402e-06
9.05982e-06
-2.56897e-06
9.66529e-06
-2.53649e-06
1.02278e-05
-2.29457e-06
1.07781e-05
-2.24768e-06
1.11948e-05
-2.14921e-06
1.15947e-05
-2.33019e-06
1.18354e-05
-2.36939e-06
1.21836e-05
-3.07941e-06
1.23767e-05
-3.03117e-06
1.29788e-05
-4.70287e-06
1.33099e-05
-4.0129e-06
1.47681e-05
-8.18338e-06
1.59525e-05
-1.42911e-06
2.21046e-05
-3.00895e-05
-3.00478e-05
2.69372e-05
3.4811e-05
8.81341e-05
2.5953e-05
2.98524e-05
2.16075e-05
1.19099e-05
1.90613e-05
6.41751e-06
1.74753e-05
4.29298e-06
1.61859e-05
2.95578e-06
1.52763e-05
2.36863e-06
1.4457e-05
1.69836e-06
1.3833e-05
1.47765e-06
1.32607e-05
1.06444e-06
1.27868e-05
9.91319e-07
1.23452e-05
7.17425e-07
1.19619e-05
6.90449e-07
1.16001e-05
4.94534e-07
1.12781e-05
4.81549e-07
1.09678e-05
3.45832e-07
1.06857e-05
3.3715e-07
1.04062e-05
2.49104e-07
1.01476e-05
2.38895e-07
9.88436e-06
1.85944e-07
9.63687e-06
1.71899e-07
9.38097e-06
1.41222e-07
9.13679e-06
1.22819e-07
8.88454e-06
1.01308e-07
8.64028e-06
8.11383e-08
8.39457e-06
5.18284e-08
8.15308e-06
3.38031e-08
7.86574e-06
1.66487e-07
7.61567e-06
5.16414e-08
7.44796e-06
-2.19476e-07
7.29241e-06
-2.36277e-07
7.11591e-06
-1.58636e-07
6.95274e-06
-1.91146e-07
6.80867e-06
-2.3731e-07
6.68435e-06
-2.84624e-07
6.57842e-06
-3.27924e-07
6.49377e-06
-3.83689e-07
6.42936e-06
-4.35425e-07
6.38688e-06
-4.95706e-07
6.36349e-06
-5.46266e-07
6.35951e-06
-6.00904e-07
6.37319e-06
-6.4867e-07
6.40528e-06
-6.9942e-07
6.45458e-06
-7.44214e-07
6.52221e-06
-7.90974e-07
6.60675e-06
-8.3102e-07
6.7111e-06
-8.77015e-07
6.83291e-06
-9.14698e-07
6.97729e-06
-9.67766e-07
7.14061e-06
-1.01557e-06
7.32171e-06
-1.08042e-06
7.51254e-06
-1.17704e-06
7.70429e-06
-1.2768e-06
7.8729e-06
-1.49032e-06
8.03855e-06
-1.69114e-06
8.15382e-06
-2.0089e-06
8.30689e-06
-2.37192e-06
8.42953e-06
-2.64023e-06
8.64571e-06
-3.07618e-06
8.87668e-06
-3.14693e-06
9.18086e-06
-3.20812e-06
9.50976e-06
-2.88912e-06
1.02321e-05
-3.115e-06
1.07413e-05
-2.47362e-06
1.14168e-05
-3.3961e-06
1.19887e-05
-3.6496e-06
1.25351e-05
-3.29117e-06
1.28566e-05
-2.99451e-06
1.32416e-05
-2.99539e-06
1.35729e-05
-3.18989e-06
1.40321e-05
-3.55571e-06
1.45598e-05
-3.56122e-06
1.51866e-05
-3.74791e-06
1.58742e-05
-3.48968e-06
1.65984e-05
-3.45183e-06
1.72526e-05
-3.13227e-06
1.78848e-05
-3.06131e-06
1.83389e-05
-2.83617e-06
1.87794e-05
-3.02885e-06
1.89973e-05
-2.90834e-06
1.9345e-05
-3.76728e-06
1.94506e-05
-3.50364e-06
2.0004e-05
-5.61271e-06
2.02058e-05
-4.53592e-06
2.16442e-05
-9.91313e-06
2.31441e-05
-3.13304e-06
2.86189e-05
-3.57064e-05
-3.45279e-05
3.30504e-05
4.83585e-05
9.9243e-05
3.87194e-05
3.96769e-05
3.29809e-05
1.79169e-05
2.93184e-05
1.01076e-05
2.69589e-05
6.83393e-06
2.50336e-05
4.76832e-06
2.3654e-05
3.81267e-06
2.24152e-05
2.7825e-06
2.14637e-05
2.40273e-06
2.05939e-05
1.76653e-06
1.98751e-05
1.62228e-06
1.92063e-05
1.2033e-06
1.8629e-05
1.13924e-06
1.80837e-05
8.42975e-07
1.76019e-05
8.06103e-07
1.71376e-05
6.02382e-07
1.6719e-05
5.76076e-07
1.63054e-05
4.44714e-07
1.59255e-05
4.19557e-07
1.55411e-05
3.41067e-07
1.51821e-05
3.13054e-07
1.48134e-05
2.67844e-07
1.44638e-05
2.35699e-07
1.41052e-05
2.03918e-07
1.37598e-05
1.71224e-07
1.34144e-05
1.27854e-07
1.30759e-05
1.01276e-07
1.26879e-05
2.7483e-07
1.23508e-05
1.0841e-07
1.21132e-05
-2.64088e-07
1.18974e-05
-3.00666e-07
1.16636e-05
-2.03278e-07
1.14517e-05
-2.55302e-07
1.12693e-05
-3.28066e-07
1.11178e-05
-4.04573e-07
1.09956e-05
-4.74906e-07
1.09059e-05
-5.62236e-07
1.08474e-05
-6.43623e-07
1.08215e-05
-7.36124e-07
1.08249e-05
-8.14709e-07
1.08573e-05
-8.97599e-07
1.09166e-05
-9.70756e-07
1.10035e-05
-1.04737e-06
1.11169e-05
-1.11607e-06
1.12577e-05
-1.18701e-06
1.14245e-05
-1.24902e-06
1.16203e-05
-1.31878e-06
1.18419e-05
-1.37719e-06
1.20947e-05
-1.45573e-06
1.23742e-05
-1.52771e-06
1.26784e-05
-1.62173e-06
1.29986e-05
-1.75884e-06
1.33246e-05
-1.89722e-06
1.36298e-05
-2.18039e-06
1.39345e-05
-2.43688e-06
1.41895e-05
-2.83879e-06
1.44844e-05
-3.28413e-06
1.47558e-05
-3.62043e-06
1.51233e-05
-4.14754e-06
1.55245e-05
-4.26804e-06
1.60051e-05
-4.34094e-06
1.65596e-05
-4.05113e-06
1.76014e-05
-4.62352e-06
1.83381e-05
-3.68003e-06
1.91694e-05
-4.60463e-06
1.98334e-05
-4.75389e-06
2.04434e-05
-4.23854e-06
2.08329e-05
-3.86537e-06
2.12986e-05
-3.85984e-06
2.17307e-05
-4.12014e-06
2.2293e-05
-4.53903e-06
2.2933e-05
-4.58663e-06
2.36564e-05
-4.78761e-06
2.44234e-05
-4.49788e-06
2.52027e-05
-4.42982e-06
2.58748e-05
-3.99553e-06
2.65124e-05
-3.8888e-06
2.69255e-05
-3.49297e-06
2.73316e-05
-3.70583e-06
2.74699e-05
-3.38307e-06
2.77472e-05
-4.40166e-06
2.77539e-05
-3.89538e-06
2.81674e-05
-6.40272e-06
2.8365e-05
-5.06829e-06
2.97313e-05
-1.15695e-05
3.13903e-05
-5.00851e-06
3.59727e-05
-4.04396e-05
-3.85932e-05
3.99865e-05
6.44755e-05
0.000106578
5.53734e-05
4.90077e-05
4.86681e-05
2.49478e-05
4.38505e-05
1.49564e-05
4.05604e-05
1.03421e-05
3.78309e-05
7.36012e-06
3.58263e-05
5.89383e-06
3.40262e-05
4.39463e-06
3.26251e-05
3.77059e-06
3.13467e-05
2.84126e-06
3.02897e-05
2.57224e-06
2.93066e-05
1.96483e-06
2.84617e-05
1.82841e-06
2.76629e-05
1.40462e-06
2.69612e-05
1.31834e-06
2.62853e-05
1.02928e-06
2.56803e-05
9.66072e-07
2.50844e-05
7.80639e-07
2.45413e-05
7.25882e-07
2.39953e-05
6.15402e-07
2.34888e-05
5.62236e-07
2.29735e-05
4.98382e-07
2.24875e-05
4.43852e-07
2.19942e-05
3.9825e-07
2.15215e-05
3.4656e-07
2.10527e-05
2.84351e-07
2.05952e-05
2.45812e-07
2.00893e-05
4.59358e-07
1.96519e-05
2.24994e-07
1.93314e-05
-2.65073e-07
1.90433e-05
-3.30456e-07
1.87442e-05
-2.18701e-07
1.84791e-05
-3.00701e-07
1.8257e-05
-4.11854e-07
1.80791e-05
-5.29308e-07
1.79438e-05
-6.38356e-07
1.78538e-05
-7.68844e-07
1.78076e-05
-8.9119e-07
1.7806e-05
-1.02665e-06
1.78451e-05
-1.1435e-06
1.79239e-05
-1.2642e-06
1.80402e-05
-1.37224e-06
1.81945e-05
-1.48396e-06
1.83859e-05
-1.58608e-06
1.8615e-05
-1.6903e-06
1.88803e-05
-1.78342e-06
1.9184e-05
-1.8854e-06
1.95226e-05
-1.97244e-06
1.99002e-05
-2.08338e-06
2.03113e-05
-2.18575e-06
2.07526e-05
-2.31419e-06
2.12137e-05
-2.49702e-06
2.1684e-05
-2.67882e-06
2.2134e-05
-3.03688e-06
2.25855e-05
-3.35325e-06
2.2989e-05
-3.84661e-06
2.34356e-05
-4.37825e-06
2.38675e-05
-4.79379e-06
2.43997e-05
-5.41457e-06
2.49787e-05
-5.59732e-06
2.56398e-05
-5.68141e-06
2.64069e-05
-5.44985e-06
2.76839e-05
-6.38516e-06
2.85571e-05
-5.03917e-06
2.94722e-05
-5.91038e-06
3.01738e-05
-5.91163e-06
3.08056e-05
-5.22151e-06
3.1229e-05
-4.78751e-06
3.17513e-05
-4.79681e-06
3.22594e-05
-5.14426e-06
3.28967e-05
-5.61451e-06
3.36068e-05
-5.69832e-06
3.43711e-05
-5.88297e-06
3.51481e-05
-5.52871e-06
3.59013e-05
-5.39311e-06
3.65068e-05
-4.80382e-06
3.70587e-05
-4.64325e-06
3.735e-05
-4.04376e-06
3.76352e-05
-4.28041e-06
3.7635e-05
-3.74128e-06
3.77611e-05
-4.90956e-06
3.7638e-05
-4.18163e-06
3.78445e-05
-7.00632e-06
3.79868e-05
-5.56582e-06
3.91551e-05
-1.30409e-05
4.0901e-05
-6.98613e-06
4.44205e-05
-4.41187e-05
-4.23342e-05
4.81076e-05
8.25491e-05
0.000109474
7.56092e-05
5.62269e-05
6.90082e-05
3.19335e-05
6.34534e-05
2.0547e-05
5.93109e-05
1.47361e-05
5.57251e-05
1.07868e-05
5.29946e-05
8.71133e-06
5.05151e-05
6.65832e-06
4.85471e-05
5.69972e-06
4.67436e-05
4.4116e-06
4.5244e-05
3.94886e-06
4.38461e-05
3.10981e-06
4.26459e-05
2.85099e-06
4.15083e-05
2.27243e-06
4.05124e-05
2.09907e-06
3.95528e-05
1.70684e-06
3.8698e-05
1.57774e-06
3.78592e-05
1.32629e-06
3.70989e-05
1.21972e-06
3.63404e-05
1.06891e-06
3.56409e-05
9.73589e-07
3.49368e-05
8.84524e-07
3.4277e-05
7.9438e-07
3.36147e-05
7.28572e-07
3.29846e-05
6.47578e-07
3.23655e-05
5.58828e-07
3.17652e-05
5.01916e-07
3.11225e-05
7.50086e-07
3.05704e-05
4.26985e-07
3.01542e-05
-1.9861e-07
2.9781e-05
-3.02088e-07
2.94054e-05
-1.83107e-07
2.90783e-05
-3.08347e-07
2.88098e-05
-4.72086e-07
2.85987e-05
-6.42644e-07
2.84433e-05
-8.02389e-07
2.83456e-05
-9.87611e-07
2.83039e-05
-1.16237e-06
2.83181e-05
-1.35137e-06
2.83841e-05
-1.51689e-06
2.85003e-05
-1.68538e-06
2.86652e-05
-1.83896e-06
2.88794e-05
-1.99645e-06
2.91427e-05
-2.14357e-06
2.94553e-05
-2.29208e-06
2.98163e-05
-2.42797e-06
3.02265e-05
-2.57229e-06
3.06822e-05
-2.69792e-06
3.11852e-05
-2.84912e-06
3.1729e-05
-2.98878e-06
3.2308e-05
-3.15686e-06
3.29098e-05
-3.38961e-06
3.35232e-05
-3.61895e-06
3.41158e-05
-4.05588e-06
3.47119e-05
-4.43649e-06
3.5263e-05
-5.03017e-06
3.58627e-05
-5.65495e-06
3.64582e-05
-6.16329e-06
3.71608e-05
-6.88405e-06
3.79152e-05
-7.13456e-06
3.87516e-05
-7.22723e-06
3.97087e-05
-7.06696e-06
4.11559e-05
-8.33955e-06
4.21055e-05
-6.49604e-06
4.30601e-05
-7.27358e-06
4.37732e-05
-7.09996e-06
4.44177e-05
-6.23399e-06
4.48694e-05
-5.75843e-06
4.54367e-05
-5.79856e-06
4.59877e-05
-6.23344e-06
4.66439e-05
-6.73083e-06
4.73431e-05
-6.81887e-06
4.80484e-05
-6.9371e-06
4.87262e-05
-6.47551e-06
4.93364e-05
-6.22721e-06
4.97671e-05
-5.45158e-06
5.01209e-05
-5.21532e-06
5.01957e-05
-4.39687e-06
5.02523e-05
-4.64893e-06
5.00365e-05
-3.90965e-06
4.98902e-05
-5.17367e-06
4.96088e-05
-4.33681e-06
4.95228e-05
-7.33799e-06
4.95275e-05
-5.9497e-06
5.03602e-05
-1.41944e-05
5.2112e-05
-8.98137e-06
5.44915e-05
-4.66646e-05
-4.57932e-05
5.7896e-05
0.000101924
0.000108691
9.8351e-05
6.0144e-05
9.33566e-05
3.73846e-05
8.81093e-05
2.58369e-05
8.36918e-05
1.94408e-05
7.95266e-05
1.47725e-05
7.61801e-05
1.21552e-05
7.30369e-05
9.56083e-06
7.04677e-05
8.22543e-06
6.8073e-05
6.54786e-06
6.60544e-05
5.83127e-06
6.4156e-05
4.72919e-06
6.25171e-05
4.29402e-06
6.09561e-05
3.5369e-06
5.9587e-05
3.23186e-06
5.82662e-05
2.71861e-06
5.70906e-05
2.48743e-06
5.59409e-05
2.15595e-06
5.49014e-05
1.96873e-06
5.38728e-05
1.76592e-06
5.29281e-05
1.60552e-06
5.19877e-05
1.48061e-06
5.11115e-05
1.33629e-06
5.02426e-05
1.2396e-06
4.94224e-05
1.11399e-06
4.86248e-05
9.86856e-07
4.78579e-05
9.00893e-07
4.70589e-05
1.17382e-06
4.63761e-05
7.37656e-07
4.58512e-05
-4.44942e-08
4.53798e-05
-1.95518e-07
4.49133e-05
-7.53321e-08
4.45095e-05
-2.57038e-07
4.41795e-05
-4.87721e-07
4.3918e-05
-7.21521e-07
4.3722e-05
-9.41373e-07
4.35934e-05
-1.19038e-06
4.35309e-05
-1.42712e-06
4.35337e-05
-1.67887e-06
4.35984e-05
-1.90301e-06
4.37244e-05
-2.13003e-06
4.39123e-05
-2.34208e-06
4.41636e-05
-2.55945e-06
4.44808e-05
-2.76781e-06
4.48632e-05
-2.97642e-06
4.53118e-05
-3.17234e-06
4.58246e-05
-3.37367e-06
4.63981e-05
-3.55276e-06
4.70304e-05
-3.75541e-06
4.77133e-05
-3.94194e-06
4.8438e-05
-4.15659e-06
4.91885e-05
-4.4434e-06
4.99533e-05
-4.72454e-06
5.06955e-05
-5.24281e-06
5.14428e-05
-5.692e-06
5.21474e-05
-6.39404e-06
5.29053e-05
-7.11873e-06
5.36649e-05
-7.72981e-06
5.45323e-05
-8.5519e-06
5.5441e-05
-8.86137e-06
5.64211e-05
-8.95105e-06
5.75185e-05
-8.858e-06
5.90593e-05
-1.04162e-05
6.00184e-05
-7.98874e-06
6.09515e-05
-8.6367e-06
6.16273e-05
-8.27285e-06
6.22493e-05
-7.24418e-06
6.26894e-05
-6.74124e-06
6.32414e-05
-6.80922e-06
6.37479e-05
-7.3029e-06
6.43132e-05
-7.77821e-06
6.48773e-05
-7.82306e-06
6.539e-05
-7.81535e-06
6.58427e-05
-7.21252e-06
6.61841e-05
-6.80662e-06
6.63397e-05
-5.83971e-06
6.63875e-05
-5.49882e-06
6.6169e-05
-4.47671e-06
6.58899e-05
-4.70596e-06
6.53846e-05
-3.81454e-06
6.4855e-05
-5.0814e-06
6.4322e-05
-4.26756e-06
6.38535e-05
-7.31124e-06
6.3648e-05
-6.14466e-06
6.40996e-05
-1.49829e-05
6.58235e-05
-1.09554e-05
6.70784e-05
-4.80865e-05
-4.89094e-05
7.01437e-05
0.00012286
0.000106444
0.000122499
6.09299e-05
0.000120196
4.024e-05
0.000116567
2.95188e-05
0.000112985
2.33566e-05
0.000109037
1.85175e-05
0.000105615
1.56875e-05
0.000102152
1.2755e-05
9.91938e-05
1.11361e-05
9.63252e-05
9.13225e-06
9.38446e-05
8.16287e-06
9.14606e-05
6.80865e-06
8.93733e-05
6.16835e-06
8.73618e-05
5.22672e-06
8.55835e-05
4.7546e-06
8.38596e-05
4.10888e-06
8.23191e-05
3.74148e-06
8.08143e-05
3.31671e-06
7.94528e-05
3.01862e-06
7.81139e-05
2.74993e-06
7.68868e-05
2.49851e-06
7.5677e-05
2.32349e-06
7.45553e-05
2.10249e-06
7.34551e-05
1.96029e-06
7.24241e-05
1.77052e-06
7.14316e-05
1.58932e-06
7.04849e-05
1.46014e-06
6.95206e-05
1.74416e-06
6.86994e-05
1.16912e-06
6.80588e-05
2.08585e-07
6.74804e-05
2.36938e-09
6.69107e-05
1.20682e-07
6.64146e-05
-1.27484e-07
6.60038e-05
-4.35798e-07
6.56674e-05
-7.38495e-07
6.54018e-05
-1.02304e-06
6.52086e-05
-1.34074e-06
6.50885e-05
-1.64632e-06
6.50421e-05
-1.96911e-06
6.50689e-05
-2.26291e-06
6.51709e-05
-2.56252e-06
6.53534e-05
-2.85149e-06
6.56207e-05
-3.14993e-06
6.59782e-05
-3.44381e-06
6.64249e-05
-3.73622e-06
6.69625e-05
-4.01682e-06
6.75849e-05
-4.2955e-06
6.8287e-05
-4.54692e-06
6.90612e-05
-4.814e-06
6.98948e-05
-5.05636e-06
7.07749e-05
-5.32249e-06
7.16786e-05
-5.66264e-06
7.25944e-05
-5.99523e-06
7.34781e-05
-6.58971e-06
7.43621e-05
-7.10606e-06
7.51945e-05
-7.91423e-06
7.60733e-05
-8.73553e-06
7.69421e-05
-9.44381e-06
7.78989e-05
-1.035e-05
7.8865e-05
-1.06896e-05
7.98792e-05
-1.07523e-05
8.0991e-05
-1.07056e-05
8.24736e-05
-1.24702e-05
8.33265e-05
-9.40342e-06
8.41307e-05
-9.89293e-06
8.46792e-05
-9.34144e-06
8.52003e-05
-8.17678e-06
8.55455e-05
-7.65423e-06
8.59796e-05
-7.72649e-06
8.6338e-05
-8.24569e-06
8.67128e-05
-8.6556e-06
8.70447e-05
-8.61215e-06
8.72626e-05
-8.41425e-06
8.73881e-05
-7.63712e-06
8.73551e-05
-7.02544e-06
8.71544e-05
-5.88666e-06
8.68138e-05
-5.411e-06
8.62457e-05
-4.22637e-06
8.55556e-05
-4.37457e-06
8.47053e-05
-3.39721e-06
8.37395e-05
-4.57552e-06
8.28653e-05
-3.87875e-06
8.19792e-05
-6.88693e-06
8.15554e-05
-6.13484e-06
8.16108e-05
-1.53842e-05
8.33341e-05
-1.29309e-05
8.3449e-05
-4.83616e-05
-5.13191e-05
8.5816e-05
0.000147359
0.000104983
0.000148554