/*--------------------------------*- C++ -*----------------------------------*\
| =========                 |                                                 |
| \\      /  F ield         | OpenFOAM: The Open Source CFD Toolbox           |
|  \\    /   O peration     | Version:  2306                                  |
|   \\  /    A nd           | Website:  www.openfoam.com                      |
|    \\/     M anipulation  |                                                 |
\*---------------------------------------------------------------------------*/
FoamFile
{
    version     2.0;
    format      ascii;
    arch        "LSB;label=32;scalar=64";
    class       volSymmTensorField;
    location    "700";
    object      turbulenceProperties:devReff;
}
// * * * * * * * * * * * * * * * * * * * * * * * * * * * * * * * * * * * * * //

dimensions      [0 2 -2 0 0 0 0];

internalField   nonuniform List<symmTensor> 
20540
(
(-0.0012542 -0.0207626 -0 0.00125247 -0 1.72396e-06)
(0.0118166 0.0270881 -0 -0.0117922 -0 -2.43558e-05)
(-0.00124529 -0.064238 -0 0.00124428 -0 1.01005e-06)
(0.0101961 0.0942646 -0 -0.0102152 -0 1.91119e-05)
(-0.00121606 -0.112858 -0 0.00121602 -0 3.52995e-08)
(0.00844042 0.177894 -0 -0.00845601 -0 1.55858e-05)
(-0.00115484 -0.166837 -0 0.00115427 -0 5.70248e-07)
(0.00663361 0.264337 -0 -0.00664336 -0 9.7522e-06)
(-0.00105349 -0.22253 -0 0.00105315 -0 3.45406e-07)
(0.00484027 0.344383 -0 -0.00485132 -0 1.10538e-05)
(-0.00090228 -0.272993 -0 0.000902099 -0 1.81272e-07)
(0.00312972 0.406175 -0 -0.00314301 -0 1.32906e-05)
(-0.000697258 -0.308163 -0 0.00069645 -0 8.08515e-07)
(0.00159793 0.435345 -0 -0.00161275 -0 1.48193e-05)
(-0.000446699 -0.316758 -0 0.000443785 -0 2.9142e-06)
(0.000361546 0.417732 -0 -0.00037832 -0 1.67742e-05)
(-0.000179657 -0.290773 -0 0.000173512 -0 6.14439e-06)
(-0.000462238 0.345554 -0 0.000441069 -0 2.11691e-05)
(5.01461e-05 -0.231304 -0 -5.86985e-05 -0 8.55237e-06)
(-0.000800439 0.227449 -0 0.000772237 -0 2.8202e-05)
(0.000179358 -0.15179 -0 -0.000187648 -0 8.2904e-06)
(-0.000695353 0.0963033 -0 0.000662384 -0 3.29698e-05)
(0.000177994 -0.0747817 -0 -0.000184316 -0 6.32184e-06)
(-0.000354653 -0.00041399 -0 0.000325928 -0 2.8725e-05)
(9.10143e-05 -0.0217182 -0 -9.65914e-05 -0 5.5771e-06)
(-7.19033e-05 -0.0346064 -0 5.22962e-05 -0 1.96071e-05)
(1.04191e-05 0.000244159 -0 -1.7311e-05 -0 6.89188e-06)
(2.04847e-06 -0.0233332 -0 -1.95382e-05 -0 1.74898e-05)
(-1.66214e-05 0.00233791 -0 8.47044e-06 -0 8.15092e-06)
(-4.42753e-05 -0.00559425 -0 2.20246e-05 -0 2.22507e-05)
(-1.42648e-05 0.000175678 -0 5.67196e-06 -0 8.59288e-06)
(-7.9981e-05 0.000592603 -0 5.60287e-05 -0 2.39523e-05)
(-1.09961e-05 -0.000372012 -0 2.14267e-06 -0 8.85343e-06)
(-8.73271e-05 0.000523382 -0 6.50089e-05 -0 2.23181e-05)
(-1.02512e-05 -0.000224242 -0 1.18741e-06 -0 9.06378e-06)
(-8.87654e-05 0.000129638 -0 6.74338e-05 -0 2.13317e-05)
(-9.96529e-06 -0.000158628 -0 9.14342e-07 -0 9.05095e-06)
(-8.90127e-05 7.21222e-05 -0 6.7372e-05 -0 2.16407e-05)
(-9.82976e-06 -0.000121834 -0 8.85486e-07 -0 8.94427e-06)
(-8.8076e-05 4.14761e-05 -0 6.5896e-05 -0 2.218e-05)
(-9.77203e-06 -8.1077e-05 -0 8.65859e-07 -0 8.90617e-06)
(-8.71568e-05 1.2571e-05 -0 6.45646e-05 -0 2.25923e-05)
(-9.80209e-06 -5.26274e-05 -0 9.26876e-07 -0 8.87521e-06)
(-8.63257e-05 -3.92201e-06 -0 6.32967e-05 -0 2.30289e-05)
(-9.90923e-06 -3.4619e-05 -0 1.07068e-06 -0 8.83854e-06)
(-8.56041e-05 -1.31726e-05 -0 6.21606e-05 -0 2.34435e-05)
(-1.01096e-05 -2.31295e-05 -0 1.33973e-06 -0 8.7699e-06)
(-8.49608e-05 -1.82985e-05 -0 6.11261e-05 -0 2.38347e-05)
(-1.03633e-05 -1.56087e-05 -0 1.65818e-06 -0 8.70514e-06)
(-8.44473e-05 -2.08863e-05 -0 6.03256e-05 -0 2.41217e-05)
(-1.06163e-05 -1.06458e-05 -0 1.92075e-06 -0 8.69552e-06)
(-8.40644e-05 -2.17169e-05 -0 5.97807e-05 -0 2.42837e-05)
(-1.12681e-05 -7.34121e-06 -0 2.93037e-06 -0 8.33773e-06)
(-8.38589e-05 -2.12062e-05 -0 5.95938e-05 -0 2.42651e-05)
(-1.22658e-05 -4.99555e-06 -0 4.5887e-06 -0 7.67711e-06)
(-8.50111e-05 -1.96786e-05 -0 6.21123e-05 -0 2.28988e-05)
(-1.20894e-05 -3.11625e-06 -0 3.86225e-06 -0 8.22716e-06)
(-8.81229e-05 -1.71796e-05 -0 6.85655e-05 -0 1.95574e-05)
(-1.20246e-05 -3.38762e-06 -0 3.3372e-06 -0 8.68742e-06)
(-8.92131e-05 -1.1854e-05 -0 7.11058e-05 -0 1.81072e-05)
(-1.31124e-05 -5.52841e-06 -0 5.26994e-06 -0 7.84243e-06)
(-8.65418e-05 -5.23176e-06 -0 6.58641e-05 -0 2.06777e-05)
(-1.32643e-05 -7.16071e-06 -0 5.45933e-06 -0 7.80496e-06)
(-8.41329e-05 2.30213e-07 -0 6.10035e-05 -0 2.31294e-05)
(-1.3309e-05 -7.21698e-06 -0 5.54709e-06 -0 7.76193e-06)
(-8.39801e-05 4.6978e-06 -0 6.06106e-05 -0 2.33695e-05)
(-1.29382e-05 -5.85887e-06 -0 4.8739e-06 -0 8.06427e-06)
(-8.57066e-05 8.45517e-06 -0 6.40672e-05 -0 2.16393e-05)
(-1.21218e-05 -5.5595e-06 -0 3.38388e-06 -0 8.73795e-06)
(-8.64441e-05 1.37301e-05 -0 6.56553e-05 -0 2.07888e-05)
(-1.2489e-05 -7.24164e-06 -0 4.389e-06 -0 8.10002e-06)
(-8.3301e-05 2.00309e-05 -0 5.93557e-05 -0 2.39453e-05)
(-1.193e-05 -8.43971e-06 -0 3.6052e-06 -0 8.32482e-06)
(-7.94763e-05 2.50126e-05 -0 5.15197e-05 -0 2.79567e-05)
(-1.06475e-05 -8.44911e-06 -0 1.38893e-06 -0 9.25855e-06)
(-7.71542e-05 2.8746e-05 -0 4.65763e-05 -0 3.05779e-05)
(-9.9421e-06 -6.94074e-06 -0 3.22528e-07 -0 9.61957e-06)
(-7.54876e-05 3.10127e-05 -0 4.2823e-05 -0 3.26646e-05)
(-9.22839e-06 -2.29561e-06 -0 -7.96528e-07 -0 1.00249e-05)
(-7.4444e-05 3.1062e-05 -0 4.0311e-05 -0 3.4133e-05)
(-8.64267e-06 6.29112e-06 -0 -1.71034e-06 -0 1.0353e-05)
(-7.39271e-05 2.84595e-05 -0 3.88767e-05 -0 3.50503e-05)
(-8.20954e-06 2.10154e-05 -0 -2.38547e-06 -0 1.0595e-05)
(-7.37128e-05 2.18735e-05 -0 3.81457e-05 -0 3.55671e-05)
(-7.89977e-06 4.57823e-05 -0 -2.89564e-06 -0 1.07954e-05)
(-7.37071e-05 9.12311e-06 -0 3.79565e-05 -0 3.57506e-05)
(-7.69887e-06 8.80163e-05 -0 -3.28678e-06 -0 1.09857e-05)
(-7.38324e-05 -1.5148e-05 -0 3.81582e-05 -0 3.56742e-05)
(-7.64161e-06 0.000154061 -0 -3.53612e-06 -0 1.11777e-05)
(-7.38524e-05 -5.93278e-05 -0 3.83769e-05 -0 3.54755e-05)
(-7.95391e-06 0.000221756 -0 -3.26596e-06 -0 1.12199e-05)
(-7.32706e-05 -0.000114635 -0 3.78379e-05 -0 3.54327e-05)
(-8.4026e-06 0.000238433 -0 -2.8923e-06 -0 1.12949e-05)
(-7.23946e-05 -0.000118876 -0 3.74604e-05 -0 3.49342e-05)
(-8.57147e-06 0.000279006 -0 -2.79329e-06 -0 1.13648e-05)
(-7.16734e-05 -0.000205155 -0 3.69855e-05 -0 3.46879e-05)
(-9.57086e-06 0.000193649 -0 -1.78547e-06 -0 1.13563e-05)
(-7.03707e-05 -0.000655692 -0 3.43951e-05 -0 3.59756e-05)
(-1.30736e-05 -0.00119774 -0 1.69888e-06 -0 1.13748e-05)
(-5.49542e-05 0.00118822 -0 1.84e-05 -0 3.65541e-05)
(-5.84402e-06 -0.00280474 -0 -5.08356e-06 -0 1.09276e-05)
(-1.01828e-05 0.0127424 -0 -2.32202e-05 -0 3.34029e-05)
(4.47028e-05 0.00550819 -0 -5.46158e-05 -0 9.91304e-06)
(-3.17144e-06 0.0315632 -0 -2.73528e-05 -0 3.05242e-05)
(0.000136208 0.0386203 -0 -0.000145838 -0 9.62952e-06)
(-0.000165285 0.0293395 -0 0.000130309 -0 3.49757e-05)
(0.000199006 0.100644 -0 -0.00020973 -0 1.07239e-05)
(-0.000495934 -0.0272756 -0 0.000453667 -0 4.22673e-05)
(0.000156845 0.178871 -0 -0.000168603 -0 1.17573e-05)
(-0.000779591 -0.137954 -0 0.00073754 -0 4.2051e-05)
(-5.18464e-06 0.252048 -0 -5.54041e-06 -0 1.07251e-05)
(-0.000758063 -0.266241 -0 0.000722064 -0 3.59989e-05)
(-0.000244579 0.301538 -0 0.000236741 -0 7.83728e-06)
(-0.00029295 -0.37046 -0 0.000262949 -0 3.00009e-05)
(-0.000503424 0.318254 -0 0.000498549 -0 4.8743e-06)
(0.000615813 -0.427197 -0 -0.000642372 -0 2.6559e-05)
(-0.000738432 0.30367 -0 0.000735343 -0 3.08843e-06)
(0.00188644 -0.43346 -0 -0.00191112 -0 2.46747e-05)
(-0.000928039 0.26613 -0 0.000925578 -0 2.46158e-06)
(0.00341078 -0.398334 -0 -0.00343344 -0 2.26608e-05)
(-0.00106729 0.215912 -0 0.00106488 -0 2.40449e-06)
(0.00508642 -0.335011 -0 -0.00510656 -0 2.01408e-05)
(-0.00116058 0.161791 -0 0.00115804 -0 2.53735e-06)
(0.00683094 -0.256263 -0 -0.00685089 -0 1.99452e-05)
(-0.0012166 0.109741 -0 0.00121401 -0 2.58569e-06)
(0.00858384 -0.172547 -0 -0.00861144 -0 2.76018e-05)
(-0.00124574 0.0627767 -0 0.00124413 -0 1.60808e-06)
(0.0102768 -0.0919592 -0 -0.0103003 -0 2.34694e-05)
(-0.00125468 0.0203794 -0 0.00125285 -0 1.83062e-06)
(0.0118448 -0.0266698 -0 -0.0118222 -0 -2.26028e-05)
(0.0158877 -3.40958 -0 -0.0158858 -0 -1.9558e-06)
(0.000643028 -1.48934 -0 -0.000673079 -0 3.00511e-05)
(0.000138429 -1.15197 -0 -0.000149861 -0 1.14313e-05)
(7.41986e-05 -0.991562 -0 -7.95474e-05 -0 5.34882e-06)
(5.43269e-05 -0.895093 -0 -5.96059e-05 -0 5.27905e-06)
(3.83536e-05 -0.820613 -0 -3.82242e-05 -0 -1.29469e-07)
(3.37222e-05 -0.768629 -0 -3.58094e-05 -0 2.08714e-06)
(2.43419e-05 -0.721885 -0 -2.23266e-05 -0 -2.01528e-06)
(2.28839e-05 -0.688946 -0 -2.34223e-05 -0 5.38431e-07)
(1.72054e-05 -0.656132 -0 -1.45763e-05 -0 -2.62908e-06)
(1.74968e-05 -0.632074 -0 -1.68834e-05 -0 -6.13431e-07)
(1.38307e-05 -0.605869 -0 -1.05605e-05 -0 -3.2702e-06)
(1.43948e-05 -0.586142 -0 -1.26704e-05 -0 -1.72439e-06)
(1.1603e-05 -0.564204 -0 -7.6582e-06 -0 -3.94477e-06)
(1.21063e-05 -0.547216 -0 -9.33346e-06 -0 -2.77287e-06)
(1.01049e-05 -0.528287 -0 -5.52431e-06 -0 -4.58062e-06)
(1.06071e-05 -0.512828 -0 -6.79664e-06 -0 -3.81042e-06)
(9.36467e-06 -0.495724 -0 -4.08589e-06 -0 -5.27878e-06)
(9.87512e-06 -0.480813 -0 -4.94564e-06 -0 -4.92947e-06)
(9.27338e-06 -0.464575 -0 -3.13378e-06 -0 -6.13959e-06)
(9.78836e-06 -0.449534 -0 -3.59888e-06 -0 -6.18949e-06)
(9.67848e-06 -0.433458 -0 -2.44817e-06 -0 -7.23032e-06)
(1.01941e-05 -0.417896 -0 -2.5526e-06 -0 -7.64147e-06)
(1.03743e-05 -0.401535 -0 -1.76028e-06 -0 -8.61398e-06)
(1.0913e-05 -0.385377 -0 -1.58348e-06 -0 -9.32953e-06)
(1.0838e-05 -0.368463 -0 -5.46299e-07 -0 -1.02917e-05)
(1.10647e-05 -0.352388 -0 2.15857e-07 -0 -1.12806e-05)
(1.97859e-05 -0.335052 -0 -8.13791e-06 -0 -1.16479e-05)
(1.67426e-05 -0.307632 -0 -4.83236e-06 -0 -1.19103e-05)
(1.95637e-06 -0.295583 -0 1.2139e-05 -0 -1.40954e-05)
(3.02229e-06 -0.286554 -0 1.19817e-05 -0 -1.5004e-05)
(8.53406e-06 -0.272629 -0 6.55486e-06 -0 -1.50889e-05)
(8.47144e-06 -0.257211 -0 7.18478e-06 -0 -1.56562e-05)
(7.06329e-06 -0.243673 -0 9.2565e-06 -0 -1.63198e-05)
(6.36581e-06 -0.230145 -0 1.09727e-05 -0 -1.73385e-05)
(5.69052e-06 -0.217238 -0 1.24722e-05 -0 -1.81627e-05)
(4.72281e-06 -0.204765 -0 1.47958e-05 -0 -1.95186e-05)
(3.75612e-06 -0.19283 -0 1.70334e-05 -0 -2.07895e-05)
(2.53151e-06 -0.181549 -0 1.99981e-05 -0 -2.25296e-05)
(1.67175e-06 -0.170723 -0 2.25559e-05 -0 -2.42277e-05)
(5.03769e-07 -0.160333 -0 2.57984e-05 -0 -2.63022e-05)
(-6.43387e-07 -0.150355 -0 2.89733e-05 -0 -2.83299e-05)
(-2.21637e-06 -0.140774 -0 3.28528e-05 -0 -3.06364e-05)
(-3.973e-06 -0.131588 -0 3.6847e-05 -0 -3.2874e-05)
(-6.26598e-06 -0.12281 -0 4.15781e-05 -0 -3.53121e-05)
(-8.84741e-06 -0.114442 -0 4.64748e-05 -0 -3.76274e-05)
(-1.24303e-05 -0.106512 -0 5.25681e-05 -0 -4.01378e-05)
(-1.63302e-05 -0.0992588 -0 5.88663e-05 -0 -4.2536e-05)
(-2.23346e-05 -0.0923761 -0 6.76231e-05 -0 -4.52886e-05)
(-2.87171e-05 -0.0868435 -0 7.70966e-05 -0 -4.83795e-05)
(-3.65772e-05 -0.0810289 -0 8.94502e-05 -0 -5.2873e-05)
(-4.49956e-05 -0.0757732 -0 0.000106359 -0 -6.13635e-05)
(-5.08707e-05 -0.067921 -0 0.000125719 -0 -7.48479e-05)
(-6.28742e-05 -0.0563345 -0 0.000167503 -0 -0.000104628)
(-6.90168e-05 -0.039215 -0 0.000208509 -0 -0.000139492)
(-9.6711e-05 -0.0153283 -0 0.000297786 -0 -0.000201075)
(-0.000122975 0.0120897 -0 0.000380214 -0 -0.000257239)
(-0.000171443 0.041313 -0 0.000494223 -0 -0.000322781)
(-0.000230312 0.0669677 -0 0.000610397 -0 -0.000380085)
(-0.000282139 0.0890304 -0 0.000687732 -0 -0.000405594)
(-0.000260341 0.0998757 -0 0.000696736 -0 -0.000436395)
(2.62045e-05 0.125537 -0 0.000410533 -0 -0.000436738)
(0.000434723 0.213415 -0 -8.04955e-05 -0 -0.000354227)
(0.000235474 0.338849 -0 0.000290952 -0 -0.000526426)
(-0.000430947 0.423251 -0 0.00123703 -0 -0.000806082)
(-0.000905407 0.440969 -0 0.00185503 -0 -0.000949625)
(-0.000707307 0.431013 -0 0.00163125 -0 -0.00092394)
(-0.000700116 0.47631 -0 0.00192488 -0 -0.00122476)
(-0.000553729 0.526849 -0 0.00184642 -0 -0.00129269)
(-0.000866448 0.602948 -0 0.00259443 -0 -0.00172798)
(-0.00102224 0.660889 -0 0.00286878 -0 -0.00184654)
(-0.00131729 0.706714 -0 0.00321318 -0 -0.0018959)
(-0.00162112 0.711506 -0 0.00351144 -0 -0.00189032)
(-0.00159879 0.709809 -0 0.00309435 -0 -0.00149555)
(-0.00165302 0.673293 -0 0.00304454 -0 -0.00139152)
(-0.00145858 0.669659 -0 0.00271431 -0 -0.00125574)
(-0.00133385 0.661413 -0 0.00274829 -0 -0.00141445)
(-0.00143367 0.701597 -0 0.00340232 -0 -0.00196865)
(-0.00168132 0.738785 -0 0.00439547 -0 -0.00271415)
(-0.00239861 0.808683 -0 0.00611002 -0 -0.00371141)
(-0.00364057 0.831241 -0 0.00864042 -0 -0.00499985)
(-0.00533482 0.868923 -0 0.0108055 -0 -0.0054707)
(-0.00850403 0.734767 -0 0.01601 -0 -0.007506)
(-0.0128411 0.652319 -0 0.0184128 -0 -0.00557162)
(-0.0214991 0.00841406 -0 0.0314227 -0 -0.00992364)
(-0.00371109 -0.0534806 -0 0.00363939 -0 7.16946e-05)
(-0.0650782 0.355078 -0 0.0817155 -0 -0.0166373)
(-0.253689 -4.28027 -1.69099e-18 0.146581 -0 0.107108)
(0.0151614 -2.97624 -0 -0.0151763 -0 1.49134e-05)
(0.00174604 -1.48011 -0 -0.00173947 -0 -6.56918e-06)
(0.00042409 -1.13771 -0 -0.000427362 -0 3.27196e-06)
(0.000226415 -0.976572 -0 -0.000227843 -0 1.42803e-06)
(0.000155757 -0.881323 -0 -0.000157456 -0 1.69886e-06)
(0.000115403 -0.808483 -0 -0.000113676 -0 -1.72721e-06)
(9.40827e-05 -0.758334 -0 -9.35069e-05 -0 -5.75824e-07)
(7.53398e-05 -0.713024 -0 -7.14664e-05 -0 -3.87344e-06)
(6.53463e-05 -0.681147 -0 -6.22763e-05 -0 -3.07003e-06)
(5.55109e-05 -0.649094 -0 -4.95783e-05 -0 -5.93254e-06)
(5.13476e-05 -0.625851 -0 -4.59505e-05 -0 -5.39712e-06)
(4.57424e-05 -0.600339 -0 -3.7831e-05 -0 -7.91143e-06)
(4.34428e-05 -0.581463 -0 -3.61456e-05 -0 -7.29715e-06)
(3.94611e-05 -0.560237 -0 -2.98532e-05 -0 -9.60788e-06)
(3.82397e-05 -0.544076 -0 -2.926e-05 -0 -8.97972e-06)
(3.56794e-05 -0.525841 -0 -2.4505e-05 -0 -1.11744e-05)
(3.55388e-05 -0.511184 -0 -2.48352e-05 -0 -1.07036e-05)
(3.43256e-05 -0.494797 -0 -2.15286e-05 -0 -1.27969e-05)
(3.50734e-05 -0.480723 -0 -2.245e-05 -0 -1.26234e-05)
(3.50083e-05 -0.46529 -0 -2.03922e-05 -0 -1.46161e-05)
(3.642e-05 -0.451184 -0 -2.1589e-05 -0 -1.4831e-05)
(3.72001e-05 -0.436062 -0 -2.04464e-05 -0 -1.67538e-05)
(3.90115e-05 -0.421594 -0 -2.16197e-05 -0 -1.73918e-05)
(4.01287e-05 -0.4064 -0 -2.08345e-05 -0 -1.92942e-05)
(4.21898e-05 -0.391561 -0 -2.18563e-05 -0 -2.03336e-05)
(4.22345e-05 -0.376081 -0 -2.00347e-05 -0 -2.21997e-05)
(4.40098e-05 -0.361541 -0 -2.03428e-05 -0 -2.3667e-05)
(6.81538e-05 -0.345741 -0 -4.221e-05 -0 -2.59438e-05)
(5.5789e-05 -0.321686 -0 -2.66923e-05 -0 -2.90967e-05)
(1.91306e-05 -0.310784 -0 8.88676e-06 -0 -2.80173e-05)
(2.38344e-05 -0.302884 -0 6.25882e-06 -0 -3.00933e-05)
(3.9629e-05 -0.290672 -0 -7.66174e-06 -0 -3.19672e-05)
(3.90098e-05 -0.277227 -0 -4.83668e-06 -0 -3.41731e-05)
(3.54168e-05 -0.265593 -0 3.07669e-07 -0 -3.57245e-05)
(3.41358e-05 -0.254113 -0 3.79352e-06 -0 -3.79293e-05)
(3.16294e-05 -0.24336 -0 8.27802e-06 -0 -3.99074e-05)
(2.85078e-05 -0.23324 -0 1.38504e-05 -0 -4.23582e-05)
(2.45444e-05 -0.223876 -0 2.01099e-05 -0 -4.46543e-05)
(1.99375e-05 -0.215402 -0 2.75569e-05 -0 -4.74944e-05)
(1.57172e-05 -0.207665 -0 3.45919e-05 -0 -5.03091e-05)
(1.09363e-05 -0.200655 -0 4.27029e-05 -0 -5.36392e-05)
(6.1821e-06 -0.194333 -0 5.08181e-05 -0 -5.70002e-05)
(9.71258e-07 -0.188667 -0 5.99429e-05 -0 -6.09142e-05)
(-4.17448e-06 -0.183608 -0 6.90163e-05 -0 -6.48418e-05)
(-9.69227e-06 -0.179132 -0 7.89728e-05 -0 -6.92805e-05)
(-1.50083e-05 -0.175174 -0 8.86478e-05 -0 -7.36395e-05)
(-2.16341e-05 -0.171715 -0 0.000100069 -0 -7.84346e-05)
(-2.74027e-05 -0.168905 -0 0.000110401 -0 -8.29983e-05)
(-3.65723e-05 -0.166399 -0 0.000124829 -0 -8.82566e-05)
(-4.21636e-05 -0.164984 -0 0.000136093 -0 -9.39297e-05)
(-4.61192e-05 -0.163095 -0 0.000148915 -0 -0.000102796)
(-4.25205e-05 -0.161409 -0 0.000159546 -0 -0.000117026)
(-2.55164e-05 -0.157369 -0 0.000167156 -0 -0.00014164)
(-1.13568e-05 -0.149965 -0 0.000194633 -0 -0.000183277)
(5.01994e-06 -0.139027 -0 0.000234298 -0 -0.000239318)
(-1.33553e-05 -0.122835 -0 0.00032767 -0 -0.000314314)
(-7.21646e-05 -0.106607 -0 0.000471066 -0 -0.000398902)
(-0.000162844 -0.0895993 -0 0.00063359 -0 -0.000470746)
(-0.00030603 -0.0787557 -0 0.000873861 -0 -0.000567831)
(-0.000416341 -0.0698338 -0 0.000998833 -0 -0.000582493)
(-0.00044801 -0.0732474 -0 0.00105137 -0 -0.000603362)
(-7.84546e-05 -0.0704213 -0 0.0007888 -0 -0.000710345)
(0.000589804 -0.0419879 -0 0.00044558 -0 -0.00103538)
(0.000823168 0.0126058 -0 0.000538624 -0 -0.00136179)
(-0.000280061 0.0582086 -0 0.00188524 -0 -0.00160518)
(-0.00160438 0.0612496 -0 0.00328693 -0 -0.00168255)
(-0.00125865 0.0341009 -0 0.00297426 -0 -0.00171561)
(-0.000875292 0.0542381 -0 0.00309141 -0 -0.00221612)
(-0.00053852 0.071407 -0 0.00293798 -0 -0.00239946)
(-0.000941609 0.109114 -0 0.0038812 -0 -0.00293959)
(-0.00162073 0.122744 -0 0.0047201 -0 -0.00309937)
(-0.0024601 0.126755 -0 0.00546794 -0 -0.00300784)
(-0.00313664 0.0973326 -0 0.00602529 -0 -0.00288865)
(-0.00324581 0.0725308 -0 0.00552932 -0 -0.00228351)
(-0.0030426 0.0231388 -0 0.00525132 -0 -0.00220872)
(-0.00229722 0.00347924 -0 0.00447072 -0 -0.00217351)
(-0.00155468 -0.0255348 -0 0.00408343 -0 -0.00252875)
(-0.00125476 -0.0217599 -0 0.00448976 -0 -0.003235)
(-0.00156061 -0.0295404 -0 0.00572852 -0 -0.00416791)
(-0.00302726 -0.0153526 -0 0.00789635 -0 -0.00486909)
(-0.00580917 -0.0514646 -0 0.0123692 -0 -0.00656004)
(-0.00977193 -0.0656979 -0 0.0151915 -0 -0.00541962)
(-0.0168209 -0.224431 -0 0.0254463 -0 -0.00862543)
(-0.0273363 -0.289467 -0 0.0294561 -0 -0.00211975)
(-0.0357678 -0.69806 -0 0.0521485 -0 -0.0163807)
(0.0226757 -0.649842 -0 -0.0225757 -0 -0.000100015)
(-0.204538 -0.32434 -0 0.226704 -0 -0.0221659)
(-0.391481 -4.21759 1.62204e-18 0.381909 -0 0.00957225)
(0.014194 -2.53373 -0 -0.0142076 -0 1.3648e-05)
(0.00284131 -1.47183 -0 -0.00284811 -0 6.79661e-06)
(0.000779559 -1.13505 -0 -0.000790826 -0 1.12675e-05)
(0.000415433 -0.977018 -0 -0.000422609 -0 7.17599e-06)
(0.000286552 -0.883692 -0 -0.000292274 -0 5.72245e-06)
(0.000211904 -0.810661 -0 -0.000209269 -0 -2.63421e-06)
(0.000174427 -0.760661 -0 -0.000174945 -0 5.18262e-07)
(0.000138045 -0.714665 -0 -0.000130631 -0 -7.41415e-06)
(0.000122502 -0.683056 -0 -0.000120046 -0 -2.45572e-06)
(0.000101576 -0.651017 -0 -9.15609e-05 -0 -1.00147e-05)
(9.6806e-05 -0.628508 -0 -9.13037e-05 -0 -5.50222e-06)
(8.38053e-05 -0.603541 -0 -7.12816e-05 -0 -1.25237e-05)
(8.18754e-05 -0.585572 -0 -7.31005e-05 -0 -8.77495e-06)
(7.24934e-05 -0.565094 -0 -5.76131e-05 -0 -1.48803e-05)
(7.15787e-05 -0.549919 -0 -5.94962e-05 -0 -1.20825e-05)
(6.55368e-05 -0.532602 -0 -4.83756e-05 -0 -1.71613e-05)
(6.56255e-05 -0.519056 -0 -5.00547e-05 -0 -1.55707e-05)
(6.27556e-05 -0.503768 -0 -4.30621e-05 -0 -1.96936e-05)
(6.3669e-05 -0.49095 -0 -4.42451e-05 -0 -1.94239e-05)
(6.34747e-05 -0.47678 -0 -4.07261e-05 -0 -2.27486e-05)
(6.50505e-05 -0.464072 -0 -4.1319e-05 -0 -2.37315e-05)
(6.67954e-05 -0.450355 -0 -4.02731e-05 -0 -2.65223e-05)
(6.88195e-05 -0.437406 -0 -4.02409e-05 -0 -2.85786e-05)
(7.13908e-05 -0.423718 -0 -4.02299e-05 -0 -3.11609e-05)
(7.38422e-05 -0.410468 -0 -3.98163e-05 -0 -3.4026e-05)
(7.45566e-05 -0.396547 -0 -3.80063e-05 -0 -3.65502e-05)
(7.70065e-05 -0.383583 -0 -3.71275e-05 -0 -3.9879e-05)
(0.00011853 -0.369312 -0 -7.64839e-05 -0 -4.20457e-05)
(0.000100788 -0.349125 -0 -5.6594e-05 -0 -4.41944e-05)
(3.36981e-05 -0.338878 -0 1.39441e-05 -0 -4.76423e-05)
(4.03371e-05 -0.331764 -0 1.00948e-05 -0 -5.04319e-05)
(6.74227e-05 -0.321522 -0 -1.53283e-05 -0 -5.20944e-05)
(6.61909e-05 -0.310431 -0 -1.12978e-05 -0 -5.48931e-05)
(5.93631e-05 -0.301048 -0 -2.65474e-06 -0 -5.67083e-05)
(5.57352e-05 -0.292154 -0 4.57239e-06 -0 -6.03076e-05)
(5.07768e-05 -0.284108 -0 1.21558e-05 -0 -6.29326e-05)
(4.38948e-05 -0.27683 -0 2.3398e-05 -0 -6.72927e-05)
(3.60656e-05 -0.270374 -0 3.49349e-05 -0 -7.10006e-05)
(2.66075e-05 -0.264844 -0 4.96302e-05 -0 -7.62377e-05)
(1.82629e-05 -0.260081 -0 6.27775e-05 -0 -8.10403e-05)
(8.51482e-06 -0.256065 -0 7.86175e-05 -0 -8.71323e-05)
(-9.70342e-07 -0.252757 -0 9.38143e-05 -0 -9.28439e-05)
(-1.1732e-05 -0.250174 -0 0.000111374 -0 -9.96416e-05)
(-2.24201e-05 -0.248303 -0 0.000128446 -0 -0.000106026)
(-3.43942e-05 -0.247187 -0 0.00014776 -0 -0.000113365)
(-4.61781e-05 -0.246814 -0 0.000166276 -0 -0.000120098)
(-6.1162e-05 -0.247235 -0 0.000188993 -0 -0.000127831)
(-7.52212e-05 -0.248622 -0 0.000210182 -0 -0.000134961)
(-9.66025e-05 -0.250755 -0 0.000240395 -0 -0.000143793)
(-0.000114241 -0.254379 -0 0.000268081 -0 -0.000153839)
(-0.000132244 -0.258438 -0 0.000302153 -0 -0.000169909)
(-0.000145315 -0.263648 -0 0.000344838 -0 -0.000199524)
(-0.000137839 -0.268308 -0 0.000383888 -0 -0.000246049)
(-0.000148076 -0.271481 -0 0.000482537 -0 -0.000334461)
(-0.0001467 -0.27285 -0 0.000591344 -0 -0.000444644)
(-0.000204945 -0.269942 -0 0.000799191 -0 -0.000594245)
(-0.000324435 -0.266765 -0 0.00108993 -0 -0.000765496)
(-0.000467314 -0.260794 -0 0.00135369 -0 -0.000886375)
(-0.000726082 -0.259486 -0 0.00180033 -0 -0.00107425)
(-0.000879417 -0.258141 -0 0.00193496 -0 -0.00105554)
(-0.000968971 -0.26951 -0 0.00211263 -0 -0.00114366)
(-0.000342433 -0.268462 -0 0.00151131 -0 -0.00116888)
(0.000561023 -0.261197 -0 0.000724041 -0 -0.00128506)
(0.000844509 -0.276195 -0 0.000595318 -0 -0.00143983)
(-0.00109567 -0.300479 -0 0.00338655 -0 -0.00229087)
(-0.00277889 -0.327164 -0 0.00503487 -0 -0.00225597)
(-0.00245829 -0.373681 -0 0.00494485 -0 -0.00248656)
(-0.00154877 -0.386479 -0 0.00437814 -0 -0.00282937)
(-0.00147317 -0.409056 -0 0.00490025 -0 -0.00342708)
(-0.00176818 -0.415098 -0 0.00555629 -0 -0.00378812)
(-0.00319428 -0.441887 -0 0.00757936 -0 -0.00438508)
(-0.00403367 -0.459979 -0 0.00785363 -0 -0.00381996)
(-0.00528731 -0.506378 -0 0.00922088 -0 -0.00393358)
(-0.00533591 -0.545404 -0 0.00823148 -0 -0.00289557)
(-0.00539028 -0.614865 -0 0.00822239 -0 -0.00283211)
(-0.00460032 -0.675032 -0 0.0071615 -0 -0.00256117)
(-0.00405184 -0.755727 -0 0.00704125 -0 -0.00298941)
(-0.00365822 -0.822136 -0 0.00737101 -0 -0.0037128)
(-0.00403895 -0.892807 -0 0.00908043 -0 -0.00504148)
(-0.00581514 -0.940862 -0 0.0117774 -0 -0.00596223)
(-0.00927538 -0.994438 -0 0.0176554 -0 -0.00838004)
(-0.0151229 -1.02298 -0 0.0224462 -0 -0.00732337)
(-0.0227539 -1.09254 -0 0.034306 -0 -0.011552)
(-0.0360861 -1.11051 -0 0.0418861 -0 -0.00579993)
(-0.0441915 -1.18394 -0 0.0580327 -0 -0.0138411)
(0.0177647 -1.41103 -0 -0.0215297 -0 0.00376492)
(-0.291907 -1.80764 -0 0.31602 -0 -0.0241131)
(-0.415585 -2.63891 -0 0.451133 -0 -0.0355478)
(0.0129518 -2.09073 -0 -0.0129641 -0 1.23396e-05)
(0.00381343 -1.44249 -0 -0.00383203 -0 1.86043e-05)
(0.00119959 -1.1218 -0 -0.00121565 -0 1.60604e-05)
(0.000637218 -0.965118 -0 -0.000646515 -0 9.29675e-06)
(0.00043864 -0.87379 -0 -0.000445874 -0 7.23428e-06)
(0.000326543 -0.801974 -0 -0.000323384 -0 -3.15846e-06)
(0.000267213 -0.753401 -0 -0.000267196 -0 -1.71418e-08)
(0.000214183 -0.708326 -0 -0.000204737 -0 -9.44664e-06)
(0.000187079 -0.677451 -0 -0.00018237 -0 -4.7094e-06)
(0.000157252 -0.645885 -0 -0.000143702 -0 -1.35503e-05)
(0.000146623 -0.623939 -0 -0.000137316 -0 -9.30632e-06)
(0.000128851 -0.599441 -0 -0.000111342 -0 -1.75095e-05)
(0.000123428 -0.58207 -0 -0.000109611 -0 -1.38172e-05)
(0.000110935 -0.5621 -0 -8.98886e-05 -0 -2.10463e-05)
(0.000107783 -0.547527 -0 -8.96298e-05 -0 -1.81534e-05)
(9.98306e-05 -0.530748 -0 -7.54867e-05 -0 -2.43439e-05)
(9.87971e-05 -0.517833 -0 -7.61415e-05 -0 -2.26556e-05)
(9.50964e-05 -0.50315 -0 -6.72073e-05 -0 -2.78891e-05)
(9.58306e-05 -0.491048 -0 -6.81908e-05 -0 -2.76399e-05)
(9.57068e-05 -0.477601 -0 -6.36396e-05 -0 -3.20672e-05)
(9.78312e-05 -0.465744 -0 -6.45588e-05 -0 -3.32723e-05)
(0.000100284 -0.45291 -0 -6.31102e-05 -0 -3.71738e-05)
(0.000103335 -0.440983 -0 -6.36397e-05 -0 -3.96949e-05)
(0.000106819 -0.428374 -0 -6.33973e-05 -0 -4.34213e-05)
(0.000110647 -0.416342 -0 -6.36581e-05 -0 -4.69888e-05)
(0.000111306 -0.403711 -0 -6.06515e-05 -0 -5.06542e-05)
(0.000115458 -0.392111 -0 -6.05627e-05 -0 -5.48957e-05)
(0.000170261 -0.379249 -0 -0.000111646 -0 -5.86152e-05)
(0.000143979 -0.363091 -0 -8.06105e-05 -0 -6.33684e-05)
(5.48065e-05 -0.353363 -0 1.05437e-05 -0 -6.53502e-05)
(6.05091e-05 -0.34658 -0 8.93193e-06 -0 -6.94411e-05)
(9.58933e-05 -0.337916 -0 -2.36845e-05 -0 -7.22088e-05)
(9.25379e-05 -0.328777 -0 -1.60473e-05 -0 -7.64906e-05)
(8.07339e-05 -0.321076 -0 -1.54011e-06 -0 -7.91938e-05)
(7.3143e-05 -0.314128 -0 1.09847e-05 -0 -8.41277e-05)
(6.33465e-05 -0.308138 -0 2.46531e-05 -0 -8.79996e-05)
(5.102e-05 -0.303104 -0 4.28175e-05 -0 -9.38375e-05)
(3.69849e-05 -0.299063 -0 6.19351e-05 -0 -9.892e-05)
(2.07428e-05 -0.296128 -0 8.50537e-05 -0 -0.000105797)
(5.752e-06 -0.29418 -0 0.00010643 -0 -0.000112182)
(-1.1036e-05 -0.293202 -0 0.000131102 -0 -0.000120066)
(-2.77918e-05 -0.293132 -0 0.000155275 -0 -0.000127483)
(-4.63686e-05 -0.29399 -0 0.000182519 -0 -0.00013615)
(-6.52231e-05 -0.29573 -0 0.000209477 -0 -0.000144254)
(-8.59334e-05 -0.298396 -0 0.000239318 -0 -0.000153385)
(-0.000106754 -0.301933 -0 0.000268408 -0 -0.000161655)
(-0.00013207 -0.306394 -0 0.000302965 -0 -0.000170894)
(-0.00015636 -0.311875 -0 0.000335493 -0 -0.000179133)
(-0.000190818 -0.318217 -0 0.000379973 -0 -0.000189155)
(-0.000220843 -0.325944 -0 0.000421099 -0 -0.000200256)
(-0.000252277 -0.334375 -0 0.000471313 -0 -0.000219036)
(-0.000278468 -0.343953 -0 0.000532258 -0 -0.000253791)
(-0.000276757 -0.353951 -0 0.000586319 -0 -0.000309562)
(-0.000295311 -0.363306 -0 0.000708563 -0 -0.000413252)
(-0.00028947 -0.372931 -0 0.000830999 -0 -0.000541529)
(-0.000354037 -0.379592 -0 0.00106462 -0 -0.000710578)
(-0.000483176 -0.388069 -0 0.00138532 -0 -0.000902139)
(-0.000652512 -0.393467 -0 0.00168389 -0 -0.00103138)
(-0.000953078 -0.404296 -0 0.00218595 -0 -0.00123287)
(-0.00118327 -0.412787 -0 0.00238576 -0 -0.00120249)
(-0.00127416 -0.434446 -0 0.0025518 -0 -0.00127765)
(-0.000629192 -0.444858 -0 0.00197763 -0 -0.00134844)
(-7.70377e-05 -0.466541 -0 0.00155656 -0 -0.00147952)
(-0.000247487 -0.531457 -0 0.00175649 -0 -0.001509)
(-0.00222247 -0.597673 -0 0.00447496 -0 -0.00225249)
(-0.0039523 -0.642594 -0 0.00610099 -0 -0.00214869)
(-0.0034718 -0.696909 -0 0.00581523 -0 -0.00234342)
(-0.00232408 -0.732384 -0 0.00492821 -0 -0.00260413)
(-0.00211907 -0.778319 -0 0.00518576 -0 -0.00306669)
(-0.00238792 -0.814924 -0 0.00565846 -0 -0.00327054)
(-0.0037538 -0.865461 -0 0.00748296 -0 -0.00372915)
(-0.00483738 -0.903099 -0 0.00798221 -0 -0.00314483)
(-0.00645995 -0.957639 -0 0.0096047 -0 -0.00314475)
(-0.00739112 -1.00794 -0 0.00968295 -0 -0.00229183)
(-0.00818623 -1.07819 -0 0.0103617 -0 -0.00217548)
(-0.00800778 -1.14834 -0 0.00993007 -0 -0.00192228)
(-0.00777266 -1.22924 -0 0.0100005 -0 -0.00222787)
(-0.00706093 -1.30622 -0 0.009678 -0 -0.00261708)
(-0.00680581 -1.37922 -0 0.0103703 -0 -0.00356449)
(-0.00735758 -1.44462 -0 0.0113125 -0 -0.0039549)
(-0.00931574 -1.48706 -0 0.0150093 -0 -0.00569354)
(-0.0141541 -1.53058 -0 0.0186477 -0 -0.00449366)
(-0.0206574 -1.52036 -0 0.0282261 -0 -0.00756863)
(-0.0320628 -1.56582 -0 0.0338019 -0 -0.00173905)
(-0.0507678 -1.45939 -0 0.0627508 -0 -0.011983)
(-0.012332 -1.65278 -0 0.00208119 -0 0.0102508)
(-0.288333 -2.15783 -0 0.303762 -0 -0.0154288)
(-0.29008 -1.29973 -0 0.281485 -0 0.00859504)
(0.01139 -1.65568 -0 -0.011404 -0 1.40942e-05)
(0.00456852 -1.3803 -0 -0.0045959 -0 2.73744e-05)
(0.00167798 -1.10189 -0 -0.00169923 -0 2.12483e-05)
(0.000901243 -0.950365 -0 -0.00091353 -0 1.22869e-05)
(0.000619821 -0.862041 -0 -0.000629798 -0 9.97692e-06)
(0.000461818 -0.791967 -0 -0.000457466 -0 -4.35156e-06)
(0.000377676 -0.744797 -0 -0.000377727 -0 5.07657e-08)
(0.000303506 -0.700757 -0 -0.000290526 -0 -1.29801e-05)
(0.000265077 -0.670474 -0 -0.000258707 -0 -6.3702e-06)
(0.000222839 -0.639446 -0 -0.000204255 -0 -1.85841e-05)
(0.00020712 -0.617923 -0 -0.000194483 -0 -1.26369e-05)
(0.000181767 -0.593952 -0 -0.000157795 -0 -2.3972e-05)
(0.000173537 -0.577058 -0 -0.000154719 -0 -1.88183e-05)
(0.000155815 -0.557644 -0 -0.000127034 -0 -2.87817e-05)
(0.000150859 -0.543583 -0 -0.000126104 -0 -2.47543e-05)
(0.000139485 -0.52739 -0 -0.000106238 -0 -3.32468e-05)
(0.000137448 -0.515059 -0 -0.000106565 -0 -3.08832e-05)
(0.000131909 -0.50104 -0 -9.38869e-05 -0 -3.80226e-05)
(0.000132281 -0.489651 -0 -9.46545e-05 -0 -3.76268e-05)
(0.000131614 -0.476995 -0 -8.79896e-05 -0 -4.36248e-05)
(0.000133864 -0.466021 -0 -8.8664e-05 -0 -4.52004e-05)
(0.000136673 -0.454145 -0 -8.62292e-05 -0 -5.04439e-05)
(0.000140153 -0.443295 -0 -8.63647e-05 -0 -5.37885e-05)
(0.000144289 -0.431834 -0 -8.5535e-05 -0 -5.87537e-05)
(0.000148818 -0.421076 -0 -8.53317e-05 -0 -6.34863e-05)
(0.000149122 -0.409791 -0 -8.0809e-05 -0 -6.83127e-05)
(0.000154552 -0.399574 -0 -8.0642e-05 -0 -7.39099e-05)
(0.000219166 -0.388187 -0 -0.000140728 -0 -7.84384e-05)
(0.000187136 -0.375864 -0 -0.000103193 -0 -8.39431e-05)
(7.7381e-05 -0.36686 -0 1.06899e-05 -0 -8.8071e-05)
(7.9592e-05 -0.360356 -0 1.34432e-05 -0 -9.30352e-05)
(0.000120628 -0.353192 -0 -2.43841e-05 -0 -9.62441e-05)
(0.000114771 -0.345988 -0 -1.31519e-05 -0 -0.000101619)
(9.70712e-05 -0.339924 -0 7.91633e-06 -0 -0.000104988)
(8.3529e-05 -0.334838 -0 2.7543e-05 -0 -0.000111072)
(6.71882e-05 -0.330792 -0 4.8539e-05 -0 -0.000115727)
(4.71355e-05 -0.327838 -0 7.56992e-05 -0 -0.000122835)
(2.4635e-05 -0.325977 -0 0.000104223 -0 -0.000128858)
(-1.07812e-06 -0.325315 -0 0.000138121 -0 -0.000137043)
(-2.54057e-05 -0.325759 -0 0.000169839 -0 -0.000144433)
(-5.20343e-05 -0.327293 -0 0.000205612 -0 -0.000153577)
(-7.8765e-05 -0.329825 -0 0.000240716 -0 -0.000161951)
(-0.000107929 -0.333389 -0 0.000279624 -0 -0.000171694)
(-0.000137668 -0.337912 -0 0.000318199 -0 -0.000180531)
(-0.000169891 -0.343457 -0 0.000360305 -0 -0.000190415)
(-0.00020251 -0.349944 -0 0.000401525 -0 -0.000199015)
(-0.000241046 -0.357448 -0 0.000449621 -0 -0.000208575)
(-0.000278736 -0.366 -0 0.000495466 -0 -0.00021673)
(-0.000329446 -0.375536 -0 0.000556316 -0 -0.00022687)
(-0.00037657 -0.386349 -0 0.000614837 -0 -0.000238267)