/*--------------------------------*- C++ -*----------------------------------*\
| =========                 |                                                 |
| \\      /  F ield         | OpenFOAM: The Open Source CFD Toolbox           |
|  \\    /   O peration     | Version:  2306                                  |
|   \\  /    A nd           | Website:  www.openfoam.com                      |
|    \\/     M anipulation  |                                                 |
\*---------------------------------------------------------------------------*/
FoamFile
{
    version     2.0;
    format      ascii;
    arch        "LSB;label=32;scalar=64";
    class       volVectorField;
    location    "700";
    object      U;
}
// * * * * * * * * * * * * * * * * * * * * * * * * * * * * * * * * * * * * * //

dimensions      [0 1 -1 0 0 0 0];

internalField   nonuniform List<vector> 
20540
(
(30.0168 -0.000532792 0)
(58.6795 0.00528908 0)
(30.0947 -0.00170373 0)
(58.5778 0.0156956 0)
(30.2922 -0.00311098 0)
(58.2726 0.0263512 0)
(30.6735 -0.00474962 0)
(57.6642 0.0367373 0)
(31.3213 -0.00660201 0)
(56.6429 0.0462867 0)
(32.3271 -0.00859436 0)
(55.1088 0.0542857 0)
(33.7661 -0.0105713 0)
(53.0131 0.059962 0)
(35.652 -0.0122732 0)
(50.4247 0.0626725 0)
(37.8802 -0.0133527 0)
(47.6085 0.062206 0)
(40.1926 -0.013488 0)
(45.0636 0.0591544 0)
(42.2144 -0.0126237 0)
(43.403 0.055095 0)
(43.5943 -0.0112 0)
(42.9841 0.0520737 0)
(44.2051 -0.0100159 0)
(43.5029 0.0511977 0)
(44.2671 -0.0095641 0)
(44.1511 0.0516545 0)
(44.181 -0.00957072 0)
(44.4074 0.0519281 0)
(44.1588 -0.00957134 0)
(44.3984 0.0516032 0)
(44.174 -0.00947522 0)
(44.3694 0.0509489 0)
(44.1848 -0.00932643 0)
(44.3618 0.0500542 0)
(44.1929 -0.00913008 0)
(44.3569 0.0489337 0)
(44.2011 -0.00889729 0)
(44.3525 0.0476458 0)
(44.2078 -0.00861538 0)
(44.3497 0.0461469 0)
(44.213 -0.00827627 0)
(44.3482 0.0444097 0)
(44.217 -0.00787313 0)
(44.3475 0.0423905 0)
(44.2201 -0.00739921 0)
(44.3477 0.0400402 0)
(44.2226 -0.00685979 0)
(44.3485 0.0372987 0)
(44.2245 -0.00623566 0)
(44.3499 0.0340563 0)
(44.226 -0.00550592 0)
(44.3518 0.0301991 0)
(44.2271 -0.00495508 0)
(44.3542 0.0254987 0)
(44.228 -0.0046309 0)
(44.357 0.018608 0)
(44.2285 -0.0033295 0)
(44.3601 0.00792887 0)
(44.2304 -0.00249926 0)
(44.3615 -0.00266707 0)
(44.2333 -0.00226463 0)
(44.3615 -0.0106907 0)
(44.2368 -0.00154447 0)
(44.3605 -0.0180837 0)
(44.2401 -0.00136307 0)
(44.359 -0.0258497 0)
(44.2429 -0.000239126 0)
(44.3569 -0.0354111 0)
(44.2461 0.000745405 0)
(44.3538 -0.0435298 0)
(44.2497 0.0010912 0)
(44.35 -0.0478906 0)
(44.2527 0.00203591 0)
(44.3463 -0.0504155 0)
(44.2552 0.00295947 0)
(44.3427 -0.0517902 0)
(44.2567 0.0038712 0)
(44.3397 -0.0524823 0)
(44.2571 0.00473951 0)
(44.3375 -0.0528353 0)
(44.256 0.00552578 0)
(44.3363 -0.0530202 0)
(44.2532 0.00622211 0)
(44.3362 -0.0531346 0)
(44.2481 0.00682774 0)
(44.3377 -0.0532303 0)
(44.2401 0.00735149 0)
(44.3412 -0.0533296 0)
(44.2287 0.00779706 0)
(44.3475 -0.0534208 0)
(44.2164 0.00814816 0)
(44.3554 -0.0534648 0)
(44.2071 0.00844414 0)
(44.3602 -0.0535329 0)
(44.1958 0.00868611 0)
(44.3716 -0.0535554 0)
(44.1943 0.00886179 0)
(44.4007 -0.0534914 0)
(44.2529 0.00894654 0)
(44.3207 -0.0531114 0)
(44.3156 0.00919389 0)
(43.8821 -0.0523034 0)
(44.0816 0.0100538 0)
(43.205 -0.0520198 0)
(43.2152 0.0114743 0)
(42.9626 -0.0535655 0)
(41.6355 0.0128121 0)
(43.7882 -0.0569815 0)
(39.5484 0.013414 0)
(45.725 -0.0607522 0)
(37.2977 0.0130419 0)
(48.3256 -0.0630417 0)
(35.202 0.0118453 0)
(51.0375 -0.0626698 0)
(33.4614 0.0101386 0)
(53.4583 -0.0593177 0)
(32.1439 0.00822408 0)
(55.3921 -0.0532916 0)
(31.2237 0.00631994 0)
(56.8013 -0.0452128 0)
(30.6285 0.00455584 0)
(57.7404 -0.035778 0)
(30.2754 0.00299422 0)
(58.3028 -0.0256147 0)
(30.0905 0.00165142 0)
(58.5875 -0.0152292 0)
(30.0165 0.000514279 0)
(58.6843 -0.00513935 0)
(3.07823 0.00686363 0)
(1.27361 0.00010795 0)
(0.993621 2.85156e-05 0)
(0.860384 1.69684e-05 0)
(0.778242 1.73597e-05 0)
(0.712883 2.7456e-06 0)
(0.666613 1.06174e-05 0)
(0.624665 -2.4877e-06 0)
(0.595617 9.17572e-06 0)
(0.566859 -2.21576e-06 0)
(0.546035 8.49145e-06 0)
(0.523401 -1.43209e-06 0)
(0.506361 6.65938e-06 0)
(0.487496 -1.30861e-06 0)
(0.472881 4.13697e-06 0)
(0.456725 -1.54356e-06 0)
(0.443535 1.44268e-06 0)
(0.429042 -2.14084e-06 0)
(0.416386 -1.28479e-06 0)
(0.402648 -3.19703e-06 0)
(0.38987 -3.96108e-06 0)
(0.376197 -4.70616e-06 0)
(0.362875 -6.5533e-06 0)
(0.348782 -6.67757e-06 0)
(0.334737 -9.0984e-06 0)
(0.319894 -9.0838e-06 0)
(0.305656 -1.16154e-05 0)
(0.290294 -7.54664e-06 0)
(0.265678 5.45628e-07 0)
(0.254775 -1.66886e-05 0)
(0.246593 -1.65051e-05 0)
(0.234255 -1.31476e-05 0)
(0.220609 -1.15877e-05 0)
(0.208629 -1.13964e-05 0)
(0.196707 -1.22304e-05 0)
(0.185274 -1.15445e-05 0)
(0.174067 -1.29798e-05 0)
(0.163104 -1.34642e-05 0)
(0.152435 -1.53929e-05 0)
(0.141828 -1.6427e-05 0)
(0.13125 -1.86268e-05 0)
(0.1207 -2.0164e-05 0)
(0.110223 -2.25339e-05 0)
(0.0999012 -2.45006e-05 0)
(0.0898411 -2.73141e-05 0)
(0.0801616 -2.98371e-05 0)
(0.0709927 -3.36908e-05 0)
(0.0626703 -3.80377e-05 0)
(0.0550537 -4.47152e-05 0)
(0.0491965 -5.46059e-05 0)
(0.0439485 -6.8591e-05 0)
(0.0403074 -9.71845e-05 0)
(0.035398 -0.000131084 0)
(0.028247 -0.000210328 0)
(0.0152011 -0.000283645 0)
(-0.00465145 -0.000417862 0)
(-0.0317858 -0.000530849 0)
(-0.0629881 -0.000639358 0)
(-0.0952071 -0.000754471 0)
(-0.123555 -0.000755126 0)
(-0.143412 -0.00085215 0)
(-0.189095 -0.000458984 0)
(-0.309302 0.0004225 0)
(-0.437824 0.000298352 0)
(-0.505637 -0.000940804 0)
(-0.518736 -0.00102289 0)
(-0.514977 -0.00112963 0)
(-0.559084 -0.00113952 0)
(-0.610492 -0.00166045 0)
(-0.68666 -0.00196749 0)
(-0.752889 -0.00254903 0)
(-0.816085 -0.00227488 0)
(-0.840221 -0.00266726 0)
(-0.854543 -0.00183621 0)
(-0.827326 -0.00179218 0)
(-0.82046 -0.0014038 0)
(-0.802827 -0.00169268 0)
(-0.828729 -0.00249383 0)
(-0.861739 -0.00378207 0)
(-0.936186 -0.00571345 0)
(-0.993332 -0.00798308 0)
(-1.06498 -0.0102526 0)
(-1.00882 -0.0130674 0)
(-0.978551 -0.0157487 0)
(-0.427636 -0.00479379 0)
(-0.0736908 -0.0140122 0)
(-0.137461 -0.0145977 0)
(3.24633 -0.0251728 0)
(9.07902 0.0215184 0)
(4.0517 0.00118952 0)
(3.1236 0.000268327 0)
(2.68245 0.000138864 0)
(2.41958 0.00010082 0)
(2.21897 6.82006e-05 0)
(2.07975 5.83058e-05 0)
(1.95498 4.11436e-05 0)
(1.86643 3.38858e-05 0)
(1.77801 2.51111e-05 0)
(1.71286 2.02742e-05 0)
(1.64184 1.54199e-05 0)
(1.58838 1.24949e-05 0)
(1.52883 8.55496e-06 0)
(1.48272 7.31277e-06 0)
(1.43118 3.63904e-06 0)
(1.38909 3.86133e-06 0)
(1.3424 3.50193e-07 0)
(1.30172 1.58461e-06 0)
(1.25737 -1.77581e-06 0)
(1.21635 -7.19941e-08 0)
(1.17252 -3.28522e-06 0)
(1.1302 -1.62654e-06 0)
(1.08582 -4.78965e-06 0)
(1.04213 -3.53648e-06 0)
(0.99658 -7.30789e-06 0)
(0.953443 -7.53277e-06 0)
(0.90693 2.53935e-06 0)
(0.833749 -1.39487e-05 0)
(0.801696 -2.9066e-05 0)
(0.777689 -3.06985e-05 0)
(0.740325 -2.47308e-05 0)
(0.69894 -2.88656e-05 0)
(0.662598 -3.42324e-05 0)
(0.626223 -3.83583e-05 0)
(0.59159 -4.35508e-05 0)
(0.558312 -4.87227e-05 0)
(0.526759 -5.47238e-05 0)
(0.497306 -6.12237e-05 0)
(0.469485 -6.79631e-05 0)
(0.443268 -7.52846e-05 0)
(0.418561 -8.31928e-05 0)
(0.39526 -9.19399e-05 0)
(0.373254 -0.000101261 0)
(0.352464 -0.000111317 0)
(0.332752 -0.000121806 0)
(0.314066 -0.000133297 0)
(0.296899 -0.000144366 0)
(0.280269 -0.000157896 0)
(0.26658 -0.000169521 0)
(0.251095 -0.000184233 0)
(0.235765 -0.000197329 0)
(0.212219 -0.000217984 0)
(0.177363 -0.000256481 0)
(0.128862 -0.000310232 0)
(0.0631852 -0.000431102 0)
(-0.00694308 -0.000554624 0)
(-0.0789293 -0.00076046 0)
(-0.136286 -0.000946906 0)
(-0.184838 -0.0011392 0)
(-0.201542 -0.00109656 0)
(-0.242641 -0.00103549 0)
(-0.427197 -0.00102504 0)
(-0.742706 -0.00189554 0)
(-0.977596 -0.00269779 0)
(-1.02829 -0.00402827 0)
(-0.995455 -0.00343076 0)
(-1.11218 -0.00453487 0)
(-1.23976 -0.00388493 0)
(-1.43336 -0.00573511 0)
(-1.57082 -0.00576929 0)
(-1.66644 -0.00684021 0)
(-1.65525 -0.00691505 0)
(-1.63155 -0.00639613 0)
(-1.52736 -0.00616058 0)
(-1.52201 -0.00575547 0)
(-1.51236 -0.00576778 0)
(-1.6319 -0.00706705 0)
(-1.73158 -0.00877291 0)
(-1.90397 -0.0115278 0)
(-1.91953 -0.015952 0)
(-1.97433 -0.0181554 0)
(-1.53851 -0.0283429 0)
(-1.26585 -0.0259786 0)
(0.485699 -0.0718278 0)
(0.290207 0.0102527 0)
(-1.16671 -0.166996 0)
(12.73 -0.0436584 0)
(15.3392 0.0382931 0)
(7.41435 0.00381694 0)
(5.71492 0.000956293 0)
(4.91431 0.000512133 0)
(4.4374 0.000361335 0)
(4.06953 0.00024328 0)
(3.81496 0.000211685 0)
(3.58456 0.000141881 0)
(3.42319 0.000138465 0)
(3.26134 9.11831e-05 0)
(3.14423 9.81267e-05 0)
(3.01586 6.29882e-05 0)
(2.92072 7.09573e-05 0)
(2.81396 4.26048e-05 0)
(2.73254 4.95323e-05 0)
(2.64098 2.76465e-05 0)
(2.56727 3.30318e-05 0)
(2.48509 1.71685e-05 0)
(2.41438 2.0432e-05 0)
(2.33696 9.62389e-06 0)
(2.26603 1.05723e-05 0)
(2.18999 3.38259e-06 0)
(2.11703 2.01597e-06 0)
(2.04027 -3.57504e-06 0)
(1.96503 -6.80646e-06 0)
(1.88632 -1.43735e-05 0)
(1.81209 -2.00218e-05 0)
(1.73149 2.72824e-05 0)
(1.60779 -1.87531e-06 0)
(1.5518 -9.79108e-05 0)
(1.51105 -9.60927e-05 0)
(1.44849 -6.59219e-05 0)
(1.37959 -7.45941e-05 0)
(1.31987 -8.84448e-05 0)
(1.26093 -0.000101513 0)
(1.20552 -0.000114273 0)
(1.15297 -0.000133147 0)
(1.10379 -0.000151906 0)
(1.05857 -0.00017624 0)
(1.01642 -0.000198449 0)
(0.977283 -0.00022556 0)
(0.940985 -0.000251826 0)
(0.907461 -0.000282473 0)
(0.876609 -0.000312426 0)
(0.848464 -0.000346415 0)
(0.822912 -0.000379142 0)
(0.800028 -0.000418224 0)
(0.780795 -0.000454994 0)
(0.763683 -0.000504946 0)
(0.753041 -0.000552942 0)
(0.74136 -0.000616033 0)
(0.732512 -0.000704344 0)
(0.713159 -0.00081421 0)
(0.678185 -0.00105897 0)
(0.622891 -0.00135376 0)
(0.539097 -0.00187318 0)
(0.447265 -0.00250177 0)
(0.34736 -0.00312217 0)
(0.271157 -0.00398854 0)
(0.206517 -0.00426615 0)
(0.201504 -0.00455919 0)
(0.142022 -0.00374299 0)
(-0.0938396 -0.00263754 0)
(-0.431128 -0.00355783 0)
(-0.671043 -0.00849989 0)
(-0.690086 -0.0116795 0)
(-0.569104 -0.0112988 0)
(-0.689455 -0.0124821 0)
(-0.802866 -0.0133165 0)
(-1.02568 -0.016669 0)
(-1.13889 -0.0196335 0)
(-1.21351 -0.0205679 0)
(-1.11143 -0.0220221 0)
(-1.02106 -0.0186247 0)
(-0.785629 -0.0178196 0)
(-0.689136 -0.0155818 0)
(-0.538001 -0.0158559 0)
(-0.561376 -0.0190795 0)
(-0.545026 -0.0252125 0)
(-0.663313 -0.0334874 0)
(-0.565149 -0.0493046 0)
(-0.575517 -0.0554081 0)
(0.121945 -0.0872488 0)
(0.397843 -0.0853196 0)
(2.55058 -0.146381 0)
(2.80501 0.0319465 0)
(1.55321 -0.547878 0)
(21.115 -0.866962 0)
(21.6894 0.0570744 0)
(11.4344 0.00848257 0)
(8.8174 0.00232786 0)
(7.58324 0.00124145 0)
(6.85242 0.000864953 0)
(6.28558 0.000599229 0)
(5.89579 0.000508239 0)
(5.54041 0.000358563 0)
(5.29344 0.000335043 0)
(5.04436 0.000235309 0)
(4.86642 0.000239693 0)
(4.67023 0.000166886 0)
(4.52677 0.000176973 0)
(4.36458 0.000118826 0)
(4.24249 0.000128731 0)
(4.1042 8.43679e-05 0)
(3.9943 9.24911e-05 0)
(3.87104 6.10298e-05 0)
(3.76622 6.58302e-05 0)
(3.65093 4.52279e-05 0)
(3.54635 4.60186e-05 0)
(3.43391 3.30977e-05 0)
(3.32686 2.96527e-05 0)
(3.21405 1.98736e-05 0)
(3.10417 1.30587e-05 0)
(2.98907 -1.82534e-06 0)
(2.88121 -1.24733e-05 0)
(2.76343 9.1972e-05 0)
(2.58991 1.75883e-05 0)
(2.50657 -0.000183841 0)
(2.44698 -0.000183286 0)
(2.35862 -0.00011711 0)
(2.26206 -0.000139057 0)
(2.17906 -0.000171379 0)
(2.09854 -0.000203376 0)
(2.02405 -0.00023503 0)
(1.95482 -0.000280197 0)
(1.89149 -0.000325409 0)
(1.83496 -0.000382934 0)
(1.78396 -0.000435748 0)
(1.73839 -0.000499179 0)
(1.69794 -0.000560684 0)
(1.66259 -0.000631762 0)
(1.63215 -0.000701203 0)
(1.60677 -0.000779474 0)
(1.58624 -0.00085467 0)
(1.57074 -0.000944041 0)
(1.56163 -0.00102753 0)
(1.55682 -0.0011407 0)
(1.56241 -0.00124837 0)
(1.56843 -0.0013907 0)
(1.58037 -0.00158667 0)
(1.58156 -0.00182374 0)
(1.56416 -0.00233294 0)
(1.52461 -0.00293784 0)
(1.44676 -0.00395724 0)
(1.36372 -0.00524419 0)
(1.26478 -0.0064199 0)
(1.20419 -0.00820713 0)
(1.15162 -0.00870005 0)
(1.19493 -0.00931726 0)
(1.15191 -0.00783171 0)
(0.938211 -0.00620703 0)
(0.709753 -0.00713864 0)
(0.609396 -0.0170801 0)
(0.698633 -0.0224558 0)
(0.968575 -0.022199 0)
(0.922959 -0.0226713 0)
(0.916511 -0.0247869 0)
(0.762272 -0.0291165 0)
(0.7669 -0.0357348 0)
(0.766272 -0.0360353 0)
(1.01329 -0.0398896 0)
(1.23741 -0.034404 0)
(1.6958 -0.0340885 0)
(2.01268 -0.0304085 0)
(2.43622 -0.0312121 0)
(2.66159 -0.0350014 0)
(2.92607 -0.0441262 0)
(3.00669 -0.0556633 0)
(3.26165 -0.0804916 0)
(3.35493 -0.092137 0)
(4.11787 -0.141987 0)
(4.4897 -0.144554 0)
(6.5542 -0.253671 0)
(7.53224 0.0752018 0)
(8.23098 -1.02166 0)
(26.2882 -1.20818 0)
(27.9059 0.0774857 0)
(16.1604 0.0156373 0)
(12.5216 0.00476261 0)
(10.7703 0.00253898 0)
(9.73956 0.00176177 0)
(8.93601 0.001233 0)
(8.3869 0.00103754 0)
(7.88307 0.000745548 0)
(7.5344 0.00068775 0)
(7.18101 0.000493557 0)
(6.93077 0.000493919 0)
(6.65377 0.00035308 0)
(6.45328 0.000367125 0)
(6.2254 0.000255439 0)
(6.05564 0.000270497 0)
(5.86233 0.00018574 0)
(5.71035 0.000198339 0)
(5.53918 0.000138656 0)
(5.39518 0.000145695 0)
(5.23631 0.000107098 0)
(5.09361 0.000107129 0)
(4.93989 8.33586e-05 0)
(4.7948 7.5808e-05 0)
(4.64177 5.79038e-05 0)
(4.49382 4.44333e-05 0)
(4.33877 1.6224e-05 0)
(4.19448 -2.76913e-06 0)
(4.03618 0.000189981 0)
(3.81552 5.13521e-05 0)
(3.70059 -0.000332147 0)
(3.6187 -0.000338304 0)
(3.50396 -0.000216473 0)
(3.3801 -0.000261978 0)
(3.27407 -0.000329158 0)
(3.17347 -0.000396287 0)
(3.08224 -0.000463384 0)
(2.99973 -0.000556524 0)
(2.92665 -0.000650172 0)
(2.86429 -0.000767244 0)
(2.81106 -0.00087531 0)
(2.76676 -0.00100301 0)
(2.73087 -0.00112689 0)
(2.70343 -0.00126842 0)
(2.68406 -0.00140663 0)
(2.67306 -0.00156087 0)
(2.66997 -0.00170887 0)
(2.67519 -0.00188297 0)
(2.69027 -0.00204544 0)
(2.71274 -0.0022633 0)
(2.75006 -0.00247237 0)
(2.79071 -0.00274816 0)
(2.84118 -0.00313198 0)
(2.88398 -0.00358024 0)
(2.90751 -0.0045205 0)
(2.91291 -0.00558358 0)
(2.87215 -0.00733653 0)
(2.83483 -0.00952971 0)
(2.77061 -0.0114556 0)
(2.76311 -0.0144674 0)
(2.75238 -0.015263 0)
(2.88119 -0.0162897 0)
(2.88745 -0.0139408 0)
(2.79111 -0.0119803 0)
(2.8627 -0.0136608 0)
(3.03378 -0.0290613 0)
(3.29048 -0.0368399 0)
(3.74121 -0.0361307 0)
(3.84106 -0.0353813 0)
(4.01065 -0.0383406 0)
(4.01689 -0.0437368 0)
(4.21484 -0.0535238 0)
(4.37486 -0.0543084 0)
(4.80897 -0.0606517 0)
(5.20556 -0.0551174 0)
(5.8613 -0.056079 0)
(6.37791 -0.0518674 0)
(7.00992 -0.0532803 0)
(7.44637 -0.0566069 0)
(7.89623 -0.0675626 0)
(8.17156 -0.0795826 0)
(8.51901 -0.111576 0)
(8.77719 -0.124623 0)
(9.39271 -0.194744 0)
(9.95335 -0.191028 0)
(11.4026 -0.372281 0)
(12.8368 0.050029 0)
(14.5568 -1.50945 0)
(29.6142 -1.70244 0)
(33.7004 0.0987051 0)
(21.5435 0.0255719 0)
(16.9018 0.00873512 0)
(14.5575 0.00469196 0)
(13.1793 0.00324935 0)
(12.0986 0.00228825 0)
(11.3629 0.00191624 0)
(10.6845 0.00139339 0)
(10.2153 0.0012757 0)
(9.73857 0.000927717 0)
(9.40271 0.000917565 0)
(9.0307 0.000665927 0)
(8.76334 0.00068354 0)
(8.45881 0.000485238 0)
(8.23364 0.000506519 0)
(7.97666 0.0003566 0)
(7.77642 0.000374603 0)
(7.55047 0.000269375 0)
(7.36228 0.000278385 0)
(7.15435 0.00021064 0)
(6.96952 0.000207966 0)
(6.77023 0.000166446 0)
(6.5839 0.000150959 0)
(6.38736 0.000119583 0)
(6.19895 9.43175e-05 0)
(6.00147 4.46358e-05 0)
(5.8191 1.25606e-05 0)
(5.61824 0.000321877 0)
(5.35551 8.79097e-05 0)
(5.20638 -0.000549847 0)
(5.09917 -0.000578916 0)
(4.95872 -0.000385214 0)
(4.80996 -0.000468998 0)
(4.68302 -0.000592266 0)
(4.56582 -0.000720278 0)
(4.46231 -0.00084764 0)
(4.3721 -0.00102053 0)
(4.29584 -0.0011945 0)
(4.23521 -0.00140875 0)
(4.18826 -0.00160723 0)
(4.15475 -0.00183778 0)
(4.13371 -0.00206103 0)
(4.12536 -0.00231295 0)
(4.12898 -0.00255861 0)
(4.14517 -0.00283 0)
(4.17314 -0.00309025 0)
(4.21365 -0.00339368 0)
(4.26824 -0.00367773 0)
(4.3344 -0.00405439 0)
(4.4203 -0.00442193 0)
(4.51413 -0.00490393 0)
(4.62241 -0.00557929 0)
(4.72951 -0.00634478 0)
(4.81912 -0.00789288 0)
(4.89962 -0.0095569 0)
(4.92849 -0.012232 0)
(4.97335 -0.0155131 0)
(4.9781 -0.018308 0)
(5.05887 -0.0227361 0)
(5.11961 -0.0239622 0)
(5.36235 -0.0255062 0)
(5.44956 -0.0225335 0)
(5.55878 -0.0216674 0)
(6.03208 -0.0257198 0)
(6.49247 -0.0459375 0)
(6.91205 -0.0556481 0)
(7.49683 -0.0539158 0)
(7.74207 -0.0518258 0)
(8.06515 -0.0553806 0)
(8.23695 -0.0622574 0)
(8.59593 -0.0749719 0)
(8.91259 -0.0773198 0)
(9.47914 -0.0862754 0)
(10.0025 -0.0817627 0)
(10.751 -0.0845389 0)
(11.3695 -0.080024 0)
(12.07 -0.0823331 0)
(12.6018 -0.0841073 0)
(13.085 -0.0967996 0)
(13.4613 -0.106636 0)
(13.7429 -0.146265 0)
(14.1176 -0.155661 0)
(14.4191 -0.249984 0)
(15.131 -0.230705 0)
(15.8546 -0.484893 0)
(17.577 -0.0335015 0)
(19.2627 -1.96874 0)
(30.8638 -2.09678 0)
(38.726 0.119368 0)
(27.3746 0.0382292 0)
(21.9707 0.0147531 0)
(19.0072 0.0080873 0)
(17.2452 0.00560291 0)
(15.8516 0.0039743 0)
(14.902 0.00331431 0)
(14.0231 0.00243959 0)
(13.4132 0.00221854 0)
(12.794 0.00163579 0)
(12.3583 0.00159961 0)
(11.8776 0.00117959 0)
(11.5331 0.00119507 0)
(11.1417 0.000866773 0)
(10.8534 0.000891372 0)
(10.5249 0.000644693 0)
(10.2706 0.00066563 0)
(9.98409 0.000493576 0)
(9.74754 0.000501177 0)
(9.48645 0.000391416 0)
(9.25672 0.000381204 0)
(9.0092 0.000314807 0)
(8.78015 0.000284964 0)
(8.53873 0.000235058 0)
(8.30953 0.000190845 0)
(8.06939 0.000111233 0)
(7.84943 6.16816e-05 0)
(7.60649 0.000512647 0)
(7.30927 0.000145029 0)
(7.12667 -0.000818066 0)
(6.99293 -0.000893428 0)
(6.82932 -0.000618507 0)
(6.6607 -0.000760401 0)
(6.51764 -0.000966781 0)
(6.3898 -0.0011912 0)
(6.28078 -0.00141359 0)
(6.19058 -0.00170846 0)
(6.11948 -0.00200522 0)
(6.06945 -0.00236531 0)
(6.03817 -0.00270036 0)
(6.02532 -0.00308236 0)
(6.02941 -0.00345219 0)
(6.0509 -0.00386475 0)
(6.08872 -0.00426811 0)
(6.14391 -0.0047102 0)
(6.21524 -0.00513649 0)
(6.30399 -0.00562946 0)
(6.4113 -0.00609534 0)
(6.53492 -0.00670293 0)
(6.68262 -0.00730699 0)
(6.8434 -0.00808734 0)
(7.02248 -0.00917532 0)
(7.20787 -0.0103753 0)
(7.37832 -0.0126942 0)
(7.5506 -0.0150809 0)
(7.66829 -0.0188174 0)
(7.81567 -0.0232996 0)
(7.91136 -0.0270703 0)
(8.09932 -0.0330134 0)
(8.25057 -0.0349231 0)
(8.6106 -0.0370754 0)
(8.79539 -0.0341448 0)
(9.12456 -0.0366304 0)
(9.91729 -0.0448843 0)
(10.5582 -0.0685701 0)
(11.0675 -0.0790933 0)
(11.6824 -0.0756275 0)
(12.0025 -0.07232 0)
(12.3901 -0.0763698 0)
(12.661 -0.0853422 0)
(13.0905 -0.100851 0)
(13.4931 -0.105546 0)
(14.1003 -0.117158 0)
(14.6664 -0.113933 0)
(15.4028 -0.118514 0)
(16.0204 -0.113182 0)
(16.6693 -0.116406 0)
(17.1897 -0.11512 0)
(17.5865 -0.129856 0)
(17.9697 -0.134512 0)
(18.0999 -0.183166 0)
(18.4984 -0.183497 0)
(18.5162 -0.30582 0)
(19.2181 -0.263861 0)
(19.5003 -0.596869 0)
(21.1876 -0.143064 0)
(22.7588 -2.38601 0)
(31.2656 -2.46327 0)
(42.6089 0.137587 0)
(33.2321 0.0529038 0)
(27.5934 0.0231495 0)
(24.1087 0.0131591 0)
(21.9668 0.00916527 0)
(20.2461 0.00657421 0)
(19.0639 0.00546177 0)
(17.9654 0.00408573 0)
(17.1967 0.00368517 0)
(16.4193 0.00276995 0)
(15.8701 0.00267043 0)
(15.2695 0.00201626 0)
(14.8381 0.00200824 0)
(14.3517 0.00150348 0)
(13.993 0.00151576 0)
(13.5872 0.00114069 0)
(13.2737 0.00115157 0)
(12.9226 0.000893443 0)
(12.6344 0.000887954 0)
(12.3179 0.000726598 0)
(12.0419 0.000697951 0)
(11.7456 0.000603324 0)
(11.4741 0.000548801 0)
(11.1889 0.000478879 0)
(10.9208 0.000406918 0)
(10.6404 0.000291343 0)
(10.3859 0.000222439 0)
(10.1044 0.000835796 0)
(9.782 0.000287627 0)
(9.57075 -0.00106494 0)
(9.41194 -0.00121325 0)
(9.22921 -0.000858881 0)
(9.04759 -0.00108866 0)
(8.89514 -0.00141417 0)
(8.76374 -0.00178043 0)
(8.65646 -0.00214509 0)
(8.57367 -0.00261592 0)
(8.51506 -0.00309094 0)
(8.48265 -0.00365759 0)
(8.47372 -0.00418895 0)
(8.48793 -0.00478337 0)
(8.52326 -0.00536143 0)
(8.58045 -0.00599955 0)
(8.65803 -0.00662844 0)
(8.75756 -0.00731295 0)
(8.87718 -0.00797988 0)
(9.01874 -0.00874297 0)
(9.18228 -0.0094723 0)
(9.36614 -0.0104006 0)
(9.57619 -0.0113355 0)
(9.80309 -0.0125143 0)
(10.0493 -0.0141353 0)
(10.3073 -0.0158838 0)
(10.5515 -0.0191105 0)
(10.8066 -0.0223291 0)
(11.0065 -0.0272494 0)
(11.2473 -0.0330188 0)
(11.4299 -0.0379163 0)
(11.7141 -0.0454287 0)
(11.9511 -0.048346 0)
(12.3996 -0.0511615 0)
(12.6695 -0.0489495 0)
(13.1515 -0.0565887 0)
(14.0814 -0.0701487 0)
(14.7594 -0.0959222 0)
(15.2682 -0.105899 0)
(15.8252 -0.0999433 0)
(16.1412 -0.0956319 0)
(16.5154 -0.100424 0)
(16.8158 -0.112276 0)
(17.2487 -0.130758 0)
(17.6714 -0.138365 0)
(18.2551 -0.152521 0)
(18.7958 -0.150355 0)
(19.4545 -0.156226 0)
(20.0001 -0.148879 0)
(20.5321 -0.152759 0)
(20.9711 -0.146377 0)
(21.2332 -0.163665 0)
(21.555 -0.160366 0)
(21.544 -0.219125 0)
(21.871 -0.207273 0)
(21.7499 -0.357059 0)
(22.2331 -0.295107 0)
(22.5433 -0.705947 0)
(23.8183 -0.264189 0)
(25.283 -2.75968 0)
(31.1288 -2.77904 0)
(45.033 0.151221 0)
(38.4867 0.067991 0)
(33.3796 0.0337222 0)
(29.682 0.0202156 0)
(27.2584 0.0142864 0)
(25.2502 0.0104195 0)
(23.8431 0.0086415 0)
(22.5271 0.00659847 0)
(21.5914 0.00589828 0)
(20.65 0.0045444 0)
(19.9773 0.004309 0)
(19.2516 0.00335517 0)
(18.7249 0.00327524 0)
(18.1394 0.00255263 0)
(17.7035 0.00251498 0)
(17.2171 0.00198625 0)
(16.8394 0.00195653 0)
(16.4216 0.00159942 0)
(16.0789 0.00155619 0)
(15.7064 0.00133924 0)
(15.3832 0.00127259 0)
(15.0391 0.00115076 0)
(14.7265 0.00105621 0)
(14.4001 0.000967753 0)
(14.0963 0.000857341 0)
(13.7803 0.000700822 0)
(13.4958 0.000611851 0)
(13.182 0.00140201 0)
(12.8434 0.00061803 0)
(12.611 -0.00118583 0)
(12.4312 -0.00143512 0)
(12.2337 -0.00101369 0)
(12.045 -0.00137464 0)
(11.889 -0.00187024 0)
(11.7589 -0.00243371 0)
(11.6572 -0.00300069 0)
(11.5846 -0.00371278 0)
(11.5399 -0.004434 0)
(11.5252 -0.00527799 0)
(11.5371 -0.00607794 0)
(11.5756 -0.00695753 0)
(11.6381 -0.00781957 0)
(11.7258 -0.00876193 0)
(11.8367 -0.00970054 0)
(11.9731 -0.0107146 0)
(12.1321 -0.0117138 0)
(12.3165 -0.0128414 0)
(12.5242 -0.0139291 0)
(12.7551 -0.0152742 0)
(13.0114 -0.0166367 0)
(13.2867 -0.0183087 0)
(13.5793 -0.0205661 0)
(13.8864 -0.0229664 0)
(14.1792 -0.0272114 0)
(14.4883 -0.0313657 0)
(14.7433 -0.0375996 0)
(15.0467 -0.0447469 0)
(15.2906 -0.0509651 0)
(15.6395 -0.0601149 0)
(15.9383 -0.0643337 0)
(16.4329 -0.0678911 0)
(16.7591 -0.066911 0)
(17.3091 -0.0804715 0)
(18.2316 -0.0994752 0)
(18.8569 -0.126123 0)
(19.3125 -0.134415 0)
(19.7816 -0.125409 0)
(20.0611 -0.12046 0)
(20.3963 -0.126642 0)
(20.6936 -0.142299 0)
(21.0998 -0.16411 0)
(21.5015 -0.174961 0)
(22.0204 -0.191115 0)
(22.4857 -0.189221 0)
(23.024 -0.195247 0)
(23.4461 -0.184245 0)
(23.831 -0.188023 0)
(24.1347 -0.174737 0)
(24.2581 -0.194594 0)
(24.4563 -0.18199 0)
(24.3428 -0.250509 0)
(24.5164 -0.226465 0)
(24.3521 -0.398886 0)
(24.5476 -0.32703 0)
(24.9093 -0.807379 0)
(25.6799 -0.401985 0)
(27.0621 -3.05222 0)
(30.7356 -3.09255 0)
(45.8972 0.15856 0)
(42.4314 0.081032 0)
(38.6387 0.0452941 0)
(35.2635 0.029058 0)
(32.8154 0.021123 0)
(30.6631 0.0157741 0)
(29.0979 0.0131266 0)
(27.6113 0.0102648 0)
(26.5258 0.0091142 0)
(25.4367 0.00721692 0)
(24.6412 0.00673747 0)
(23.7965 0.00542199 0)
(23.1706 0.00519273 0)
(22.4883 0.0042173 0)
(21.9705 0.00406918 0)
(21.4042 0.0033673 0)
(20.958 0.00324856 0)
(20.4738 0.00278346 0)
(20.0736 0.0026649 0)
(19.6458 0.00239013 0)
(19.2744 0.0022571 0)
(18.8845 0.00210875 0)
(18.5319 0.00195301 0)
(18.1678 0.00184517 0)
(17.8317 0.00168168 0)
(17.4855 0.00147552 0)
(17.1756 0.00136075 0)
(16.8372 0.00233185 0)
(16.4892 0.00125171 0)
(16.2427 -0.00106975 0)
(16.047 -0.00145345 0)
(15.8383 -0.000981584 0)
(15.6453 -0.001524 0)
(15.4877 -0.00225387 0)
(15.3589 -0.00307507 0)
(15.2604 -0.00390837 0)
(15.193 -0.00492943 0)
(15.1552 -0.00596794 0)
(15.1486 -0.00716036 0)
(15.1698 -0.00830311 0)
(15.2189 -0.00954309 0)
(15.2933 -0.0107707 0)
(15.3949 -0.0121027 0)
(15.5216 -0.0134455 0)
(15.6762 -0.0148858 0)
(15.8551 -0.0163219 0)
(16.0625 -0.0179172 0)
(16.2932 -0.0194687 0)
(16.5503 -0.0213304 0)
(16.8303 -0.0232178 0)
(17.1317 -0.0254751 0)
(17.4466 -0.0284586 0)
(17.7781 -0.0316068 0)
(18.0941 -0.0369677 0)
(18.4297 -0.0421589 0)
(18.7134 -0.0498601 0)
(19.0509 -0.0585077 0)
(19.3304 -0.0662779 0)
(19.7154 -0.0772081 0)
(20.0509 -0.0829482 0)
(20.5569 -0.0873542 0)
(20.9113 -0.0879981 0)
(21.4688 -0.107481 0)
(22.3171 -0.131501 0)
(22.8578 -0.158065 0)
(23.2452 -0.163914 0)
(23.6309 -0.151714 0)
(23.8754 -0.146674 0)
(24.1706 -0.154986 0)
(24.447 -0.174984 0)
(24.7982 -0.199953 0)
(25.1374 -0.213508 0)
(25.5468 -0.230321 0)
(25.8887 -0.227157 0)
(26.2699 -0.231605 0)
(26.5284 -0.215108 0)
(26.7517 -0.217749 0)
(26.8837 -0.19586 0)
(26.8761 -0.218151 0)
(26.9032 -0.195821 0)
(26.7179 -0.27198 0)
(26.6623 -0.240143 0)
(26.5501 -0.425877 0)
(26.3945 -0.357354 0)
(26.8139 -0.88961 0)
(27.0658 -0.546948 0)
(28.3557 -3.27487 0)
(30.4063 -3.36423 0)
(45.5107 0.159434 0)
(44.5874 0.0894547 0)
(42.5403 0.0555729 0)
(40.0835 0.0384641 0)
(38.0266 0.0292058 0)
(36.019 0.0225425 0)
(34.4627 0.0189917 0)
(32.9315 0.0152562 0)
(31.7649 0.0135382 0)
(30.5871 0.0110238 0)
(29.6956 0.0101848 0)
(28.7612 0.00845551 0)
(28.0461 0.0079844 0)
(27.283 0.00672632 0)
(26.6866 0.00639344 0)
(26.0496 0.00550099 0)
(25.5357 0.00523288 0)
(24.9911 0.00464946 0)
(24.5339 0.00440784 0)
(24.0555 0.00406891 0)
(23.6373 0.00383241 0)
(23.2062 0.00365185 0)
(22.8165 0.00340555 0)
(22.4204 0.00326934 0)
(22.0562 0.00302943 0)
(21.6867 0.00275701 0)
(21.357 0.00260019 0)
(21.0025 0.00374146 0)
(20.6505 0.00229984 0)
(20.3959 -0.000610689 0)
(20.1898 -0.00116721 0)
(19.9735 -0.000660819 0)
(19.7766 -0.00143205 0)
(19.6164 -0.00246062 0)
(19.4854 -0.00359269 0)
(19.3836 -0.00474586 0)
(19.3122 -0.00613156 0)
(19.2694 -0.00754781 0)
(19.2569 -0.00914868 0)
(19.2714 -0.0106996 0)
(19.3137 -0.0123704 0)
(19.3822 -0.0140478 0)
(19.4794 -0.015863 0)
(19.6038 -0.0177207 0)
(19.7595 -0.0197022 0)
(19.9413 -0.0217066 0)
(20.1561 -0.0238945 0)
(20.3942 -0.0260451 0)
(20.6635 -0.0285437 0)
(20.9526 -0.0310751 0)
(21.267 -0.034025 0)
(21.5907 -0.0378309 0)
(21.933 -0.0418285 0)
(22.2586 -0.0484061 0)
(22.6051 -0.0547468 0)
(22.9031 -0.0640906 0)
(23.2558 -0.0744095 0)
(23.5534 -0.0839782 0)
(23.95 -0.0968772 0)
(24.2965 -0.104236 0)
(24.7812 -0.109534 0)
(25.1304 -0.111986 0)
(25.6468 -0.136924 0)
(26.3849 -0.165215 0)
(26.8213 -0.190909 0)
(27.1262 -0.193856 0)
(27.4248 -0.17868 0)
(27.6249 -0.174076 0)
(27.8621 -0.184758 0)
(28.0842 -0.208641 0)
(28.3426 -0.235515 0)
(28.576 -0.25029 0)
(28.8416 -0.265527 0)
(29.0273 -0.259437 0)
(29.2399 -0.260088 0)
(29.3173 -0.236912 0)
(29.3952 -0.236628 0)
(29.3402 -0.20587 0)
(29.2388 -0.228697 0)
(29.0615 -0.19772 0)
(28.849 -0.277477 0)
(28.5314 -0.241899 0)
(28.4722 -0.437544 0)
(28.0021 -0.370967 0)
(28.4341 -0.959895 0)
(28.3292 -0.671669 0)
(29.4328 -3.42774 0)
(30.4574 -3.58213 0)
(44.643 0.156144 0)
(45.0968 0.0921918 0)
(44.5764 0.0620266 0)
(43.3349 0.0461277 0)
(42.0578 0.0369622 0)
(40.5688 0.0297748 0)
(39.2936 0.0257126 0)
(37.944 0.0213175 0)
(36.8462 0.0190887 0)
(35.708 0.0159982 0)
(34.8007 0.0147505 0)
(33.8509 0.0126008 0)
(33.0911 0.0118174 0)
(32.2928 0.0102648 0)
(31.6448 0.00967904 0)
(30.9672 0.00858477 0)
(30.404 0.00810602 0)
(29.8202 0.00739301 0)
(29.3201 0.00697544 0)
(28.8075 0.00656018 0)
(28.3547 0.00617518 0)
(27.8963 0.00594761 0)
(27.4809 0.00557112 0)
(27.0655 0.00538687 0)
(26.6842 0.00503428 0)
(26.3038 0.00466746 0)
(25.9645 0.00444146 0)
(25.6061 0.00572796 0)
(25.2588 0.00384914 0)
(25.0037 0.000270646 0)
(24.7941 -0.000490885 0)
(24.5753 4.30014e-05 0)
(24.3767 -0.000997027 0)
(24.2131 -0.00237686 0)
(24.0766 -0.0038516 0)
(23.966 -0.00535345 0)
(23.8823 -0.00713483 0)
(23.8244 -0.00896895 0)
(23.7943 -0.0110236 0)
(23.7901 -0.0130408 0)
(23.8134 -0.0152164 0)
(23.8642 -0.0174456 0)
(23.9463 -0.0198675 0)
(24.0589 -0.0223943 0)
(24.2071 -0.0250794 0)
(24.3848 -0.0278409 0)
(24.5999 -0.0307962 0)
(24.8393 -0.0337338 0)
(25.1134 -0.0370289 0)
(25.4046 -0.0403521 0)
(25.7224 -0.0441199 0)
(26.0454 -0.0488391 0)
(26.3852 -0.0537821 0)
(26.707 -0.061637 0)
(27.0451 -0.0692256 0)
(27.3389 -0.0803316 0)
(27.6777 -0.0924442 0)
(27.965 -0.103944 0)
(28.3318 -0.118825 0)
(28.6453 -0.12765 0)
(29.0608 -0.133657 0)
(29.3562 -0.13778 0)
(29.7765 -0.167236 0)
(30.3671 -0.19854 0)
(30.6765 -0.222581 0)
(30.8793 -0.222373 0)
(31.08 -0.204657 0)
(31.2154 -0.200686 0)
(31.3737 -0.21327 0)
(31.5093 -0.240014 0)
(31.6636 -0.267021 0)
(31.7775 -0.281101 0)
(31.9061 -0.292166 0)
(31.9353 -0.281148 0)
(31.9955 -0.275697 0)
(31.9008 -0.245659 0)
(31.8627 -0.240873 0)
(31.6367 -0.201676 0)
(31.476 -0.22181 0)
(31.1106 -0.185277 0)
(30.8945 -0.259791 0)
(30.3665 -0.231994 0)
(30.3113 -0.418034 0)
(29.6601 -0.387097 0)
(30.0383 -0.979715 0)
(29.7507 -0.838212 0)
(30.6409 -3.44445 0)
(30.9562 -3.88463 0)
(44.1463 0.15267 0)
(44.8107 0.0911398 0)
(45.0659 0.0639407 0)
(44.7816 0.0500402 0)
(44.3258 0.0421473 0)
(43.565 0.0354953 0)
(42.8104 0.0317417 0)
(41.8961 0.0272935 0)
(41.0776 0.0249493 0)
(40.1735 0.0215756 0)
(39.3994 0.0200645 0)
(38.5692 0.017621 0)
(37.8668 0.0165543 0)
(37.1275 0.0147605 0)
(36.5 0.0139036 0)
(35.8499 0.0126273 0)
(35.2907 0.0119011 0)
(34.719 0.0110601 0)
(34.2175 0.0104237 0)
(33.7109 0.00992204 0)
(33.257 0.00934438 0)
(32.8039 0.00905047 0)
(32.3907 0.00849889 0)
(31.983 0.00823917 0)
(31.608 0.00772941 0)
(31.239 0.00723019 0)
(30.909 0.00689868 0)
(30.5657 0.00829854 0)
(30.2381 0.00591397 0)
(29.9931 0.00159365 0)
(29.7875 0.000605801 0)
(29.573 0.00118039 0)
(29.3765 -0.000139824 0)
(29.2097 -0.00189103 0)
(29.0652 -0.00370654 0)
(28.9412 -0.00554912 0)
(28.8392 -0.00772378 0)
(28.7588 -0.00999171 0)
(28.7033 -0.0125347 0)
(28.6721 -0.0150815 0)
(28.6686 -0.0178592 0)
(28.6943 -0.0207813 0)
(28.7541 -0.0239864 0)
(28.8479 -0.0273938 0)
(28.9802 -0.0310037 0)
(29.1449 -0.0347569 0)
(29.3479 -0.0386876 0)
(29.5751 -0.0426063 0)
(29.835 -0.0468425 0)
(30.1085 -0.0510579 0)
(30.404 -0.0557043 0)
(30.6996 -0.0613285 0)
(31.005 -0.0672109 0)
(31.2906 -0.076271 0)
(31.5823 -0.0850778 0)
(31.8332 -0.0978707 0)
(32.1119 -0.111693 0)
(32.3425 -0.124973 0)
(32.6265 -0.141524 0)
(32.8564 -0.151339 0)
(33.1568 -0.157702 0)