/*--------------------------------*- C++ -*----------------------------------*\
| =========                 |                                                 |
| \\      /  F ield         | OpenFOAM: The Open Source CFD Toolbox           |
|  \\    /   O peration     | Version:  2306                                  |
|   \\  /    A nd           | Website:  www.openfoam.com                      |
|    \\/     M anipulation  |                                                 |
\*---------------------------------------------------------------------------*/
FoamFile
{
    version     2.0;
    format      ascii;
    arch        "LSB;label=32;scalar=64";
    class       volVectorField;
    location    "700";
    object      wallShearStress;
}
// * * * * * * * * * * * * * * * * * * * * * * * * * * * * * * * * * * * * * //

dimensions      [0 2 -2 0 0 0 0];

internalField   uniform (0 0 0);

boundaryField
{
    inlet
    {
        type            calculated;
        value           uniform (0 0 0);
    }
    outlet
    {
        type            calculated;
        value           uniform (0 0 0);
    }
    lowerWallStartup
    {
        type            symmetryPlane;
    }
    upperWallStartup
    {
        type            symmetryPlane;
    }
    upperWall
    {
        type            calculated;
        value           nonuniform List<vector> 
218
(
(-3.62582 0.0161241 0)
(-1.49478 0.000333398 0)
(-1.17144 0.000129892 0)
(-1.0037 -1.62205e-05 0)
(-0.918547 9.44065e-05 0)
(-0.827262 -6.79778e-05 0)
(-0.788517 9.72291e-05 0)
(-0.721827 -0.000101088 0)
(-0.70611 0.000116032 0)
(-0.652529 -0.000129776 0)
(-0.648813 0.000140165 0)
(-0.600593 -0.000160401 0)
(-0.603141 0.000165329 0)
(-0.557999 -0.000194561 0)
(-0.56453 0.000190533 0)
(-0.521931 -0.000231328 0)
(-0.530512 0.000214616 0)
(-0.490039 -0.000269397 0)
(-0.498829 0.000236633 0)
(-0.460194 -0.000308188 0)
(-0.467703 0.000256936 0)
(-0.430781 -0.000348408 0)
(-0.435891 0.00027629 0)
(-0.400633 -0.000391063 0)
(-0.402695 0.000295078 0)
(-0.369124 -0.000435287 0)
(-0.368488 0.000313239 0)
(-0.336791 -0.000471845 0)
(-0.327634 0.000313774 0)
(-0.304613 -0.000515199 0)
(-0.300806 0.000349617 0)
(-0.275131 -0.000527489 0)
(-0.271186 0.000378879 0)
(-0.239629 -0.00050725 0)
(-0.243805 0.000394782 0)
(-0.222781 -0.000613832 0)
(-0.221478 0.000445981 0)
(-0.200187 -0.000673982 0)
(-0.197274 0.000520262 0)
(-0.179028 -0.00076958 0)
(-0.173992 0.000668639 0)
(-0.129549 -0.0008143 0)
(-0.148322 0.000733263 0)
(-0.13457 -0.0010398 0)
(-0.129867 0.000911856 0)
(-0.118715 -0.00120083 0)
(-0.107526 0.00106622 0)
(-0.10118 -0.00134674 0)
(-0.0861875 0.00117493 0)
(-0.0850501 -0.00148288 0)
(-0.0649555 0.00120756 0)
(-0.0715759 -0.00162715 0)
(-0.0430533 0.00122713 0)
(-0.0558001 -0.00180162 0)
(-0.0142 0.00114382 0)
(-0.0283757 -0.00186999 0)
(0.0341293 0.000406207 0)
(0.021611 -0.00148232 0)
(0.0839692 -0.000257705 0)
(0.081154 -0.000861327 0)
(0.106623 -0.000441542 0)
(0.15404 0.000292284 0)
(0.303607 0.00145432 0)
(0.479113 0.00208749 0)
(0.586471 -0.00148803 0)
(0.66058 -0.000144429 0)
(0.686353 -0.00122804 0)
(0.73512 0.000322789 0)
(0.778028 0.00126217 0)
(0.758647 -0.000221362 0)
(0.80579 0.00404256 0)
(0.748692 -0.00268809 0)
(0.854563 0.00449819 0)
(0.791727 -0.00240706 0)
(0.890008 0.00381528 0)
(0.862914 0.00217226 0)
(0.842217 0.00314677 0)
(0.894458 0.0066224 0)
(0.811214 0.000201542 0)
(0.938194 0.00638394 0)
(0.830089 -0.00122019 0)
(0.937832 0.00285672 0)
(0.797571 0.00187072 0)
(0.834557 0.00218989 0)
(0.690668 0.00392683 0)
(0.754686 0.00551065 0)
(0.587916 0.00209777 0)
(0.718614 0.00702959 0)
(0.43516 -0.00162912 5.49827e-17)
(0.62743 0.00727455 0)
(0.290974 0.000238783 -5.49971e-17)
(0.513494 0.00795745 5.50124e-17)
(0.159519 0.00252206 0)
(0.36241 0.00751173 5.50186e-17)
(-0.0312221 0.00365047 0)
(0.123386 0.00638069 0)
(-0.280859 0.00391474 0)
(-0.14955 0.00579618 0)
(-0.508696 0.00372082 -5.50031e-17)
(-0.356965 0.00581185 0)
(-0.653632 0.00321037 5.50003e-17)
(-0.461899 0.00587006 0)
(-0.723083 0.00277706 5.50092e-17)
(-0.498419 0.00528669 -5.50271e-17)
(-0.764581 0.00257891 0)
(-0.52401 0.00415728 -5.50521e-17)
(-0.798746 0.00261152 0)
(-0.543418 0.00376498 5.5074e-17)
(-0.794812 0.00284354 0)
(-0.516906 0.00399565 0)
(-0.748915 0.00177611 0)
(-0.468333 0.00326173 0)
(-0.717708 0.000374047 0)
(-0.446696 0.00223377 0)
(-0.741463 0.000270933 0)
(-0.496991 0.00153913 -5.51503e-17)
(-0.833662 0.00144923 5.51533e-17)
(-0.616293 0.0017662 -5.51656e-17)
(-0.937519 0.0028992 5.51684e-17)
(-0.711991 0.00279622 0)
(-0.964879 0.00360207 5.51819e-17)
(-0.702815 0.0035865 0)
(-0.906501 0.00351668 5.52018e-17)
(-0.621118 0.00349192 0)
(-0.837009 0.00344551 0)
(-0.55868 0.00286795 5.525e-17)
(-0.808001 0.00362441 0)
(-0.535432 0.00267928 5.52718e-17)
(-0.785754 0.00376477 0)
(-0.487886 0.00316211 5.52953e-17)
(-0.722308 0.00432708 0)
(-0.393807 0.00363254 5.53237e-17)
(-0.658207 0.00589325 0)
(-0.344212 0.003595 0)
(-0.676983 0.00771685 5.53536e-17)
(-0.416959 0.00295153 0)
(-0.77842 0.00772968 5.53666e-17)
(-0.557744 0.00161899 0)
(-0.893586 0.00542373 5.53687e-17)
(-0.684787 -0.000694848 0)
(-0.996674 0.00226591 5.53682e-17)
(-0.79494 -0.00350522 0)
(-1.09877 -0.000681046 0)
(-0.888697 -0.0057984 5.5368e-17)
(-1.18045 -0.00276963 0)
(-0.937698 -0.00710638 5.53792e-17)
(-1.23273 -0.0033093 0)
(-0.960531 -0.00762932 5.53968e-17)
(-1.28845 -0.00187033 0)
(-1.00995 -0.00739429 0)
(-1.38863 0.00100376 5.54209e-17)
(-1.12345 -0.00601233 5.54264e-17)
(-1.54075 0.00397902 0)
(-1.33657 -0.00484021 5.54306e-17)
(-1.63334 0.00714511 0)
(-1.59576 -0.00361473 5.54305e-17)
(-1.6324 0.00946663 0)
(-1.62789 -0.00737713 5.54018e-17)
(-2.26665 0.0139931 0)
(-1.4037 -0.00501489 5.54175e-17)
(-2.14421 0.00507704 5.52908e-17)
(-3.70116 -0.0171213 0)
(-5.35412 -0.0157692 5.51253e-17)
(-5.36494 -0.00707612 0)
(-5.06326 0.00785825 5.51939e-17)
(-3.77282 0.00901161 0)
(-2.82983 0.0276263 0)
(-1.04848 0.0131854 5.55594e-17)
(0.267588 0.0413534 -5.56482e-17)
(0.769352 -0.00663911 5.56482e-17)
(-0.130321 0.0155735 -5.56399e-17)
(-0.0470493 -0.00894209 0)
(-1.18067 0.00179916 0)
(-2.18025 -0.0251889 0)
(-3.66332 -0.0078724 -5.53732e-17)
(-4.01096 -0.0140051 0)
(-4.47026 0.00590649 0)
(-4.10426 -0.00643813 0)
(-4.10607 0.0164617 0)
(-3.70131 0.000822042 0)
(-3.70132 0.0136283 0)
(-3.71711 0.00793613 0)
(-3.97571 0.0126154 5.54598e-17)
(-4.31733 0.00398726 -5.54286e-17)
(-4.9226 0.0152723 0)
(-5.29292 0.00109152 0)
(-6.14537 0.0106058 1.46105e-17)
(-6.95839 0.00548691 -1.27453e-17)
(-7.82768 0.0182003 -2.2233e-17)
(-8.44591 0.01319 -1.93953e-17)
(-9.0336 0.0131086 -3.38457e-17)
(-9.29908 0.00801763 -2.95347e-17)
(-8.9062 0.00824118 -2.57823e-17)
(-7.91452 0.015228 0)
(-6.5085 0.0218245 -3.92941e-17)
(-4.91663 0.00723502 0)
(-3.7719 0.0311281 5.98211e-17)
(-3.48854 -0.0278472 0)
(-3.86165 0.0370317 0)
(-5.52339 -0.0161783 0)
(-8.65678 0.0338029 0)
(-9.10351 -0.0250342 0)
(-17.7381 -0.000901111 0)
(-13.3734 -0.0648156 -1.80484e-16)
(-38.605 -0.123466 0)
(-29.3916 -0.187814 2.66821e-16)
(-81.2956 -0.933357 -2.32217e-16)
(-141.133 -2.13746 1.8018e-16)
(-151.681 -1.70602 0)
(-49.9451 0.394043 2.08014e-16)
(65.3639 2.4097 0)
(30.6552 2.54417 0)
(14.5977 0.763378 0)
(-63.0594 -4.85936 0)
(-119.923 -13.7867 0)
(-137.857 -20.7058 0)
(-94.1415 -19.9378 -1.18836e-16)
(-77.9372 -21.6889 0)
)
;
    }
    lowerWall
    {
        type            calculated;
        value           nonuniform List<vector> 
266
(
(-3.62596 -0.0160808 0)
(-1.49941 -0.000373837 0)
(-1.16971 -8.71007e-05 0)
(-1.01283 -4.95874e-05 0)
(-0.916115 -4.35988e-05 0)
(-0.839166 -1.71389e-05 0)
(-0.784691 -2.72106e-05 0)
(-0.735306 -4.88245e-06 0)
(-0.701109 -2.18506e-05 0)
(-0.667254 -3.1347e-06 0)
(-0.642739 -1.93645e-05 0)
(-0.616094 -3.45333e-06 0)
(-0.596034 -1.58252e-05 0)
(-0.573826 -3.12933e-06 0)
(-0.556621 -1.1453e-05 0)
(-0.537603 -2.47314e-06 0)
(-0.522076 -7.07049e-06 0)
(-0.505015 -1.5217e-06 0)
(-0.490116 -2.91893e-06 0)
(-0.473944 -1.20607e-07 0)
(-0.458903 8.90193e-07 0)
(-0.442807 1.74919e-06 0)
(-0.427126 4.33918e-06 0)
(-0.410536 4.14994e-06 0)
(-0.394003 7.53105e-06 0)
(-0.376531 7.21237e-06 0)
(-0.359772 1.07803e-05 0)
(-0.341688 1.365e-06 0)
(-0.312714 -1.04079e-05 0)
(-0.29988 2.08399e-05 0)
(-0.290248 1.98936e-05 0)
(-0.275726 1.27587e-05 0)
(-0.259663 1.01424e-05 0)
(-0.245563 1.00904e-05 0)
(-0.231529 1.12921e-05 0)
(-0.218072 1.01661e-05 0)
(-0.20488 1.22891e-05 0)
(-0.191976 1.29479e-05 0)
(-0.179419 1.58029e-05 0)
(-0.166934 1.71462e-05 0)
(-0.154483 2.02964e-05 0)
(-0.142066 2.24152e-05 0)
(-0.129734 2.58899e-05 0)
(-0.117585 2.8816e-05 0)
(-0.105744 3.31829e-05 0)
(-0.0943513 3.72312e-05 0)
(-0.0835595 4.36365e-05 0)
(-0.073764 5.0959e-05 0)
(-0.0647994 6.25226e-05 0)
(-0.0579055 7.91422e-05 0)
(-0.0517288 0.000102213 0)
(-0.0474433 0.000147064 0)
(-0.0416652 0.000197731 0)
(-0.033249 0.000316181 0)
(-0.0180248 0.000424783 0)
(22.8792 2.59495 0)
(0.037411 0.000788299 0)
(0.074135 0.000952889 0)
(0.112057 0.00113407 0)
(0.145424 0.00114389 0)
(0.168795 0.00127862 0)
(0.222567 0.00056599 0)
(0.364062 -0.000926072 0)
(0.515355 -0.000722235 0)
(0.595184 0.00135149 0)
(0.610601 0.00159064 0)
(0.606176 0.00170069 0)
(0.658101 0.00161354 0)
(0.718621 0.0023597 0)
(0.808292 0.00280077 0)
(0.886261 0.00372597 0)
(0.960668 0.00337765 0)
(0.989082 0.00409668 0)
(1.00595 0.00291648 0)
(0.973902 0.00290012 0)
(0.96582 0.00227098 0)
(0.945064 0.00262988 0)
(0.975562 0.00373585 0)
(1.01443 0.00559185 0)
(1.10208 0.00853 0)
(1.16935 0.0120769 0)
(1.25371 0.016047 0)
(1.18753 0.020842 0)
(1.15176 0.0271397 0)
(0.50332 0.0113817 0)
(0.0867962 0.0232501 0)
(0.161868 0.0390549 0)
(-3.66817 0.159906 0)
(0.370957 11.8613 0)
(0.0132783 0.645287 0)
(0.0671491 0.566116 -6.34797e-19)
(0.0860445 0.519812 7.74372e-19)
(0.120493 0.454641 0)
(0.152122 0.372559 0)
(0.182869 0.284648 0)
(0.210406 0.201015 0)
(0.22879 0.123795 0)
(0.2344 0.079677 7.26889e-17)
(0.264145 0.054709 -8.6121e-17)
(0.262685 -0.158308 2.12705e-16)
(0.159026 -0.327876 -1.99184e-16)
(0.0437687 -0.257237 0)
(-0.0552482 -0.0985094 -1.59418e-16)
(-0.067714 0.00642953 9.61168e-17)
(-0.0593988 0.0461615 0)
(-0.0415413 0.0684183 0)
(-0.0215655 0.0902329 0)
(0.00213701 0.103116 -1.42075e-16)
(0.023142 0.105473 1.26464e-16)
(0.0335922 0.0936839 -2.37819e-16)
(0.0332268 0.0728186 2.25394e-16)
(0.0362399 0.0448479 0)
(0.0723333 0.0232046 -4.95399e-16)
(0.13484 -0.0215367 6.33141e-16)
(0.164746 -0.115597 0)
(0.169801 -0.144476 0)
(0.180142 -0.247447 0)
(0.169639 -0.189844 0)
(0.111915 -0.263072 0)
(0.111291 -0.140925 0)
(-0.0991407 -1.0898 9.04655e-16)
(-1.43118 -0.868658 -2.1311e-19)
(-1.47992 0.348399 -2.0875e-16)
(-1.57721 0.837408 -0)
(-1.88594 1.43618 0)
(-1.86501 1.77138 0)
(-1.79924 1.78005 0)
(-1.7399 1.6336 0)
(-1.70858 1.52353 -1.26875e-16)
(-1.69454 1.44144 1.26583e-16)
(-1.6949 1.29015 0)
(-1.71381 1.01667 0)
(-1.77707 0.675303 -0)
(-1.91544 0.332039 2.93022e-17)
(-2.07649 0.0254032 -2.85215e-17)
(-2.03059 -0.14507 -0)
(0.624735 -0.16867 -0)
(-0.655885 0.00025897 4.32893e-19)
(-2.50139 0.0317071 0)
(-2.99666 0.0177123 4.326e-19)
(-3.38093 0.00563187 0)
(-2.65146 0.0018129 0)
(-4.74432 -0.0215131 0)
(-8.24717 0.0117599 0)
(-6.83386 -0.0125944 0)
(132.871 -141.346 1.84965e-15)
(2.80304 -0.0163253 0)
(-2.86456 0.0040123 0)
(-2.91244 -0.0126058 0)
(-0.448444 -0.00744235 0)
(-1.11035 0.0365477 0)
(-2.98108 0.0364985 0)
(-1.91279 -0.000128152 0)
(1.62104 -0.0252622 0)
(4.69492 -0.021661 0)
(6.81811 -0.0105674 0)
(8.13835 -0.00324054 -4.30589e-19)
(8.90702 0.00234477 0)
(9.2919 0.00588315 -4.3053e-19)
(9.43724 0.00744356 0)
(9.49928 0.0073183 -4.30624e-19)
(9.50573 0.00617575 0)
(9.45852 0.00620987 -4.30816e-19)
(9.29415 0.00718226 0)
(9.01962 0.00881005 0)
(8.65695 0.0108959 0)
(8.28125 0.00718851 -4.31319e-19)
(8.30985 -0.00101848 -4.31417e-19)
(9.82801 -0.00550756 -4.31422e-19)
(10.1212 0.0126541 -4.31526e-19)
(6.58537 0.0330959 -4.31923e-19)
(1.77305 0.0667217 0)
(-1.84165 0.0638931 0)
(-3.92424 0.0403396 -4.31932e-19)
(-4.40009 0.0213904 -4.31922e-19)
(-3.50848 -0.0137539 -4.31934e-19)
(-1.3744 -0.003331 -4.3182e-19)
(-4.64082 0.0463967 -4.31433e-19)
(-9.19277 0.0606769 -4.31418e-19)
(-1.6644 -0.0635629 0)
(7.82513 -0.00389654 -4.31455e-19)
(5.03041 0.0336642 -4.31621e-19)
(-0.113893 0.08698 -4.32006e-19)
(-1.4202 0.0316827 -4.32041e-19)
(-0.574959 0.00569961 -4.32049e-19)
(-1.07764 0.00590736 -4.31906e-19)
(-1.95824 -0.0071852 -0)
(-0.683067 -0.0187958 -4.31709e-19)
(1.04181 0.0107233 -4.3179e-19)
(0.0488181 0.456248 -3.61121e-18)
(-1.5146 0.0429677 -4.31796e-19)
(0.377087 -0.00216999 -4.31523e-19)
(4.11144 -0.0238982 -4.31186e-19)
(7.14733 -0.0243104 0)
(9.19734 -0.0164843 -4.30791e-19)
(10.4124 -0.011239 -0)
(10.9669 -0.00679673 -0)
(11.0046 -0.00250657 -0)
(10.6739 0.00049881 4.31122e-19)
(10.0925 0.00300867 0)
(9.40139 0.00430137 -0)
(8.6714 0.0050637 0)
(8.00855 0.00497584 -0)
(7.43309 0.00520264 0)
(6.97247 0.00555979 0)
(6.55596 0.00633743 4.32076e-19)
(6.17188 0.00623886 0)
(5.82427 0.00521838 0)
(5.62017 0.00367302 0)
(5.60859 0.0038927 4.32203e-19)
(5.76748 0.00669583 0)
(5.90772 0.0131552 0)
(5.76632 0.0182315 0)
(5.36656 0.0203741 0)
(5.02046 0.0197228 0)
(4.86036 0.0171383 0)
(4.88824 0.0141288 4.32016e-19)
(5.15298 0.0152262 0)
(5.50094 0.0195648 0)
(5.71825 0.0234516 4.31906e-19)
(5.80025 0.025295 0)
(5.56172 0.0218759 4.31872e-19)
(5.31129 0.018581 0)
(5.60531 0.0206037 0)
(5.77336 0.0322963 -4.31861e-19)
(4.93405 0.0290932 0)
(4.05511 0.0332219 4.31842e-19)
(3.68112 0.0451795 0)
(2.82582 0.0432323 0)
(1.9407 0.0528899 0)
(1.63287 0.0802411 0)
(-0.757895 0.0649726 0)
(-2.11685 0.0667441 4.31746e-19)
(-0.142619 0.0570663 0)
(-1.45849 -0.000811206 -0)
(-0.268468 -0.0598942 5.10121e-17)
(9.66364 -0.029254 8.89403e-17)
(13.0143 0.0712545 0)
(1.20846 0.115573 0)
(-9.77146 -0.0305534 0)
(-7.00962 -0.0302623 -0)
(-1.92588 0.00424101 0)
(-4.57777 0.0285123 -1.56308e-16)
(-8.68744 0.0293141 0)
(-8.55212 0.012015 -2.36779e-16)
(-5.48318 0.00543351 2.05933e-16)
(-2.01684 0.00814587 0)
(1.11204 0.0124837 0)
(4.25007 0.0153702 0)
(7.8232 0.0177353 4.71507e-16)
(9.90291 0.0331243 -4.10794e-16)
(6.37755 0.0716968 0)
(-6.09527 0.164725 6.21179e-16)
(-22.1383 0.266468 0)
(-28.0261 0.336989 9.10512e-16)
(-14.0047 0.197848 0)
(20.378 -0.237377 0)
(37.5028 -0.783794 -0)
(-52.9831 0.777062 0)
(-103.031 2.03688 0)
(-71.9188 1.00683 2.62324e-15)
(-98.4384 1.78608 -2.22691e-15)
(-139.869 3.17514 0)
(-175.076 3.63552 1.7848e-15)
(-144.006 2.83133 0)
(-147.598 2.66244 0)
)
;
    }
    front
    {
        type            empty;
    }
    back
    {
        type            empty;
    }
}


// ************************************************************************* //
