/*--------------------------------*- C++ -*----------------------------------*\
| =========                 |                                                 |
| \\      /  F ield         | OpenFOAM: The Open Source CFD Toolbox           |
|  \\    /   O peration     | Version:  2306                                  |
|   \\  /    A nd           | Website:  www.openfoam.com                      |
|    \\/     M anipulation  |                                                 |
\*---------------------------------------------------------------------------*/
FoamFile
{
    version     2.0;
    format      ascii;
    arch        "LSB;label=32;scalar=64";
    class       volScalarField;
    location    "1900";
    object      cp;
}
// * * * * * * * * * * * * * * * * * * * * * * * * * * * * * * * * * * * * * //

dimensions      [0 0 0 0 0 0 0];

internalField   nonuniform List<scalar> 
20540
(
0.219761
-0.012375
0.21833
-0.0249797
0.217341
-0.0327858
0.21698
-0.0357032
0.216818
-0.0369234
0.216696
-0.0377225
0.216597
-0.0383276
0.216525
-0.0387744
0.216475
-0.0391009
0.216443
-0.0393398
0.216421
-0.0395096
0.216408
-0.0396194
0.216397
-0.0396733
0.216385
-0.0396723
0.216367
-0.0396155
0.216336
-0.0395005
0.216289
-0.0393244
0.216221
-0.0390839
0.216131
-0.038777
0.216018
-0.0384031
0.215882
-0.0379622
0.215731
-0.0374568
0.215579
-0.0368983
0.215417
-0.0363041
0.215156
-0.0356409
0.214667
-0.0347388
0.214021
-0.0334588
0.213345
-0.0320421
0.212611
-0.0307908
0.211806
-0.0296791
0.211172
-0.0288756
0.210865
-0.0285256
0.21086
-0.0285639
0.211152
-0.0289918
0.211755
-0.0298629
0.212517
-0.030996
0.21322
-0.0322385
0.213876
-0.0336467
0.214521
-0.034951
0.215033
-0.0358938
0.215323
-0.0365864
0.215505
-0.037198
0.215673
-0.0377687
0.215841
-0.0382853
0.215996
-0.0387382
0.216129
-0.0391257
0.216238
-0.0394483
0.216323
-0.0397069
0.216385
-0.0399043
0.216426
-0.0400437
0.216452
-0.0401287
0.216469
-0.0401619
0.216481
-0.0401451
0.216493
-0.0400785
0.21651
-0.0399607
0.216535
-0.0397869
0.216572
-0.0395478
0.216628
-0.0392244
0.216706
-0.0387845
0.216812
-0.0381895
0.216943
-0.0373996
0.217116
-0.0361823
0.217492
-0.0332998
0.218502
-0.0257297
0.219959
-0.0136551
-0.0944328
-0.0581872
-0.0644711
-0.0672718
-0.0691841
-0.0719324
-0.0748968
-0.0778024
-0.0806933
-0.083552
-0.0863485
-0.0890722
-0.0917195
-0.0942866
-0.0967725
-0.0991769
-0.101501
-0.103745
-0.105912
-0.108004
-0.110022
-0.111969
-0.113846
-0.115657
-0.117403
-0.119087
-0.120711
-0.122276
-0.123785
-0.125239
-0.126642
-0.127994
-0.129297
-0.130554
-0.131766
-0.132936
-0.134064
-0.135153
-0.136206
-0.137224
-0.138209
-0.139165
-0.140094
-0.140999
-0.141883
-0.14275
-0.143604
-0.144449
-0.14529
-0.146133
-0.146982
-0.147845
-0.148727
-0.149637
-0.150581
-0.151567
-0.152605
-0.153704
-0.154875
-0.15613
-0.15748
-0.158942
-0.160526
-0.161969
-0.163166
-0.164397
-0.165671
-0.16699
-0.168354
-0.169766
-0.171225
-0.172736
-0.174296
-0.175915
-0.177584
-0.179323
-0.181111
-0.182999
-0.184932
-0.187033
-0.189155
-0.191596
-0.193962
-0.197008
-0.199716
-0.203992
-0.207684
-0.216301
-0.0944372
-0.0581872
-0.064471
-0.0672717
-0.069184
-0.0719324
-0.0748967
-0.0778024
-0.0806933
-0.0835519
-0.0863485
-0.0890722
-0.0917195
-0.0942866
-0.0967725
-0.0991769
-0.101501
-0.103745
-0.105912
-0.108004
-0.110022
-0.111969
-0.113846
-0.115657
-0.117403
-0.119087
-0.120711
-0.122276
-0.123785
-0.125239
-0.126642
-0.127994
-0.129297
-0.130554
-0.131766
-0.132936
-0.134064
-0.135153
-0.136206
-0.137224
-0.138209
-0.139165
-0.140094
-0.140999
-0.141883
-0.14275
-0.143604
-0.144449
-0.14529
-0.146133
-0.146982
-0.147845
-0.148727
-0.149637
-0.150581
-0.151567
-0.152605
-0.153704
-0.154875
-0.15613
-0.15748
-0.158942
-0.160526
-0.161969
-0.163166
-0.164397
-0.165671
-0.166991
-0.168354
-0.169766
-0.171225
-0.172736
-0.174296
-0.175915
-0.177584
-0.179323
-0.181111
-0.182999
-0.184932
-0.187033
-0.189156
-0.191596
-0.193963
-0.197009
-0.199717
-0.203995
-0.207679
-0.216249
-0.0944526
-0.0581876
-0.0644706
-0.0672713
-0.0691838
-0.0719322
-0.0748966
-0.0778023
-0.0806932
-0.0835519
-0.0863484
-0.0890721
-0.0917194
-0.0942866
-0.0967724
-0.0991769
-0.101501
-0.103745
-0.105912
-0.108004
-0.110022
-0.111969
-0.113846
-0.115657
-0.117403
-0.119087
-0.120711
-0.122276
-0.123785
-0.125239
-0.126642
-0.127994
-0.129297
-0.130554
-0.131766
-0.132936
-0.134064
-0.135153
-0.136206
-0.137224
-0.138209
-0.139165
-0.140094
-0.140999
-0.141883
-0.14275
-0.143604
-0.144449
-0.14529
-0.146133
-0.146982
-0.147845
-0.148727
-0.149637
-0.150581
-0.151567
-0.152605
-0.153705
-0.154875
-0.15613
-0.15748
-0.158943
-0.160526
-0.16197
-0.163167
-0.164397
-0.165671
-0.166991
-0.168355
-0.169767
-0.171225
-0.172737
-0.174297
-0.175916
-0.177584
-0.179324
-0.181112
-0.183
-0.184933
-0.187035
-0.189157
-0.191598
-0.193965
-0.197011
-0.199719
-0.204002
-0.207667
-0.216112
-0.0944793
-0.0581882
-0.06447
-0.0672708
-0.0691833
-0.0719319
-0.0748963
-0.0778021
-0.0806931
-0.0835517
-0.0863483
-0.089072
-0.0917194
-0.0942865
-0.0967724
-0.0991768
-0.101501
-0.103745
-0.105912
-0.108004
-0.110022
-0.111969
-0.113846
-0.115657
-0.117403
-0.119087
-0.120711
-0.122276
-0.123785
-0.125239
-0.126642
-0.127994
-0.129297
-0.130554
-0.131766
-0.132936
-0.134064
-0.135153
-0.136206
-0.137224
-0.138209
-0.139165
-0.140094
-0.140999
-0.141883
-0.14275
-0.143604
-0.144449
-0.14529
-0.146133
-0.146982
-0.147845
-0.148727
-0.149637
-0.150581
-0.151567
-0.152605
-0.153705
-0.154875
-0.15613
-0.15748
-0.158943
-0.160527
-0.16197
-0.163167
-0.164397
-0.165672
-0.166992
-0.168355
-0.169767
-0.171226
-0.172738
-0.174298
-0.175917
-0.177586
-0.179325
-0.181113
-0.183002
-0.184935
-0.187037
-0.18916
-0.191602
-0.193968
-0.197016
-0.199722
-0.204012
-0.207635
-0.215948
-0.0945239
-0.0581899
-0.0644694
-0.0672699
-0.0691826
-0.0719313
-0.0748959
-0.0778017
-0.0806928
-0.0835515
-0.0863481
-0.0890719
-0.0917192
-0.0942864
-0.0967723
-0.0991767
-0.101501
-0.103745
-0.105912
-0.108004
-0.110022
-0.111969
-0.113846
-0.115657
-0.117403
-0.119087
-0.120711
-0.122276
-0.123785
-0.125239
-0.126642
-0.127994
-0.129297
-0.130554
-0.131766
-0.132936
-0.134064
-0.135153
-0.136206
-0.137224
-0.138209
-0.139165
-0.140094
-0.140999
-0.141883
-0.14275
-0.143604
-0.144449
-0.14529
-0.146133
-0.146982
-0.147845
-0.148727
-0.149637
-0.150581
-0.151568
-0.152605
-0.153705
-0.154876
-0.156131
-0.15748
-0.158943
-0.160527
-0.161971
-0.163168
-0.164398
-0.165673
-0.166993
-0.168356
-0.169769
-0.171227
-0.172739
-0.1743
-0.175919
-0.177588
-0.179327
-0.181116
-0.183005
-0.184938
-0.187041
-0.189163
-0.191606
-0.193972
-0.197022
-0.199725
-0.204024
-0.207579
-0.215735
-0.0945939
-0.0581939
-0.0644695
-0.0672692
-0.0691818
-0.0719306
-0.0748953
-0.0778013
-0.0806924
-0.0835512
-0.0863478
-0.0890716
-0.091719
-0.0942862
-0.0967721
-0.0991766
-0.1015
-0.103745
-0.105912
-0.108004
-0.110022
-0.111968
-0.113846
-0.115657
-0.117403
-0.119087
-0.120711
-0.122276
-0.123785
-0.125239
-0.126642
-0.127994
-0.129297
-0.130554
-0.131766
-0.132936
-0.134064
-0.135153
-0.136206
-0.137224
-0.138209
-0.139165
-0.140094
-0.140999
-0.141883
-0.14275
-0.143604
-0.144449
-0.14529
-0.146133
-0.146982
-0.147845
-0.148728
-0.149637
-0.150581
-0.151568
-0.152606
-0.153705
-0.154876
-0.156131
-0.157481
-0.158944
-0.160528
-0.161972
-0.163169
-0.164399
-0.165674
-0.166994
-0.168358
-0.16977
-0.171229
-0.172741
-0.174302
-0.175921
-0.17759
-0.17933
-0.181119
-0.183008
-0.184942
-0.187045
-0.189167
-0.191612
-0.193977
-0.197028
-0.199725
-0.204032
-0.207498
-0.21544
-0.0946946
-0.0582015
-0.0644708
-0.0672686
-0.0691809
-0.0719298
-0.0748946
-0.0778007
-0.0806919
-0.0835507
-0.0863475
-0.0890713
-0.0917187
-0.094286
-0.0967719
-0.0991764
-0.1015
-0.103745
-0.105912
-0.108003
-0.110022
-0.111968
-0.113846
-0.115657
-0.117403
-0.119087
-0.12071
-0.122276
-0.123785
-0.125239
-0.126642
-0.127994
-0.129297
-0.130554
-0.131766
-0.132936
-0.134064
-0.135153
-0.136206
-0.137224
-0.138209
-0.139165
-0.140094
-0.140999
-0.141883
-0.14275
-0.143604
-0.144449
-0.14529
-0.146133
-0.146982
-0.147845
-0.148728
-0.149637
-0.150581
-0.151568
-0.152606
-0.153706
-0.154876
-0.156132
-0.157482
-0.158945
-0.160529
-0.161973
-0.16317
-0.164401
-0.165675
-0.166995
-0.16836
-0.169772
-0.171231
-0.172743
-0.174304
-0.175924
-0.177593
-0.179334
-0.181122
-0.183012
-0.184946
-0.18705
-0.189172
-0.191617
-0.193981
-0.197034
-0.199722
-0.20403
-0.207387
-0.215042
-0.0948307
-0.0582143
-0.064474
-0.0672688
-0.0691802
-0.0719289
-0.0748938
-0.0778
-0.0806913
-0.0835502
-0.086347
-0.0890709
-0.0917184
-0.0942857
-0.0967717
-0.0991762
-0.1015
-0.103745
-0.105912
-0.108003
-0.110021
-0.111968
-0.113846
-0.115657
-0.117403
-0.119087
-0.12071
-0.122276
-0.123785
-0.125239
-0.126642
-0.127994
-0.129297
-0.130554
-0.131766
-0.132936
-0.134064
-0.135153
-0.136206
-0.137224
-0.138209
-0.139165
-0.140094
-0.140999
-0.141883
-0.14275
-0.143604
-0.144449
-0.14529
-0.146133
-0.146982
-0.147845
-0.148728
-0.149637
-0.150581
-0.151568
-0.152606
-0.153706
-0.154877
-0.156132
-0.157482
-0.158946
-0.16053
-0.161974
-0.163171
-0.164402
-0.165677
-0.166997
-0.168362
-0.169775
-0.171234
-0.172746
-0.174307
-0.175928
-0.177597
-0.179338
-0.181126
-0.183017
-0.18495
-0.187055
-0.189176
-0.191622
-0.193984
-0.197036
-0.199713
-0.204012
-0.207242
-0.214534
-0.0950072
-0.0582339
-0.0644801
-0.0672701
-0.0691798
-0.0719282
-0.074893
-0.0777991
-0.0806905
-0.0835496
-0.0863465
-0.0890704
-0.091718
-0.0942853
-0.0967713
-0.0991759
-0.1015
-0.103744
-0.105912
-0.108003
-0.110021
-0.111968
-0.113846
-0.115657
-0.117403
-0.119087
-0.12071
-0.122275
-0.123784
-0.125239
-0.126642
-0.127994
-0.129297
-0.130554
-0.131766
-0.132936
-0.134064
-0.135153
-0.136206
-0.137224
-0.138209
-0.139165
-0.140094
-0.140999
-0.141883
-0.14275
-0.143604
-0.144449
-0.14529
-0.146133
-0.146983
-0.147845
-0.148728
-0.149638
-0.150582
-0.151569
-0.152607
-0.153707
-0.154878
-0.156133
-0.157483
-0.158947
-0.160531
-0.161975
-0.163173
-0.164404
-0.165679
-0.167
-0.168364
-0.169777
-0.171237
-0.172749
-0.174311
-0.175931
-0.177601
-0.179342
-0.181131
-0.183021
-0.184955
-0.18706
-0.18918
-0.191626
-0.193985
-0.197033
-0.199696
-0.203969
-0.207054
-0.213913
-0.0952297
-0.0582623
-0.0644904
-0.0672733
-0.0691803
-0.0719277
-0.0748922
-0.0777983
-0.0806897
-0.0835488
-0.0863458
-0.0890698
-0.0917175
-0.0942849
-0.0967709
-0.0991755
-0.101499
-0.103744
-0.105911
-0.108003
-0.110021
-0.111968
-0.113846
-0.115657
-0.117403
-0.119087
-0.12071
-0.122275
-0.123784
-0.125239
-0.126642
-0.127994
-0.129297
-0.130554
-0.131766
-0.132935
-0.134064
-0.135153
-0.136206
-0.137224
-0.138209
-0.139165
-0.140094
-0.140999
-0.141883
-0.14275
-0.143604
-0.144449
-0.14529
-0.146133
-0.146983
-0.147846
-0.148728
-0.149638
-0.150582
-0.151569
-0.152607
-0.153707
-0.154878
-0.156134
-0.157484
-0.158948
-0.160533
-0.161977
-0.163175
-0.164406
-0.165681
-0.167002
-0.168367
-0.16978
-0.17124
-0.172752
-0.174314
-0.175935
-0.177604
-0.179346
-0.181135
-0.183025
-0.184959
-0.187063
-0.189183
-0.191627
-0.193981
-0.197021
-0.199666
-0.203889
-0.206813
-0.213172
-0.0955038
-0.0583013
-0.0645062
-0.0672794
-0.0691821
-0.0719279
-0.0748917
-0.0777975
-0.0806889
-0.083548
-0.086345
-0.0890691
-0.0917168
-0.0942843
-0.0967704
-0.0991751
-0.101499
-0.103744
-0.105911
-0.108003
-0.110021
-0.111968
-0.113845
-0.115656
-0.117403
-0.119087
-0.12071
-0.122275
-0.123784
-0.125239
-0.126641
-0.127993
-0.129297
-0.130554
-0.131766
-0.132935
-0.134064
-0.135153
-0.136206
-0.137224
-0.138209
-0.139165
-0.140094
-0.140999
-0.141883
-0.14275
-0.143604
-0.144449
-0.14529
-0.146133
-0.146983
-0.147846
-0.148728
-0.149638
-0.150582
-0.15157
-0.152608
-0.153708
-0.154879
-0.156135
-0.157485
-0.158949
-0.160534
-0.161979
-0.163177
-0.164408
-0.165683
-0.167004
-0.168369
-0.169783
-0.171243
-0.172756
-0.174317
-0.175938
-0.177608
-0.179349
-0.181138
-0.183028
-0.184961
-0.187065
-0.189183
-0.191623
-0.193972
-0.196996
-0.199616
-0.20376
-0.206508
-0.21231
-0.0958344
-0.0583532
-0.0645289
-0.0672896
-0.0691861
-0.0719292
-0.0748918
-0.077797
-0.0806881
-0.0835472
-0.0863442
-0.0890684
-0.0917161
-0.0942836
-0.0967698
-0.0991745
-0.101499
-0.103743
-0.105911
-0.108002
-0.11002
-0.111967
-0.113845
-0.115656
-0.117402
-0.119086
-0.12071
-0.122275
-0.123784
-0.125239
-0.126641
-0.127993
-0.129297
-0.130554
-0.131766
-0.132935
-0.134064
-0.135153
-0.136206
-0.137224
-0.138209
-0.139165
-0.140094
-0.140999
-0.141883
-0.14275
-0.143604
-0.144449
-0.14529
-0.146133
-0.146983
-0.147846
-0.148729
-0.149639
-0.150583
-0.15157
-0.152608
-0.153708
-0.15488
-0.156136
-0.157486
-0.15895
-0.160535
-0.16198
-0.163178
-0.16441
-0.165685
-0.167006
-0.168372
-0.169785
-0.171245
-0.172758
-0.17432
-0.17594
-0.17761
-0.179351
-0.181139
-0.183029
-0.184961
-0.187062
-0.189177
-0.19161
-0.193951
-0.196949
-0.199539
-0.203564
-0.206129
-0.21133
-0.0962243
-0.0584204
-0.0645597
-0.0673051
-0.0691933
-0.0719325
-0.074893
-0.0777971
-0.0806877
-0.0835465
-0.0863434
-0.0890676
-0.0917153
-0.0942829
-0.0967691
-0.0991738
-0.101498
-0.103743
-0.10591
-0.108002
-0.11002
-0.111967
-0.113845
-0.115656
-0.117402
-0.119086
-0.12071
-0.122275
-0.123784
-0.125239
-0.126641
-0.127993
-0.129297
-0.130554
-0.131766
-0.132935
-0.134064
-0.135153
-0.136206
-0.137223
-0.138209
-0.139165
-0.140094
-0.140999
-0.141883
-0.14275
-0.143604
-0.144449
-0.14529
-0.146133
-0.146983
-0.147846
-0.148729
-0.149639
-0.150583
-0.15157
-0.152609
-0.153709
-0.15488
-0.156137
-0.157487
-0.158951
-0.160536
-0.161981
-0.16318
-0.164411
-0.165687
-0.167008
-0.168373
-0.169786
-0.171246
-0.172759
-0.174321
-0.175941
-0.17761
-0.17935
-0.181137
-0.183025
-0.184955
-0.187052
-0.189163
-0.191584
-0.193913
-0.196871
-0.199421
-0.203282
-0.205663
-0.210244
-0.0966726
-0.0585059
-0.0645997
-0.0673271
-0.0692049
-0.0719387
-0.0748961
-0.0777985
-0.080688
-0.0835463
-0.0863429
-0.0890669
-0.0917146
-0.0942821
-0.0967684
-0.0991731
-0.101497
-0.103742
-0.105909
-0.108001
-0.110019
-0.111966
-0.113844
-0.115655
-0.117402
-0.119086
-0.120709
-0.122274
-0.123784
-0.125238
-0.126641
-0.127993
-0.129297
-0.130553
-0.131766
-0.132935
-0.134063
-0.135153
-0.136205
-0.137223
-0.138209
-0.139165
-0.140094
-0.140999
-0.141883
-0.14275
-0.143604
-0.144449
-0.14529
-0.146133
-0.146983
-0.147846
-0.148729
-0.149639
-0.150583
-0.15157
-0.152609
-0.153709
-0.154881
-0.156137
-0.157488
-0.158952
-0.160537
-0.161981
-0.16318
-0.164411
-0.165687
-0.167008
-0.168373
-0.169786
-0.171246
-0.172758
-0.174319
-0.175938
-0.177606
-0.179344
-0.18113
-0.183015
-0.184941
-0.187031
-0.189135
-0.191537
-0.19385
-0.196748
-0.199246
-0.202896
-0.205094
-0.209069
-0.0971731
-0.0586132
-0.0646499
-0.0673569
-0.0692218
-0.0719487
-0.0749019
-0.0778017
-0.0806897
-0.0835469
-0.086343
-0.0890666
-0.0917141
-0.0942815
-0.0967677
-0.0991724
-0.101497
-0.103741
-0.105909
-0.108001
-0.110019
-0.111966
-0.113844
-0.115655
-0.117401
-0.119085
-0.120709
-0.122274
-0.123783
-0.125238
-0.12664
-0.127993
-0.129296
-0.130553
-0.131765
-0.132935
-0.134063
-0.135153
-0.136205
-0.137223
-0.138209
-0.139165
-0.140093
-0.140998
-0.141883
-0.14275
-0.143604
-0.144449
-0.14529
-0.146133
-0.146983
-0.147846
-0.148729
-0.149639
-0.150583
-0.15157
-0.152609
-0.153709
-0.15488
-0.156136
-0.157487
-0.158951
-0.160536
-0.16198
-0.163178
-0.16441
-0.165685
-0.167005
-0.16837
-0.169782
-0.171241
-0.172752
-0.174312
-0.175929
-0.177595
-0.17933
-0.181112
-0.182992
-0.184913
-0.186992
-0.189085
-0.191458
-0.193747
-0.196562
-0.198992
-0.202387
-0.204405
-0.207821
-0.0977112
-0.0587467
-0.0647109
-0.0673953
-0.0692452
-0.0719636
-0.0749115
-0.0778076
-0.0806933
-0.0835491
-0.0863441
-0.089067
-0.0917141
-0.0942813
-0.0967673
-0.0991719
-0.101496
-0.103741
-0.105908
-0.108
-0.110018
-0.111965
-0.113843
-0.115654
-0.117401
-0.119085
-0.120708
-0.122274
-0.123783
-0.125238
-0.12664
-0.127992
-0.129296
-0.130553
-0.131765
-0.132934
-0.134063
-0.135152
-0.136205
-0.137223
-0.138209
-0.139164
-0.140093
-0.140998
-0.141882
-0.142749
-0.143603
-0.144449
-0.14529
-0.146133
-0.146983
-0.147846
-0.148728
-0.149638
-0.150582
-0.151569
-0.152608
-0.153708
-0.154879
-0.156135
-0.157485
-0.158949
-0.160533
-0.161976
-0.163174
-0.164405
-0.165679
-0.166999
-0.168363
-0.169774
-0.171231
-0.17274
-0.174297
-0.175911
-0.177573
-0.179304
-0.181081
-0.182952
-0.184864
-0.186925
-0.189002
-0.191333
-0.193587
-0.196292
-0.198634
-0.201737
-0.203583
-0.206506
-0.0982611
-0.0589115
-0.0647837
-0.0674431
-0.0692756
-0.0719843
-0.0749257
-0.0778173
-0.0806998
-0.0835534
-0.0863469
-0.0890688
-0.0917151
-0.0942818
-0.0967674
-0.0991718
-0.101496
-0.10374
-0.105908
-0.107999
-0.110018
-0.111965
-0.113843
-0.115654
-0.1174
-0.119084
-0.120708
-0.122273
-0.123782
-0.125237
-0.12664
-0.127992
-0.129296
-0.130552
-0.131765
-0.132934
-0.134063
-0.135152
-0.136205
-0.137223
-0.138208
-0.139164
-0.140093
-0.140998
-0.141882
-0.142749
-0.143603
-0.144448
-0.14529
-0.146132
-0.146982
-0.147845
-0.148727
-0.149637
-0.150581
-0.151568
-0.152606
-0.153705
-0.154876
-0.156131
-0.157481
-0.158943
-0.160527
-0.161969
-0.163165
-0.164396
-0.165668
-0.166986
-0.168348
-0.169757
-0.171211
-0.172717
-0.17427
-0.175879
-0.177536
-0.179258
-0.181026
-0.182884
-0.184783
-0.186818
-0.18887
-0.191143
-0.193346
-0.195911
-0.198141
-0.200932
-0.202612
-0.205124
-0.0987851
-0.0591128
-0.0648688
-0.0675008
-0.0693136
-0.0720112
-0.0749452
-0.0778314
-0.08071
-0.0835608
-0.0863522
-0.0890726
-0.0917178
-0.0942836
-0.0967686
-0.0991726
-0.101496
-0.103741
-0.105908
-0.107999
-0.110017
-0.111964
-0.113842
-0.115653
-0.1174
-0.119084
-0.120707
-0.122273
-0.123782
-0.125237
-0.126639
-0.127991
-0.129295
-0.130552
-0.131764
-0.132934
-0.134062
-0.135152
-0.136204
-0.137222
-0.138208
-0.139164
-0.140093
-0.140997
-0.141882
-0.142749
-0.143602
-0.144448
-0.145289
-0.146131
-0.146981
-0.147843
-0.148726
-0.149635
-0.150578
-0.151565
-0.152602
-0.153701
-0.154871
-0.156125
-0.157473
-0.158934
-0.160515
-0.161955
-0.16315
-0.164378
-0.165648
-0.166963
-0.168322
-0.169727
-0.171177
-0.172677
-0.174224
-0.175825
-0.177473
-0.179183
-0.180938
-0.182776
-0.184654
-0.186651
-0.188666
-0.19086
-0.192991
-0.19539
-0.197482
-0.199957
-0.201476
-0.203658
-0.0992346
-0.0593541
-0.0649668
-0.0675689
-0.0693592
-0.0720446
-0.0749706
-0.0778506
-0.0807246
-0.083572
-0.0863608
-0.0890791
-0.0917228
-0.0942874
-0.0967715
-0.0991747
-0.101498
-0.103742
-0.105909
-0.108
-0.110018
-0.111965
-0.113842
-0.115653
-0.1174
-0.119084
-0.120707
-0.122273
-0.123782
-0.125236
-0.126639
-0.127991
-0.129295
-0.130552
-0.131764
-0.132933
-0.134062
-0.135151
-0.136204
-0.137222
-0.138208
-0.139163
-0.140092
-0.140997
-0.141881
-0.142748
-0.143602
-0.144446
-0.145287
-0.14613
-0.146979
-0.147841
-0.148723
-0.149631
-0.150574
-0.15156
-0.152596
-0.153693
-0.154862
-0.156114
-0.15746
-0.158918
-0.160496
-0.161932
-0.163124
-0.164349
-0.165615
-0.166926
-0.168279
-0.169678
-0.171122
-0.172613
-0.17415
-0.175739
-0.177372
-0.179064
-0.180799
-0.182607
-0.184453
-0.186398
-0.188358
-0.190452
-0.192485
-0.194693
-0.196624
-0.198796
-0.200161
-0.20208
-0.0995523
-0.0596365
-0.065078
-0.0676478
-0.069412
-0.0720841
-0.0750015
-0.077875
-0.0807439
-0.0835874
-0.0863732
-0.0890891
-0.0917308
-0.0942938
-0.0967767
-0.0991789
-0.101501
-0.103744
-0.105911
-0.108002
-0.110019
-0.111966
-0.113843
-0.115654
-0.1174
-0.119084
-0.120708
-0.122273
-0.123782
-0.125237
-0.126639
-0.127991
-0.129295
-0.130552
-0.131764
-0.132933
-0.134062
-0.135151
-0.136204
-0.137222
-0.138207
-0.139163
-0.140092
-0.140996
-0.14188
-0.142747
-0.1436
-0.144445
-0.145286
-0.146127
-0.146976
-0.147837
-0.148718
-0.149626
-0.150567
-0.151551
-0.152586
-0.153681
-0.154847
-0.156096
-0.157439
-0.158892
-0.160465
-0.161895
-0.163082
-0.164303
-0.165563
-0.166866
-0.168212
-0.169601
-0.171033
-0.172512
-0.174034
-0.175604
-0.177216
-0.178881
-0.180585
-0.182351
-0.184151
-0.186024
-0.187908
-0.189877
-0.191785
-0.193784
-0.195537
-0.197428
-0.198645
-0.20035
-0.0996782
-0.0599573
-0.0652012
-0.0677382
-0.069472
-0.0721292
-0.0750377
-0.0779042
-0.0807678
-0.0836072
-0.0863896
-0.0891028
-0.0917422
-0.0943034
-0.0967847
-0.0991856
-0.101507
-0.103749
-0.105915
-0.108005
-0.110022
-0.111968
-0.113845
-0.115656
-0.117402
-0.119085
-0.120709
-0.122274
-0.123783
-0.125237
-0.12664
-0.127992
-0.129295
-0.130552
-0.131764
-0.132934
-0.134062
-0.135151
-0.136204
-0.137222
-0.138207
-0.139163
-0.140091
-0.140996
-0.141879
-0.142746
-0.143599
-0.144443
-0.145283
-0.146124
-0.146971
-0.147832
-0.148711
-0.149617
-0.150557
-0.151538
-0.15257
-0.153662
-0.154824
-0.156069
-0.157405
-0.158852
-0.160416
-0.161837
-0.163018
-0.16423
-0.165481
-0.166773
-0.168106
-0.169481
-0.170897
-0.172356
-0.173855
-0.175398
-0.176979
-0.178604
-0.180265
-0.181972
-0.183705
-0.185485
-0.187266
-0.189087
-0.190842
-0.192625
-0.194189
-0.195824
-0.196902
-0.19842
-0.0995584
-0.0603101
-0.0653334
-0.067841
-0.0695386
-0.0721792
-0.0750783
-0.0779375
-0.0807956
-0.0836307
-0.0864098
-0.0891201
-0.0917571
-0.0943163
-0.0967959
-0.0991953
-0.101515
-0.103757
-0.105921
-0.108011
-0.110027
-0.111973
-0.113849
-0.115659
-0.117405
-0.119088
-0.120711
-0.122276
-0.123785
-0.125239
-0.126641
-0.127993
-0.129296
-0.130553
-0.131765
-0.132934
-0.134063
-0.135152
-0.136204
-0.137222
-0.138207
-0.139163
-0.140091
-0.140995
-0.141878
-0.142744
-0.143597
-0.14444
-0.145279
-0.146119
-0.146965
-0.147824
-0.148701
-0.149605
-0.150541
-0.151519
-0.152546
-0.153633
-0.154789
-0.156026
-0.157355
-0.158791
-0.160342
-0.16175
-0.162919
-0.16412
-0.165356
-0.166631
-0.167946
-0.169299
-0.170691
-0.17212
-0.173586
-0.175089
-0.176625
-0.178195
-0.179792
-0.18142
-0.183062
-0.184725
-0.186375
-0.188028
-0.189608
-0.191172
-0.192544
-0.193948
-0.194895
-0.196237
-0.0991584
-0.0606833
-0.0654686
-0.0679572
-0.0696119
-0.0722332
-0.0751225
-0.077974
-0.0808263
-0.0836573
-0.0864329
-0.0891404
-0.091775
-0.0943321
-0.09681
-0.0992079
-0.101526
-0.103767
-0.10593
-0.108019
-0.110034
-0.111979
-0.113855
-0.115665
-0.11741
-0.119093
-0.120715
-0.12228
-0.123788
-0.125242
-0.126644
-0.127996
-0.129299
-0.130556
-0.131767
-0.132936
-0.134064
-0.135154
-0.136206
-0.137223
-0.138208
-0.139163
-0.140091
-0.140995
-0.141877
-0.142742
-0.143594
-0.144436
-0.145274
-0.146112
-0.146956
-0.147812
-0.148686
-0.149585
-0.150517
-0.15149
-0.152511
-0.15359
-0.154737
-0.155963
-0.157278
-0.158698
-0.16023
-0.161619
-0.162771
-0.163953
-0.165167
-0.166419
-0.167706
-0.169027
-0.170382
-0.17177
-0.173188
-0.174635
-0.176106
-0.177601
-0.179111
-0.180635
-0.182158
-0.183679
-0.185172
-0.18664
-0.18803
-0.189379
-0.190562
-0.191754
-0.192574
-0.193746
-0.0984738
-0.0610538
-0.0655978
-0.0680878
-0.0696919
-0.0722909
-0.0751697
-0.0780129
-0.080859
-0.0836856
-0.0864578
-0.0891625
-0.0917948
-0.09435
-0.0968262
-0.0992226
-0.10154
-0.103779
-0.105941
-0.108029
-0.110044
-0.111988
-0.113863
-0.115672
-0.117417
-0.119099
-0.120721
-0.122285
-0.123793
-0.125247
-0.126649
-0.128
-0.129303
-0.130559
-0.131771
-0.13294
-0.134067
-0.135156
-0.136208
-0.137225
-0.13821
-0.139164
-0.140092
-0.140994
-0.141876
-0.14274
-0.14359
-0.14443
-0.145266
-0.146101
-0.146942
-0.147794
-0.148663
-0.149557
-0.150482
-0.151447
-0.152458
-0.153526
-0.154659
-0.155868
-0.157164
-0.15856
-0.160064
-0.161424
-0.162551
-0.163705
-0.164888
-0.166103
-0.16735
-0.168626
-0.169929
-0.171257
-0.172607
-0.173977
-0.175361
-0.176755
-0.178151
-0.179543
-0.180921
-0.182276
-0.183591
-0.184862
-0.186055
-0.187193
-0.188192
-0.189185
-0.18988
-0.190883
-0.0975196
-0.0613811
-0.0657083
-0.0682341
-0.0697787
-0.0723517
-0.0752193
-0.0780533
-0.0808927
-0.0837147
-0.0864834
-0.0891853
-0.0918154
-0.0943687
-0.0968433
-0.0992384
-0.101554
-0.103792
-0.105954
-0.108041
-0.110055
-0.111998
-0.113873
-0.115681
-0.117425
-0.119107
-0.120729
-0.122292
-0.1238
-0.125253
-0.126655
-0.128006
-0.129308
-0.130564
-0.131776
-0.132944
-0.134072
-0.13516
-0.136212
-0.137228
-0.138212
-0.139166
-0.140092
-0.140994
-0.141874
-0.142737
-0.143585
-0.144422
-0.145254
-0.146086
-0.146922
-0.147768
-0.14863
-0.149515
-0.15043
-0.151382
-0.152379
-0.15343
-0.154543
-0.155729
-0.156996
-0.158357
-0.159819
-0.161138
-0.162228
-0.163341
-0.164478
-0.165642
-0.166831
-0.168042
-0.169272
-0.170518
-0.171776
-0.173042
-0.174311
-0.175575
-0.176829
-0.178063
-0.17927
-0.18044
-0.18156
-0.182627
-0.183619
-0.184553
-0.185372
-0.186178
-0.186747
-0.187578
-0.0963051
-0.0616359
-0.0657707
-0.0683949
-0.0698723
-0.0724153
-0.0752714
-0.0780951
-0.0809268
-0.0837438
-0.0865088
-0.0892078
-0.0918356
-0.0943871
-0.0968602
-0.0992539
-0.101569
-0.103806
-0.105967
-0.108053
-0.110066
-0.112009
-0.113883
-0.115691
-0.117434
-0.119116
-0.120737
-0.1223
-0.123808
-0.125261
-0.126662
-0.128013
-0.129315
-0.130571
-0.131782
-0.13295
-0.134077
-0.135165
-0.136216
-0.137232
-0.138215
-0.139168
-0.140093
-0.140993
-0.141871
-0.142731
-0.143576
-0.14441
-0.145237
-0.146063
-0.146891
-0.147729
-0.148581
-0.149454
-0.150354
-0.151288
-0.152264
-0.15329
-0.154373
-0.155523
-0.156748
-0.15806
-0.159462
-0.160721
-0.161758
-0.162813
-0.163885
-0.164976
-0.166084
-0.167205
-0.168336
-0.169472
-0.17061
-0.171743
-0.172865
-0.173972
-0.175054
-0.176106
-0.17712
-0.178089
-0.179005
-0.179865
-0.180656
-0.181392
-0.182034
-0.182658
-0.183097
-0.183756
-0.0948794
-0.0618357
-0.0657332
-0.0685577
-0.0699701
-0.0724798
-0.0753251
-0.0781379
-0.0809611
-0.0837726
-0.0865336
-0.0892294
-0.0918547
-0.0944043
-0.0968758
-0.0992683
-0.101582
-0.103818
-0.105978
-0.108064
-0.110077
-0.112019
-0.113893
-0.1157
-0.117443
-0.119124
-0.120745
-0.122308
-0.123815
-0.125268
-0.126669
-0.128019
-0.129322
-0.130577
-0.131788
-0.132955
-0.134082
-0.13517
-0.13622
-0.137235
-0.138217
-0.139169
-0.140092
-0.14099
-0.141865
-0.142721
-0.143562
-0.14439
-0.14521
-0.146028
-0.146846
-0.147671
-0.148508
-0.149362
-0.150241
-0.151149
-0.152095
-0.153084
-0.154124
-0.155224
-0.156389
-0.157629
-0.158947
-0.160121
-0.161083
-0.162056
-0.163038
-0.16403
-0.165029
-0.16603
-0.167031
-0.168026
-0.16901
-0.169979
-0.170926
-0.171846
-0.172733
-0.173582
-0.174388
-0.175146
-0.175851
-0.176504
-0.177096
-0.177637
-0.178104
-0.178552
-0.178858
-0.179342
-0.0934187
-0.0620248
-0.0655753
-0.0686873
-0.0700585
-0.0725376
-0.0753771
-0.0781799
-0.0809944
-0.0838004
-0.0865571
-0.0892496
-0.0918723
-0.0944198
-0.0968897
-0.0992809
-0.101594
-0.103829
-0.105988
-0.108073
-0.110085
-0.112027
-0.1139
-0.115708
-0.11745
-0.119131
-0.120752
-0.122315
-0.123822
-0.125274
-0.126675
-0.128025
-0.129327
-0.130582
-0.131793
-0.13296
-0.134086
-0.135173
-0.136223
-0.137237
-0.138217
-0.139167
-0.140088
-0.140983
-0.141854
-0.142705
-0.143539
-0.144359
-0.14517
-0.145974
-0.146778
-0.147585
-0.1484
-0.149228
-0.150076
-0.150947
-0.151849
-0.152787
-0.153766
-0.154794
-0.155874
-0.157013
-0.158213
-0.159271
-0.16013
-0.160991
-0.161852
-0.162712
-0.163569
-0.164418
-0.165254
-0.166075
-0.166874
-0.167648
-0.168392
-0.169102
-0.169775
-0.170406
-0.170993
-0.171534
-0.172026
-0.172471
-0.172865
-0.173216
-0.173509
-0.173785
-0.173953
-0.174262
-0.0920577
-0.0622722
-0.0653798
-0.0687678
-0.070112
-0.0725703
-0.075416
-0.0782135
-0.0810216
-0.0838234
-0.0865768
-0.0892664
-0.0918869
-0.0944326
-0.096901
-0.0992909
-0.101603
-0.103837
-0.105996
-0.10808
-0.110092
-0.112033
-0.113906
-0.115713
-0.117456
-0.119136
-0.120757
-0.12232
-0.123826
-0.125279
-0.126679
-0.128029
-0.129331
-0.130586
-0.131796
-0.132963
-0.134088
-0.135174
-0.136223
-0.137235
-0.138214
-0.139161
-0.140078
-0.140969
-0.141834
-0.142678
-0.143503
-0.144312
-0.145108
-0.145896
-0.146678
-0.147459
-0.148243
-0.149035
-0.149838
-0.150657
-0.151497
-0.152362
-0.153257
-0.154184
-0.155147
-0.156149
-0.157189
-0.158091
-0.158813
-0.159528
-0.160233
-0.160926
-0.161605
-0.162266
-0.162905
-0.16352
-0.164105
-0.16466
-0.16518
-0.165663
-0.166107
-0.166511
-0.166875
-0.167196
-0.167477
-0.167718
-0.167918
-0.168083
-0.168206
-0.168313
-0.168346
-0.168477
-0.0907443
-0.0624707
-0.0652602
-0.068864
-0.0701536
-0.072582
-0.0754329
-0.0782266
-0.0810315
-0.0838322
-0.0865846
-0.0892731
-0.0918925
-0.0944374
-0.0969051
-0.0992944
-0.101606
-0.10384
-0.105998
-0.108082
-0.110094
-0.112035
-0.113908
-0.115714
-0.117457
-0.119137
-0.120758
-0.122321
-0.123827
-0.12528
-0.12668
-0.12803
-0.129331
-0.130586
-0.131796
-0.132962
-0.134087
-0.135172
-0.136219
-0.137229
-0.138205
-0.139148
-0.140061
-0.140945
-0.141803
-0.142636
-0.143448
-0.144241
-0.145018
-0.145781
-0.146534
-0.147279
-0.14802
-0.14876
-0.149502
-0.150249
-0.151004
-0.15177
-0.152548
-0.15334
-0.154146
-0.154966
-0.155796
-0.156497
-0.157046
-0.157577
-0.158089
-0.15858
-0.159047
-0.159488
-0.159901
-0.160284
-0.160634
-0.16095
-0.161231
-0.161477
-0.161686
-0.161859
-0.161997
-0.1621
-0.162169
-0.162207
-0.162213
-0.162193
-0.162143
-0.162078
-0.16197
-0.161909
-0.0898335
-0.0624954
-0.0651674
-0.0689142
-0.0701773
-0.0725908
-0.0754425
-0.0782311
-0.0810316
-0.0838303
-0.0865811
-0.089268
-0.0918865
-0.0944307
-0.0968978
-0.0992868
-0.101598
-0.103832
-0.10599
-0.108074
-0.110086
-0.112027
-0.1139
-0.115707
-0.117449
-0.11913
-0.120751
-0.122313
-0.12382
-0.125273
-0.126673
-0.128023
-0.129325
-0.130579
-0.131788
-0.132954
-0.134078
-0.135162
-0.136207
-0.137215
-0.138188
-0.139127
-0.140034
-0.14091
-0.141758
-0.14258
-0.143377
-0.14415
-0.144903
-0.145637
-0.146355
-0.147057
-0.147747
-0.148426
-0.149096
-0.149758
-0.150413
-0.151063
-0.151707
-0.152344
-0.152972
-0.153588
-0.154188
-0.154671
-0.155035
-0.155374
-0.155688
-0.155973
-0.15623
-0.156457
-0.156653
-0.156817
-0.156949
-0.157049
-0.157117
-0.157153
-0.157159
-0.157136
-0.157084
-0.157006
-0.156903
-0.156777
-0.15663
-0.156464
-0.15628
-0.156083
-0.155868
-0.155663
-0.0894059
-0.0624919
-0.0651255
-0.0689239
-0.070176
-0.0725844
-0.0754357
-0.078222
-0.0810204
-0.0838181
-0.0865677
-0.0892542
-0.0918727
-0.0944167
-0.0968839
-0.099273
-0.101584
-0.103819
-0.105977
-0.108061
-0.110073
-0.112015
-0.113888
-0.115695
-0.117438
-0.119119
-0.12074
-0.122303
-0.12381
-0.125263