/*--------------------------------*- C++ -*----------------------------------*\
| =========                 |                                                 |
| \\      /  F ield         | OpenFOAM: The Open Source CFD Toolbox           |
|  \\    /   O peration     | Version:  2306                                  |
|   \\  /    A nd           | Website:  www.openfoam.com                      |
|    \\/     M anipulation  |                                                 |
\*---------------------------------------------------------------------------*/
FoamFile
{
    version     2.0;
    format      ascii;
    arch        "LSB;label=32;scalar=64";
    class       volScalarField;
    location    "1900";
    object      epsilon;
}
// * * * * * * * * * * * * * * * * * * * * * * * * * * * * * * * * * * * * * //

dimensions      [0 2 -3 0 0 0 0];

internalField   nonuniform List<scalar> 
20540
(
40667.9
74105
40658.3
74098.2
40605.6
74066.5
40507.5
74009
40355.3
73920.2
40137.3
73792.9
39839.5
73618.8
39444.8
73388
38933.1
73089.4
38280.3
72709.5
37458.4
72232.9
36434.7
71641.2
35172.4
70912.8
33631.2
70022.1
31769.6
68933.5
29547.7
67597.4
26933.9
65945.7
23914.4
63882.2
20511.3
61282.4
16813.5
57965.5
13023.1
53660.5
9354.07
48126.4
6045.42
41191.2
3420.24
32860.7
1814.51
23510.9
1067
13910.3
676.624
5755.54
446.76
1768.11
346.523
656.033
301.567
367.893
282.24
290.56
276.467
266.399
276.602
266.226
282.62
290.005
302.073
363.983
345.756
625.184
441.66
1599.85
658.944
5125.84
1032.75
12629.2
1739.82
21868
3246.34
31125
5778.34
39554.4
9039.86
46706.2
12717.7
52505
16584.7
57077.5
20423.5
60642.1
24012.8
63468.4
27247.1
65737.1
30090.2
67572.9
32544
69067.2
34630.8
70292.6
36383.5
71302.1
37840
72135.4
39038.3
72821.2
40015
73381.4
40803.3
73835.1
41432.7
74198.4
41928.6
74485.3
42312.9
74707.9
42604.2
74876.5
42818.2
75000.3
42968.3
75087
43065.2
75143.2
43117.3
75174.2
43130.7
75183.1
6.35377e+06
2.41079e+06
1.90602e+06
1.65052e+06
1.50088e+06
1.40687e+06
1.34278e+06
1.29655e+06
1.2621e+06
1.23571e+06
1.21503e+06
1.19855e+06
1.18523e+06
1.17435e+06
1.16537e+06
1.15788e+06
1.15164e+06
1.14637e+06
1.14189e+06
1.1381e+06
1.13484e+06
1.13204e+06
1.12964e+06
1.12755e+06
1.12575e+06
1.12416e+06
1.1228e+06
1.12158e+06
1.12053e+06
1.11959e+06
1.11877e+06
1.11803e+06
1.11738e+06
1.11682e+06
1.11631e+06
1.11586e+06
1.11546e+06
1.11511e+06
1.11481e+06
1.11455e+06
1.11434e+06
1.11417e+06
1.11404e+06
1.11397e+06
1.11394e+06
1.11398e+06
1.11411e+06
1.11429e+06
1.11458e+06
1.11496e+06
1.11546e+06
1.1161e+06
1.1169e+06
1.11788e+06
1.11906e+06
1.12048e+06
1.12214e+06
1.12411e+06
1.12639e+06
1.12906e+06
1.13211e+06
1.13564e+06
1.13967e+06
1.14353e+06
1.14681e+06
1.15034e+06
1.15405e+06
1.15804e+06
1.16219e+06
1.16664e+06
1.17129e+06
1.17624e+06
1.18144e+06
1.18695e+06
1.19278e+06
1.19892e+06
1.20555e+06
1.21239e+06
1.22023e+06
1.22792e+06
1.23803e+06
1.24633e+06
1.26193e+06
1.26797e+06
1.29768e+06
1.30175e+06
1.38386e+06
1.20222e+06
2.25933e+06
887508
695868
599985
543955
508799
484931
467766
454992
445220
437574
431486
426569
422556
419245
416484
414187
412245
410596
409201
408004
406974
406090
405323
404660
404076
403576
403127
402740
402394
402092
401821
401583
401377
401189
401021
400874
400745
400633
400536
400454
400389
400338
400304
400288
400292
400325
400379
400464
400579
400737
400935
401189
401499
401873
402324
402854
403483
404208
405057
406025
407151
408427
409650
410687
411807
412974
414232
415530
416922
418367
419900
421498
423193
424957
426832
428799
430874
433132
435445
438247
440675
444889
446327
454254
454251
474326
447014
1.13574e+06
517170
420357
368071
335709
314808
300376
289878
282008
275958
271206
267413
264343
261833
259759
258028
256586
255366
254330
253452
252698
252049
251492
251008
250590
250221
249905
249622
249377
249159
248968
248796
248646
248515
248396
248290
248197
248115
248044
247982
247930
247889
247857
247835
247825
247828
247847
247881
247935
248007
248107
248231
248391
248586
248821
249105
249439
249834
250290
250823
251431
252136
252936
253702
254352
255053
255779
256559
257365
258224
259115
260054
261033
262060
263135
264254
265442
266649
267992
269273
270892
272127
274440
275086
278824
278377
285367
285160
692985
331498
278796
249179
229629
216545
207320
200515
195364
191380
188236
185718
183674
181999
180613
179455
178488
177669
176973
176383
175876
175439
175063
174737
174455
174206
173992
173801
173635
173488
173359
173242
173140
173051
172971
172899
172836
172780
172731
172690
172654
172626
172603
172588
172581
172582
172594
172616
172651
172698
172763
172845
172950
173078
173233
173420
173640
173900
174199
174549
174949
175410
175934
176434
176859
177316
177788
178293
178813
179366
179938
180536
181160
181807
182486
183181
183923
184654
185480
186224
187192
187852
189164
189494
191272
190897
192962
195232
480819
225204
192182
174681
162457
153947
147805
143201
139677
136932
134754
133002
131577
130405
129434
128621
127941
127365
126875
126458
126101
125792
125526
125296
125096
124919
124768
124632
124515
124410
124318
124235
124163
124100
124042
123991
123946
123906
123871
123841
123815
123794
123777
123765
123758
123757
123763
123776
123797
123826
123867
123918
123985
124067
124165
124285
124425
124591
124783
125006
125261
125554
125887
126204
126472
126761
127058
127375
127699
128043
128396
128765
129146
129540
129947
130364
130801
131232
131702
132128
132658
133009
133690
133844
134603
134326
134448
137460
361076
161396
136838
126048
118304
112686
108516
105328
102853
100905
99349.7
98091.5
97063.3
96215.7
95511.3
94920.1
94425
94004.7
93646.5
93341.7
93079.7
92853.3
92658.5
92489
92342
92212.4
92100.8
92001
91914.2
91836.8
91769.1
91708.1
91654.4
91607.5
91564.9
91526.9
91493.2
91463.5
91437.3
91414.5
91394.8
91378.5
91365.1
91355
91348.4
91345.9
91348
91354.2
91366
91383.2
91408
91439.6
91481
91532
91593.9
91669
91757.4
91862.2
91982.8
92123.8
92283.4
92468.2
92676.1
92874.2
93040.1
93220.5
93403.5
93599.5
93797.7
94008.2
94221.5
94444.6
94670.4
94905.8
95142.2
95387.9
95633.1
95883.6
96135.3
96377.1
96645.1
96829.9
97152.6
97212.8
97476.7
97329.8
96863.7
99726.1
284790
121341
100099
92925.3
87994.6
84301.4
81474.9
79259.6
77507.1
76109.1
74981.6
74063
73307.9
72682.5
72160.9
71721.8
71353.2
71039.4
70771.6
70543.3
70346.7
70176.6
70030.1
69902.4
69791.6
69693.7
69609.4
69533.9
69468.2
69409.6
69358.2
69311.9
69271.1
69235.4
69202.9
69173.9
69148.2
69125.3
69105.1
69087.4
69072
69059
69048
69039.2
69033
69029.3
69029
69031.2
69037
69046.3
69060.5
69079
69103.9
69134.6
69172.4
69218.4
69272.6
69337.2
69411.2
69498.1
69595.7
69709.1
69835.5
69956.5
70056
70165.6
70275.1
70393.2
70510.3
70635.5
70759.5
70890.3
71018.4
71154.5
71284.2
71424.1
71552.3
71692.3
71815
71945.5
72065
72154.9
72280.3
72291.2
72325.2
72225.3
71632
74026
231951
95154
75073.8
69643.6
66424.3
64025.3
62141.6
60623.2
59392.7
58393.3
57576.5
56904
56346.8
55882.3
55492.8
55163.5
54886.1
54649.2
54446.5
54273.2
54123.7
53994.1
53882.3
53784.6
53699.8
53624.8
53560.1
53502
53451.4
53406.2
53366.6
53330.8
53299.3
53271.6
53246.4
53223.9
53203.8
53185.9
53170.1
53156
53143.7
53133.1
53123.9
53116.3
53110.4
53106.2
53104.2
53104.1
53106
53110.2
53117.4
53127.3
53141.1
53158.6
53180.3
53207.1
53238.6
53276.6
53319.8
53371
53427.7
53494.3
53567.1
53637.8
53694.2
53757.5
53819.3
53886.8
53951.8
54022.1
54089.2
54161.4
54228.1
54301.6
54365.7
54439.2
54497.9
54568.3
54617.7
54678.8
54717.5
54750.5
54772.4
54758.1
54705.3
54600.4
54071.1
55863.7
193184
77367.6
57744.2
52972.2
50694.8
49131.7
47906.1
46893.7
46050.3
45349.5
44766.4
44279.6
43871.6
43528.4
43238.6
42992
42783.4
42604.2
42450.4
42318.6
42204.4
42105.2
42019.5
41944.4
41879
41821
41771.1
41726.1
41686.8
41651.7
41620.9
41593
41568.3
41546.8
41527
41509.3
41493.5
41479.4
41466.7
41455.5
41445.5
41436.8
41429.1
41422.5
41417
41412.7
41409.8
41408.1
41407.8
41408.6
41411.3
41415.6
41422.2
41430.9
41442.1
41456.1
41472.8
41493.2
41516.1
41543.8
41573.7
41609.5
41647.4
41685.4
41714
41747.3
41778.3
41813.1
41845
41880.1
41911.6
41946.5
41975.5
42009.6
42034.7
42066.2
42085.4
42112.1
42122.1
42140
42138
42134.2
42114.3
42080.8
41997
41891.1
41469.2
42758
163558
64844.8
45588.8
40926.8
39066.8
37990.2
37201.1
36549.2
35992.8
35518.3
35114.7
34771.3
34479.3
34230.5
34018.3
33836.1
33681.1
33547
33431.3
33331.7
33245.1
33169.5
33104.1
33046.6
32996.4
32951.7
32913.2
32878.3
32847.9
32820.6
32796.7
32774.9
32755.7
32738.8
32723.3
32709.3
32696.9
32685.7
32675.7
32666.7
32658.6
32651.4
32644.9
32639.2
32634.3
32630.2
32626.9
32624.3
32622.5
32621.3
32621.4
32622
32624
32627.1
32631.4
32637.3
32644.3
32653.4
32663.1
32675.6
32688.3
32704.2
32719.8
32736.7
32748
32762.1
32773.9
32787.8
32799.3
32812.3
32822.2
32833.9
32840.7
32850.6
32853.3
32859.2
32857.1
32856.9
32848.1
32840.5
32819.1
32799
32756.1
32716.1
32627.5
32528.1
32201.7
33136.2
140234
55731.6
36951.1
32190.6
30425.8
29574.7
29042.6
28631.2
28280.5
27975.3
27709.2
27477.6
27276.8
27102.8
26952.5
26821.7
26709.5
26611.6
26526.5
26452.8
26388.4
26331.8
26282.7
26239.2
26201.3
26167.3
26138
26111.4
26088.1
26067.1
26048.7
26031.9
26017
26003.9
25991.9
25981
25971.2
25962.5
25954.5
25947.4
25940.9
25935.1
25929.7
25924.9
25920.6
25916.7
25913.4
25910.5
25908
25905.7
25904.1
25902.6
25901.8
25901.5
25901.6
25902.4
25903.3
25905.3
25906.9
25910
25911.8
25915.6
25917.4
25921.2
25921.9
25924.3
25924.4
25925.6
25925.1
25924.8
25922.4
25920.4
25914.8
25910.7
25901.1
25893.9
25879.1
25867.8
25845.7
25829.1
25796.1
25770.9
25720.4
25679.6
25597.4
25510
25256.9
25946.8
121453
48900.1
30724.7
25837.8
24006.1
23202.6
22785.8
22513.2
22297.8
22112.5
21948.7
21802.8
21673.4
21558.8
21458
21368.9
21291.5
21223.1
21163
21110.6
21064.4
21023.5
20987.9
20956.1
20928.3
20903.2
20881.6
20861.7
20844.4
20828.7
20814.9
20802.2
20790.9
20781.1
20771.9
20763.6
20756.1
20749.4
20743.3
20737.7
20732.6
20728
20723.7
20719.7
20716.1
20712.7
20709.6
20706.6
20704
20701.2
20698.8
20696.2
20693.8
20691.6
20689.3
20687.1
20684.5
20682.4
20679.2
20676.8
20672.3
20669
20662.7
20659.2
20653.7
20649.8
20643.1
20637.9
20629.9
20623.3
20613
20605
20591.7
20581.7
20564.8
20552.5
20530.9
20515.5
20487.7
20468.4
20431.6
20405.9
20355.9
20317.8
20245.2
20172.6
19976.4
20486.7
106065
43641.8
26169.4
21200.6
19248.4
18391.1
17987.3
17770.3
17628.4
17518.6
17425.1
17341.5
17266
17197.6
17136
17080.3
17031.2
16986.9
16947.5
16912.8
16881.8
16854.1
16829.7
16807.9
16788.6
16771.1
16755.9
16741.9
16729.6
16718.4
16708.5
16699.4
16691.3
16684.2
16677.5
16671.5
16666
16661.1
16656.5
16652.4
16648.5
16645.1
16641.7
16638.6
16635.6
16632.8
16630.2
16627.5
16624.9
16622.1
16619.4
16616.4
16613.4
16610.2
16606.7
16603.1
16598.7
16594.5
16588.7
16583.5
16575.8
16569
16558.4
16551.2
16542.6
16535.7
16525.5
16517.4
16505.7
16496.3
16482.5
16471.8
16455.3
16443.1
16423.5
16409.4
16386
16369.5
16341
16321.6
16286.1
16262.1
16216.4
16182.7
16120.5
16061.9
15912.2
16285.8
93277.5
39495
22790.2
17797
15730.3
14777.8
14325.2
14102.2
13982.1
13908.1
13854.9
13811.5
13773.3
13738.5
13706.6
13676.7
13650
13625.3
13602.7
13582.5
13564.2
13547.5
13532.8
13519.3
13507.4
13496.3
13486.7
13477.8
13469.9
13462.6
13456.2
13450.2
13444.9
13440.2
13435.8
13431.7
13428
13424.7
13421.6
13418.7
13416
13413.6
13411.2
13408.9
13406.7
13404.5
13402.4
13400.1
13397.9
13395.3
13392.7
13389.8
13386.7
13383.3
13379.4
13375.4
13370.3
13365.3
13358.6
13352.3
13343.2
13335.1
13323
13314.4
13304.6
13296.7
13285.4
13276.4
13263.5
13253.5
13238.7
13227.6
13210.6
13198.2
13178.6
13164.7
13142.1
13126.4
13099.9
13081.9
13049.9
13028.6
12988.6
12960.1
12907.8
12861.1
12749.3
13021.6
82546.1
36145.7
20254.3
15283.4
13130.5
12080.2
11551.7
11284.5
11147.9
11076.3
11036.8
11012.5
10995.6
10981.9
10970.1
10958.7
10948.5
10938.7
10929.3
10920.7
10912.7
10905
10898.2
10891.8
10886
10880.5
10875.7
10871.1
10867.1
10863.3
10859.9
10856.7
10853.7
10851.2
10848.8
10846.5
10844.5
10842.6
10840.8
10839.2
10837.6
10836.1
10834.6
10833.1
10831.6
10830.1
10828.6
10826.8
10825.1
10823
10820.8
10818.2
10815.3
10812.2
10808.4
10804.6
10799.5
10794.6
10787.9
10781.6
10772.5
10764.5
10752.4
10743.9
10734.1
10726.4
10715.3
10706.6
10694.1
10684.5
10670.4
10659.9
10644
10632.5
10614.6
10601.8
10581.5
10567.3
10544
10528.1
10500.5
10482.2
10448.4
10424.7
10381.7
10344.4
10262.8
10461
73479.8
33369.1
18335.4
13418
11208.3
10075.5
9468.51
9140.44
8964.07
8870.78
8822.84
8799.12
8788.13
8783.44
8782.1
8781.49
8781.73
8781.97
8781.9
8781.76
8781.46
8780.8
8780.23
8779.42
8778.72
8777.71
8777.03
8776.07
8775.29
8774.41
8773.67
8772.86
8772.08
8771.5
8770.83
8770.18
8769.57
8768.98
8768.41
8767.86
8767.28
8766.71
8766.08
8765.35
8764.6
8763.76
8762.84
8761.72
8760.49
8758.96
8757.25
8755.24
8752.81
8750.22
8746.87
8743.53
8738.95
8734.62
8728.41
8722.78
8714.45
8707.14
8696.11
8688.32
8679.44
8672.42
8662.39
8654.59
8643.32
8634.77
8622.19
8612.84
8598.84
8588.65
8573.06
8561.89
8544.46
8532.15
8512.36
8498.72
8475.59
8460.13
8432.19
8412.91
8378.12
8348.4
8289.84
8433.36
65788.7
30991.4
16876.9
12031.8
9787.14
8591.23
7915.5
7525.54
7299.94
7171.02
7099.44
7061.63
7043.57
7036.7
7036.49
7038.91
7043.33
7048.53
7053.51
7058.44
7063.06
7067.07
7070.84
7074.09
7077.11
7079.54
7081.95
7083.87
7085.69
7087.21
7088.63
7089.81
7090.84
7091.87
7092.72
7093.45
7094.09
7094.66
7095.15
7095.58
7095.9
7096.16
7096.3
7096.27
7096.24
7096.05
7095.73
7095.2
7094.52
7093.6
7092.44
7091.03
7089.18
7087.21
7084.47
7081.81
7077.93
7074.37
7069.03
7064.29
7057.1
7050.87
7041.36
7034.63
7026.99
7020.94
7012.34
7005.61
6996
6988.63
6977.96
6969.92
6958.12
6949.38
6936.33
6926.8
6912.3
6901.88
6885.53
6874.06
6855.13
6842.26
6819.58
6804.14
6776.2
6753.37
6711.12
6814.52
59253.6
28866.9
15767.5
11006.4
8739.92
7496.71
6765.52
6320.82
6046.54
5877.38
5774.36
5713.18
5678.53
5660.48
5653.06
5651.8
5654.05
5659.04
5664.66
5670.98
5677.44
5683.51
5689.43
5694.91
5700.08
5704.64
5709.04
5712.88
5716.49
5719.7
5722.68
5725.34
5727.73
5730
5732.02
5733.84
5735.49
5737
5738.35
5739.58
5740.66
5741.62
5742.44
5743.08
5743.61
5744
5744.2
5744.23
5744.02
5743.71
5743.09
5742.26
5741.01
5739.67
5737.59
5735.63
5732.54
5729.78
5725.44
5721.64
5715.73
5710.63
5702.8
5697.19
5690.9
5685.84
5678.77
5673.13
5665.25
5659.05
5650.32
5643.55
5633.93
5626.57
5615.97
5607.97
5596.22
5587.5
5574.3
5564.75
5549.55
5538.91
5520.84
5508.45
5486.46
5469.56
5438.66
5512.83
53615.9
26982.1
14926.5
10257.5
7975.63
6695.52
5920.37
5430.37
5113.12
4905.49
4769.51
4681.1
4624.62
4589.53
4569.02
4558.05
4553.29
4553.32
4555.24
4559.34
4564.43
4569.78
4575.49
4581.15
4586.68
4591.83
4596.89
4601.51
4605.91
4609.94
4613.71
4617.19
4620.37
4623.37
4626.12
4628.64
4630.95
4633.08
4635.02
4636.82
4638.43
4639.91
4641.22
4642.36
4643.35
4644.19
4644.86
4645.32
4645.57
4645.6
4645.48
4645.15
4644.48
4643.66
4642.22
4640.88
4638.57
4636.54
4633.18
4630.24
4625.59
4621.52
4615.33
4610.75
4605.75
4601.6
4595.98
4591.33
4585.06
4579.91
4572.98
4567.35
4559.71
4553.58
4545.16
4538.5
4529.17
4521.94
4511.46
4503.56
4491.55
4482.83
4468.65
4458.77
4441.72
4429.41
4406.83
4459.65
48633.9
25324.4
14291.6
9722.81
7428.55
6117.23
5306.11
4779.11
4425.88
4184.59
4018.12
3902.84
3823.22
3768.59
3731.8
3707.52
3692.04
3683.22
3678.44
3677.06
3677.77
3679.74
3682.89
3686.64
3690.64
3694.71
3698.97
3703.07
3707.1
3710.93
3714.59
3718.08
3721.33
3724.43
3727.33
3730.04
3732.55
3734.9
3737.07
3739.1
3740.95
3742.66
3744.22
3745.62
3746.88
3747.97
3748.92
3749.67
3750.25
3750.62
3750.77
3750.71
3750.52
3750.06
3749.2
3748.34
3746.72
3745.28
3742.77
3740.54
3737.01
3733.81
3729.05
3725.36
3721.5
3718.12
3713.76
3709.96
3705.09
3700.86
3695.46
3690.82
3684.86
3679.79
3673.21
3667.71
3660.41
3654.43
3646.24
3639.74
3630.38
3623.28
3612.32
3604.52
3591.49
3582.59
3566.15
3603.43
44057.4
23875.5
13809.5
9352.68
7049.16
5709.76
4867.65
4309.7
3926.55
3656.91
3464.05
3324.62
3223.26
3149.35
3095.64
3056.69
3028.66
3008.98
2995.18
2986.01
2980.23
2976.82
2975.32
2975.3
2975.97
2977.4
2979.43
2981.68
2984.15
2986.68
2989.25
2991.84
2994.35
2996.82
2999.2
3001.49
3003.65
3005.72
3007.66
3009.5
3011.2
3012.81
3014.29
3015.64
3016.88
3017.99
3018.98
3019.8
3020.5
3020.98
3021.38
3021.41
3021.4
3021.13
3020.71
3020.14
3019.05
3018
3016.18
3014.47
3011.84
3009.3
3005.7
3002.74
2999.79
2997.06
2993.72
2990.63
2986.88
2983.43
2979.26
2975.46
2970.85
2966.69
2961.6
2957.07
2951.42
2946.51
2940.18
2934.87
2927.66
2921.94
2913.58
2907.49
2897.67
2891.28
2879.35
2905.36
39609.8
22594.7
13425.9
9101.41
6796.28
5432.4
4562.89
3978.3
3569.9
3276.52
3061.44
2901.36
2780.95
2689.63
2620.11
2566.96
2526.26
2495.23
2471.52
2453.54
2440.04
2429.91
2422.49
2417.22
2413.49
2410.98
2409.53
2408.78
2408.62
2408.84
2409.38
2410.23
2411.2
2412.3
2413.47
2414.7
2415.91
2417.17
2418.36
2419.53
2420.67
2421.77
2422.81
2423.77
2424.67
2425.48
2426.22
2426.85
2427.4
2427.74
2428.09
2428.1
2428.09
2427.88
2427.58
2427.14
2426.31
2425.47
2424.1
2422.71
2420.7
2418.65
2415.88
2413.48
2411.21
2408.99
2406.42
2403.9
2401.01
2398.2
2394.97
2391.87
2388.3
2384.91
2380.97
2377.27
2372.92
2368.91
2364.05
2359.75
2354.27
2349.69
2343.42
2338.69
2331.41
2326.85
2318.2
2336.07
34976.7
21386.8
13071.8
8918.17
6629.25
5248.8
4356.77
3749.66
3320.02
3006.82
2773.25
2595.94
2459.49
2353.29
2269.99
2204.16
2151.86
2110.19
2076.84
2050.1
2028.68
2011.43
1997.59
1986.49
1977.6
1970.45
1964.79
1960.28
1956.74
1953.95
1951.78
1950.14
1948.9
1948.01
1947.37
1946.98
1946.71
1946.65
1946.57
1946.66
1946.82
1947.02
1947.24
1947.46
1947.68
1947.89
1948.07
1948.24
1948.32
1948.26
1948.25
1948.09
1947.9
1947.6
1947.11
1946.59
1945.78
1944.94
1943.76
1942.5
1940.84
1939.06
1936.82
1934.81
1933
1931.16
1929.12
1927.05
1924.76
1922.45
1919.92
1917.38
1914.59
1911.82
1908.76
1905.75
1902.39
1899.15
1895.44
1891.97
1887.86
1884.2
1879.63
1875.89
1870.73
1867.16
1861.18
1873.18
29823.6
20045.8
12643.3
8735.13
6498.75
5119.4
4214.65
3591.52
3145.61
2816.81
2568.52
2377.36
2227.93
2109.57
2014.87
1938.4
1876.19
1825.28
1783.39
1748.72
1719.97
1695.99
1675.95
1659.13
1645.01
1633.08
1623.01
1614.47
1607.23
1601.07
1595.81
1591.33
1587.49
1584.21
1581.38
1578.96
1576.85
1575.06
1573.48
1572.11
1570.92
1569.89
1568.97
1568.16
1567.42
1566.76
1566.12
1565.54
1564.96
1564.38
1563.78
1563.17
1562.5
1561.83
1561.02
1560.21
1559.23
1558.2
1556.97
1555.65
1554.09
1552.39
1550.41
1548.62
1547.08
1545.49
1543.78
1542.02
1540.14
1538.22
1536.16
1534.06
1531.82
1529.55
1527.13
1524.69
1522.06
1519.45
1516.61
1513.84
1510.77
1507.89
1504.55
1501.66
1497.99
1495.27
1491.1
1498.94
23908.6
18166.9
11974.8
8451.08
6334.79
4991.8
4094.39
3467.75
3014.17
2676.14
2418.18
2217.39
2058.56
1931.16
1827.8
1743.08
1673.06
1614.74
1565.87
1524.63
1489.69
1459.92
1434.45
1412.56
1393.7
1377.36
1363.17
1350.8
1339.99
1330.52
1322.18
1314.83
1308.32
1302.56
1297.42
1292.85
1288.75
1285.09
1281.79
1278.82
1276.12
1273.69
1271.46
1269.43
1267.56
1265.84
1264.23
1262.74
1261.32
1259.98
1258.67
1257.42
1256.16
1254.93
1253.67
1252.41
1251.08
1249.72
1248.26
1246.74
1245.07
1243.31
1241.36
1239.65
1238.23
1236.77
1235.25
1233.69
1232.05
1230.38
1228.64
1226.86
1225
1223.11
1221.13
1219.13
1217.04
1214.94
1212.72
1210.54
1208.2
1205.97
1203.5
1201.29
1198.65
1196.62
1193.63
1198.61
17441.4
15059.2
10820
7912.62
6031.21
4788.58
3936.26
3329.94
2884.67
2548.77
2289.59
2085.73
1922.78
1790.69
1682.34
1592.52
1517.4
1454.04
1400.25
1354.26
1314.73
1280.56
1250.89
1224.99
1202.32
1182.37
1164.76
1149.17
1135.3
1122.95
1111.9
1101.99
1093.07
1085.04
1077.77
1071.19
1065.21
1059.77
1054.8
1050.26
1046.09
1042.26
1038.73
1035.47
1032.44
1029.64
1027.02
1024.57
1022.26
1020.09
1018.01
1016.04
1014.12
1012.28
1010.47
1008.7
1006.92
1005.16
1003.36
1001.54
999.644
997.698
995.644
993.905
992.499
991.076
989.629
988.162
986.665
985.146
983.595
982.022
980.415
978.789
977.126
975.45
973.731
972.013
970.242
968.498
966.678
964.937
963.061
961.381
959.407
957.919
955.677
958.74
10467.5
10516.9
8947.34
6905.18
5430.72
4394.26
3652
3107.9
2699.3
2385.54
2139.83
1944.04
1785.67
1655.86
1548.22
1458.05
1381.83
1316.88
1261.13
1212.96
1171.11
1134.54
1102.43
1074.1
1049.01
1026.7
1006.79
988.952
972.928
958.487
945.435
933.608
922.861
913.074
904.138
895.963
888.466
881.58
875.238
869.391
863.984
858.98
854.333
850.018
845.993
842.239
838.721
835.425
832.317
829.389
826.608
823.97
821.443
819.025
816.684
814.42
812.203
810.033
807.877
805.739
803.584
801.417
799.198
797.372
795.926
794.488
793.052
791.619
790.183
788.748
787.307
785.866
784.418
782.971
781.516
780.066
778.604
777.158
775.694
774.263
772.798
771.405
769.931
768.623
767.089
765.987
764.204
766.045
3982.6
5770.07
5711.54
5187.14
4338.3
3658.98
3122.91
2705.59
2378.39
2118.83
1910.32
1740.66
1600.94
1484.61
1386.77
1303.74
1232.69
1171.44
1118.29
1071.87
1031.12
995.144
963.25
934.846
909.45
886.659
866.136
847.596
830.796
815.532
801.625
788.924
777.297
766.63
756.822
747.788
739.449
731.74
724.598
717.974
711.815
706.085
700.74
695.751
691.081
686.707
682.597
678.734
675.089
671.647
668.382
665.285
662.327
659.503
656.787
654.173
651.636
649.174
646.758
644.39
642.038
639.708
637.363
635.471
633.991
632.539
631.108
629.699
628.307
626.932
625.572
624.228
622.897
621.582
620.279
618.996
617.721
616.473
615.229
614.024
612.808
611.662
610.463
609.414
608.178
607.343
605.856
606.943
1093.49
2031.92
2609.17
2780.68
2699.57
2502.59
2256.97
2035.6
1842.21
1676.83
1536.47
1417.2
1315.49
1228.29
1153.1
1087.88
1030.99
981.093
937.103
898.13
863.451
832.461
804.662
779.633
757.025
736.538
717.92
700.954
685.453
671.258
658.228
646.244
635.198
624.999
615.564
606.822
598.708
591.167
584.146
577.601
571.491
565.779
560.432
555.42
550.713
546.29
542.123
538.194
534.48
530.967
527.63
524.461
521.436
518.548
515.774
513.11
510.532
508.038
505.604
503.231
500.891
498.59
496.296
494.466
493.047
491.665
490.316
488.998
487.709
486.447
485.211
484.001
482.816
481.656
480.519
479.41
478.321
477.263
476.222
475.22
474.223
473.286
472.32
471.478
470.492
469.851
468.619
469.224
452.752
642.844
877.28
1068.09
1182.25
1222.54
1212
1182.7
1130.8
1074.97
1019.86
967.12
917.994
872.831
831.612
794.129
760.099
729.205
701.143
675.62
652.374
631.164
611.779
594.028
577.743
562.778
549.001
536.296
524.561
513.704
503.644
494.31
485.636
477.566
470.047
463.034
456.484
450.36
444.627
439.256
434.217
429.485
425.036
420.85
416.904
413.183
409.666
406.341
403.19
400.2
397.357
394.65
392.064
389.591
387.216
384.933
382.726
380.591
378.512
376.488
374.499
372.549
370.615
369.088
367.911
366.769
365.661
364.586
363.54
362.524
361.536
360.575
359.641
358.734
357.853
356.999
356.169
355.367
354.587
353.838
353.105
352.413
351.717
351.098
350.402
349.931
349.039
349.315
310.002
354.646
420.094
491.074
550.821
596.841
622.252
638.371
638.002
634.526
625.205
611.441
596.251
580.165
563.838
547.696
532.008
516.937
502.575
488.967
476.125
464.038
452.684
442.032
432.047
422.69
413.925
405.714
398.019
390.806
384.043
377.698
371.743
366.151
360.896
355.955
351.307
346.932
342.812
338.928
335.265
331.808
328.544
325.459
322.541
319.778
317.161
314.678
312.321
310.079
307.946
305.912
303.97
302.112
300.331
298.619
296.972
295.38
293.841
292.345
290.891
289.471
288.082
287.006
286.185
285.398
284.642
283.915
283.217
282.547
281.904
281.287
280.696
280.129
279.587
279.068
278.572
278.099
277.646
277.215
276.803
276.413
276.035
275.689
275.326
275.067
274.575
274.611
269.938
283.783
310.976
345.925
378.963
410.254
432.961
451.374
461.375
467.702
467.967
466.516
462.904
456.726
449.36
441.239
432.694
423.968
415.238
406.631
398.236
390.112
382.297
374.812
367.669
360.87
354.411
348.285
342.48
336.984
331.784
326.866
322.216
317.819
313.663
309.733
306.017
302.502
299.178
296.033
293.056
290.239
287.571
285.043
282.649
280.379
278.226
276.184
274.247
272.406
270.659
268.997
267.418
265.914
264.484
263.118
261.818
260.573
259.388
258.248
257.164
256.115
255.118
254.366
253.804
253.274
252.774
252.303
251.861
251.447
251.062
250.705
250.375
250.07
249.789
249.529
249.29
249.069
248.865
248.676
248.501
248.339
248.188
248.048
247.915
247.793
247.669
247.581
269.509
282.772
308.372
342.983
375.29
406.726
429.575
448.197
458.769
465.283
466.121
464.86
461.625
455.737
448.617
440.706
432.337
423.759
415.154
406.652
398.345
390.294
382.54
375.107
368.007
361.243
354.813
348.711
342.926
337.447
332.26
327.353
322.711
318.321
314.169
310.243
306.53
303.018
299.695
296.552
293.577
290.761
288.096
285.572
283.183
280.919
278.777
276.748
274.828
273.01
271.29
269.662
268.123
266.667
265.293
263.994
262.772
261.617
260.534
259.511
258.558
257.658
256.825
256.227
255.793
255.395
255.032
254.699
254.397
254.121
253.872
253.647
253.444
253.262
253.1
252.954
252.823
252.707
252.603
252.513
252.434
252.356
252.283
252.21
252.123
252.021
251.954
251.819
307.851
350.179
408.28
478.706
535.831
583.331
609.644
627.043
629.362
626.569
619.275
606.749
592.685
577.554
562.024
546.544
531.402
516.782
502.793
489.492
476.901
465.023
453.839
443.327
433.456
424.193
415.503
407.351
399.704
392.529
385.795
379.472
373.533
367.951
362.704
357.767
353.122
348.747
344.627
340.744
337.083
333.63
330.373
327.3
324.4
321.663
319.079
316.641
314.34
312.171
310.127
308.203
306.394
304.695
303.102
301.611
300.22
298.926
297.725
296.615
295.595
294.661
293.812
293.235
292.829
292.47
292.153
291.877
291.634
291.43
291.254
291.105
290.994
290.893
290.822
290.742
290.667
290.599
290.529
290.478
290.405
290.34
290.273
290.244
290.18
290.21
290.165
290.122
441.819
619.547
830.632
1025.07
1136.72
1187.66
1180.72
1157.42
1111.8
1060.14
1008.43
958.37
911.379
867.921
828.064
791.677
758.526
728.345
700.858
675.805
652.937
632.036
612.899
595.35
579.228
564.393
550.718
538.094
526.42
515.61
505.585
496.274
487.615
479.553
472.037
465.022
458.467
452.337
446.598
441.22
436.177
431.446
427.002
422.828
418.905
415.217
411.75
408.491
405.427
402.549
399.846
397.313
394.938
392.719
390.646
388.72
386.928
385.275
383.749
382.355
381.08
379.932
378.896
378.2
377.715
377.293
376.926
376.612
376.346
376.119
375.939
375.792
375.681
375.601
375.545
375.481
375.435
375.387
375.333
375.278
375.249
375.143
375.155
375.184
375.316
375.343
375.376
375.307
1007.92
1864.14
2416.6
2639.81
2579.02
2418.32
2195.66
1990.39
1808.53
1651.38
1516.98
1402.11
1303.67
1218.95
1145.66
1081.9
1026.14
977.122
933.814
895.377
861.109
830.44
802.883
778.039
755.564
735.173
716.617
699.688
684.203
670.007
656.963
644.953
633.874
623.634
614.154
605.364
597.2
589.608
582.538
575.946
569.793
564.046
558.669
553.64
548.928
544.516
540.379
536.505
532.871
529.472
526.286
523.311
520.528
517.938
515.525
513.291
511.22
509.319
507.57
505.983
504.537
503.248
502.09
501.319
500.785
500.325
499.927
499.595
499.313
499.094
498.88
498.829
498.431
498.347
498.396
498.177
498.156
498.138
498.262
498.193
498.295
498.4
498.397
498.544
498.581
498.742
498.746
498.609
3522.38
5341.42
5373.13
4974.81
4203.95
3571.45
3063.87
2664.46
2348.96
2097.29
1894.19
1728.31
1591.29
1476.87
1380.41
1298.35
1227.98
1167.2
1114.35
1068.12
1027.45
991.502
959.566
931.084
905.573
882.647
861.967
843.261
826.282
810.836
796.741
783.853
772.037
761.184
751.193
741.98
733.467
725.59
718.288
711.512
705.213
699.354
693.894
688.807
684.056
679.627
675.485
671.625
668.012
664.65
661.505
658.587
655.863
653.348
651.01
648.867
646.887
645.093
643.45
641.987
640.665
639.516
638.498
637.858
637.421
637.074
636.759
636.564
636.363
636.129
636.042
635.7
635.624
635.664
635.562
635.599
635.652
635.824
636.054
636.268
636.46
636.663
636.841
637.062
637.225
637.502
637.598
637.409
9519.71
9938.18
8584.57
6714.37
5321.75
4328.22
3609.99
3079.97
2679.95
2371.59
2129.29
1935.68
1778.65
1649.63
1542.41
1452.38
1376.12
1310.99
1254.98
1206.48
1164.24
1127.27
1094.72
1065.96
1040.41
1017.66
997.297
979.028
962.571
947.715
934.252
922.032
910.9
900.746
891.453
882.939
875.116
867.92
861.285
855.16
849.496
844.254
839.393
834.886
830.697
826.812
823.194
819.845
816.72
813.841
811.151
808.691
806.395
804.317
802.384
800.664
799.071
797.69
796.421
795.37
794.408
793.673
793.016
792.695
792.504
792.387
792.322
792.337
792.263
792.228
792.283
792.395
792.575
792.802
793.056
793.342
793.644
793.96
794.284
794.617
794.949
795.29
795.623
795.975
796.299
796.67
796.962
796.759
16344.7
14416.8
10540.3
7770.18
5954.85
4744.71
3909.29
3312.03
2871.69
2538.44
2280.54
2077.15
1914.14
1781.67
1672.74
1582.19
1506.27
1442.06
1387.38
1340.51
1300.09
1265.05
1234.51
1207.8
1184.3
1163.58
1145.21
1128.89
1114.33
1101.31
1089.61
1079.1
1069.6
1061.01
1053.21
1046.13
1039.67
1033.78
1028.39
1023.45
1018.91
1014.75
1010.91
1007.38
1004.12
1001.13
998.357
995.819
993.469
991.336
989.357
987.592
985.951
984.53
983.202
982.11
981.084
980.313
979.586
979.125
978.668
978.562
978.302
978.382
978.545
978.788
979.078
979.409
979.774
980.163
980.582
981.027
981.5
981.995
982.511
983.039
983.581
984.126
984.679
985.226
985.781
986.321
986.873
987.393
987.947
988.428
989.005
988.766
22744.4
17578.8
11742.3
8344.43
6280.16
4960.16
4073.35
3451.51
2999.78
2662.1
2403.58
2201.79
2041.64
1912.79
1807.9
1721.6
1650.03
1590.16
1539.77
1497.09
1460.72
1429.61
1402.83
1379.72
1359.65
1342.2
1326.94
1313.57
1301.79
1291.41
1282.21
1274.05
1266.77
1260.29
1254.47
1249.26
1244.56
1240.33
1236.51
1233.05
1229.91
1227.07
1224.48
1222.13
1219.99
1218.04
1216.28
1214.69
1213.25
1211.98
1210.85
1209.87
1209.01
1208.32
1207.7
1207.32
1206.96
1206.89
1206.77
1206.89
1207.16
1207.63
1208.21
1208.87
1209.45
1210.08
1210.76
1211.47
1212.22
1212.99
1213.79
1214.6
1215.42
1216.25
1217.09
1217.93
1218.78
1219.61
1220.45
1221.26
1222.1
1222.87
1223.7
1224.42
1225.27
1225.87
1226.81
1226.51
28594.5
19513.3
12439.5
8645.2
6450.34
5086.92
4188.18
3566.7
3120.34
2790.06
2539.69
2346.25
2194.33
2073.49
1976.3
1897.37
1832.84
1779.63
1735.57
1698.86
1668.13
1642.31
1620.51
1602.08
1586.38
1573.03
1561.59
1551.81
1543.37
1536.11
1529.82
1524.39
1519.64
1515.52
1511.9
1508.76
1505.98
1503.56
1501.42
1499.54
1497.87
1496.41
1495.11