/*--------------------------------*- C++ -*----------------------------------*\
| =========                 |                                                 |
| \\      /  F ield         | OpenFOAM: The Open Source CFD Toolbox           |
|  \\    /   O peration     | Version:  2306                                  |
|   \\  /    A nd           | Website:  www.openfoam.com                      |
|    \\/     M anipulation  |                                                 |
\*---------------------------------------------------------------------------*/
FoamFile
{
    version     2.0;
    format      ascii;
    arch        "LSB;label=32;scalar=64";
    class       volScalarField;
    location    "1900";
    object      k;
}
// * * * * * * * * * * * * * * * * * * * * * * * * * * * * * * * * * * * * * //

dimensions      [0 2 -2 0 0 0 0];

internalField   nonuniform List<scalar> 
20540
(
88.2821
209.455
88.2659
209.444
88.1784
209.388
88.0148
209.286
87.76
209.127
87.3944
208.897
86.8936
208.58
86.229
208.154
85.3661
207.597
84.2642
206.877
82.8752
205.957
81.1426
204.788
79.001
203.309
76.376
201.443
73.1861
199.083
69.3459
196.093
64.7747
192.283
59.414
187.392
53.2657
181.047
46.3988
172.761
38.9288
161.96
31.0742
147.981
23.2545
130.172
16.3519
108.192
11.7312
82.5112
9.48437
54.4442
8.32006
28.0023
7.65684
13.0461
7.24365
8.38729
6.91654
7.08847
6.77868
6.61922
6.73725
6.45845
6.73626
6.45279
6.77418
6.59895
6.89976
7.03928
7.19909
8.19018
7.59963
12.2183
8.23285
25.4459
9.34166
49.9285
11.4572
76.929
15.7828
102.029
22.4502
123.875
30.1787
141.809
38.0698
156.025
45.6809
167.089
52.7726
175.621
59.2062
182.175
64.8693
187.258
69.7473
191.243
73.888
194.391
77.364
196.891
80.2553
198.885
82.6406
200.477
84.5932
201.749
86.1788
202.761
87.455
203.564
88.4715
204.196
89.2707
204.688
89.8887
205.066
90.356
205.349
90.6985
205.555
90.9378
205.698
91.0919
205.79
91.1744
205.84
91.1957
205.854
35.3445
18.5229
15.8375
14.3888
13.5056
12.9357
12.5399
12.2504
12.0325
11.8642
11.7315
11.6251
11.5389
11.4681
11.4096
11.3606
11.3198
11.2852
11.2558
11.2309
11.2095
11.191
11.1752
11.1614
11.1495
11.139
11.13
11.122
11.115
11.1088
11.1033
11.0984
11.0942
11.0905
11.0871
11.0841
11.0814
11.0791
11.0771
11.0754
11.074
11.0728
11.072
11.0715
11.0713
11.0716
11.0724
11.0736
11.0755
11.078
11.0814
11.0856
11.0909
11.0973
11.1051
11.1145
11.1255
11.1385
11.1535
11.171
11.1911
11.2144
11.2409
11.2662
11.2877
11.3109
11.3354
11.3616
11.3889
11.4182
11.4487
11.4812
11.5153
11.5513
11.5894
11.6296
11.6729
11.7178
11.7693
11.82
11.8867
11.9413
12.0443
12.0835
12.2814
12.2996
12.8669
11.5527
30.1791
11.2926
8.89388
7.73652
7.07627
6.66377
6.38585
6.18694
6.03898
5.92585
5.83738
5.76694
5.71006
5.66362
5.62532
5.59337
5.56682
5.54437
5.5253
5.50919
5.49535
5.48344
5.47324
5.46439
5.45674
5.44998
5.44423
5.43904
5.43458
5.43058
5.42711
5.42396
5.42122
5.41884
5.41665
5.4147
5.41298
5.41146
5.41012
5.40894
5.40791
5.40705
5.40631
5.40572
5.40529
5.40503
5.40504
5.40516
5.40553
5.40611
5.40703
5.40821
5.40983
5.41184
5.4143
5.41732
5.42086
5.42513
5.42998
5.43576
5.44219
5.4498
5.4582
5.46628
5.47299
5.48051
5.48801
5.49625
5.50437
5.51328
5.5221
5.53163
5.54093
5.55129
5.56086
5.57232
5.58189
5.59486
5.60396
5.61947
5.62791
5.64539
5.65725
5.65975
5.69578
5.67493
5.76103
5.60147
37.0238
15.4254
12.4909
11.0243
10.162
9.61267
9.23768
8.96673
8.76381
8.60787
8.48542
8.38763
8.30847
8.2437
8.1902
8.1455
8.10832
8.07683
8.05008
8.02744
8.00801
7.99125
7.97691
7.96444
7.95367
7.94415
7.93605
7.92873
7.92243
7.91679
7.91189
7.90744
7.90357
7.90021
7.89712
7.89437
7.89194
7.88979
7.88789
7.88623
7.88478
7.88357
7.88254
7.88171
7.88112
7.88076
7.88078
7.88098
7.88152
7.88238
7.88371
7.88543
7.88778
7.89068
7.89423
7.89859
7.90372
7.90987
7.91688
7.92519
7.93446
7.9454
7.9575
7.96919
7.97892
7.98969
8.00043
8.01219
8.0238
8.03646
8.049
8.06245
8.07564
8.09017
8.1037
8.11962
8.13307
8.15064
8.16317
8.18318
8.19392
8.21543
8.22857
8.22977
8.26505
8.23664
8.26861
8.23407
42.5104
18.1927
14.9934
13.4484
12.54
11.9588
11.5603
11.2713
11.0542
10.887
10.7554
10.6502
10.5649
10.4951
10.4373
10.3891
10.3489
10.3148
10.2859
10.2614
10.2403
10.2222
10.2066
10.1931
10.1814
10.1711
10.1623
10.1544
10.1475
10.1414
10.1361
10.1313
10.1271
10.1234
10.12
10.1171
10.1144
10.1121
10.11
10.1082
10.1066
10.1053
10.1042
10.1033
10.1027
10.1023
10.1023
10.1026
10.1032
10.1042
10.1057
10.1076
10.1102
10.1135
10.1174
10.1223
10.128
10.1348
10.1426
10.1518
10.1621
10.1742
10.1876
10.2006
10.2114
10.2233
10.2352
10.2481
10.261
10.2749
10.2887
10.3034
10.3179
10.3338
10.3487
10.3659
10.3808
10.3995
10.4137
10.4341
10.4465
10.4677
10.4819
10.485
10.5144
10.4967
10.4949
10.317
46.9619
19.8103
16.2226
14.6
13.6673
13.074
12.6685
12.3747
12.154
11.9839
11.8501
11.743
11.6562
11.5851
11.5263
11.4772
11.4362
11.4015
11.372
11.3471
11.3256
11.3071
11.2913
11.2775
11.2656
11.2551
11.2461
11.238
11.2311
11.2248
11.2194
11.2145
11.2102
11.2064
11.203
11.1999
11.1972
11.1949
11.1927
11.1909
11.1892
11.1879
11.1867
11.1857
11.185
11.1845
11.1844
11.1845
11.1849
11.1857
11.1869
11.1885
11.1908
11.1936
11.1971
11.2013
11.2063
11.2124
11.2192
11.2274
11.2364
11.247
11.2588
11.2702
11.2796
11.29
11.3002
11.3115
11.3225
11.3345
11.3462
11.3588
11.3708
11.3842
11.3963
11.4108
11.4224
11.4379
11.4482
11.4649
11.4727
11.4895
11.4962
11.4989
11.5115
11.5061
11.465
11.2563
50.8901
21.0899
16.9607
15.2139
14.2482
13.6436
13.2338
12.9385
12.717
12.5465
12.4124
12.3052
12.2183
12.1471
12.0882
12.039
11.998
11.9633
11.9338
11.9088
11.8873
11.8688
11.853
11.8392
11.8273
11.8168
11.8078
11.7997
11.7928
11.7865
11.7811
11.7761
11.7718
11.7681
11.7647
11.7616
11.7589
11.7565
11.7543
11.7525
11.7508
11.7494
11.7481
11.747
11.7462
11.7456
11.7453
11.7452
11.7454
11.7458
11.7467
11.7478
11.7496
11.7517
11.7544
11.7577
11.7617
11.7665
11.7719
11.7783
11.7854
11.7939
11.803
11.8121
11.8193
11.8276
11.8354
11.8443
11.8526
11.8619
11.8706
11.8801
11.8888
11.8988
11.9071
11.9179
11.9253
11.9367
11.9424
11.9542
11.9571
11.9683
11.9676
11.9699
11.9668
11.9687
11.9129
11.7078
54.544
22.3431
17.5481
15.6118
14.5907
13.9684
13.5533
13.257
13.0359
12.8662
12.7329
12.6265
12.5402
12.4696
12.4113
12.3625
12.322
12.2876
12.2584
12.2336
12.2124
12.1941
12.1785
12.1648
12.1531
12.1426
12.1338
12.1258
12.1189
12.1127
12.1074
12.1025
12.0983
12.0946
12.0912
12.0881
12.0854
12.083
12.0809
12.079
12.0773
12.0759
12.0745
12.0734
12.0725
12.0717
12.0713
12.0709
12.0709
12.071
12.0714
12.0721
12.0732
12.0746
12.0764
12.0788
12.0816
12.085
12.0888
12.0935
12.0985
12.1046
12.1109
12.1175
12.1225
12.1284
12.1337
12.14
12.1455
12.152
12.1575
12.1639
12.1692
12.1758
12.1804
12.1874
12.1909
12.198
12.1998
12.2063
12.2054
12.2107
12.2055
12.2059
12.1925
12.1973
12.141
11.9329
58.0496
23.6759
18.1324
15.9338
14.8226
14.1693
13.7442
13.4457
13.2251
13.0566
12.9249
12.8199
12.735
12.6656
12.6083
12.5604
12.5207
12.487
12.4584
12.4342
12.4134
12.3955
12.3802
12.3669
12.3554
12.3452
12.3366
12.3288
12.3221
12.3161
12.3108
12.3061
12.3019
12.2984
12.295
12.292
12.2894
12.287
12.2849
12.2831
12.2814
12.2799
12.2786
12.2774
12.2764
12.2755
12.2749
12.2743
12.274
12.2737
12.2738
12.2739
12.2745
12.2752
12.2762
12.2776
12.2792
12.2813
12.2836
12.2865
12.2894
12.2932
12.2968
12.3009
12.3037
12.3073
12.3102
12.314
12.3168
12.3205
12.3232
12.3266
12.3288
12.3322
12.3335
12.3368
12.3372
12.3399
12.3387
12.3406
12.3364
12.3375
12.3288
12.3275
12.3053
12.3102
12.2601
12.058
61.4758
25.1233
18.7848
16.2562
15.0107
14.3047
13.86
13.5554
13.3339
13.1666
13.0367
12.9337
12.8507
12.783
12.7272
12.6806
12.6422
12.6095
12.5818
12.5584
12.5384
12.5211
12.5063
12.4935
12.4825
12.4726
12.4644
12.4568
12.4504
12.4446
12.4396
12.435
12.431
12.4276
12.4244
12.4215
12.419
12.4167
12.4147
12.4129
12.4112
12.4098
12.4084
12.4072
12.4061
12.4052
12.4044
12.4037
12.4031
12.4025
12.4022
12.4019
12.4019
12.4019
12.4021
12.4026
12.4031
12.404
12.4048
12.4061
12.407
12.4086
12.4097
12.4115
12.4123
12.4138
12.4145
12.416
12.4164
12.4177
12.4177
12.4185
12.418
12.4183
12.417
12.4171
12.4149
12.4142
12.4102
12.4088
12.4017
12.3998
12.3877
12.385
12.3588
12.36
12.3174
12.1322
64.863
26.6979
19.5397
16.6286
15.2004
14.4123
13.9324
13.614
13.3882
13.2206
13.0921
12.9911
12.9103
12.8447
12.7909
12.7461
12.7092
12.6779
12.6515
12.6293
12.6102
12.5937
12.5798
12.5677
12.5572
12.5479
12.5402
12.5331
12.527
12.5216
12.5169
12.5125
12.5088
12.5056
12.5026
12.4999
12.4975
12.4954
12.4934
12.4917
12.4901
12.4887
12.4874
12.4862
12.4851
12.4841
12.4832
12.4823
12.4816
12.4807
12.4801
12.4793
12.4789
12.4783
12.4778
12.4775
12.477
12.4768
12.4762
12.476
12.4752
12.4749
12.4738
12.4735
12.4726
12.4723
12.471
12.4705
12.4688
12.468
12.4658
12.4645
12.4615
12.4598
12.4558
12.4538
12.4487
12.4461
12.4392
12.4359
12.4261
12.4223
12.4076
12.4034
12.3762
12.3722
12.3354
12.1777
68.2349
28.4075
20.4118
17.0839
15.4283
14.5231
13.9861
13.6416
13.4048
13.2335
13.1047
13.0051
12.9263
12.863
12.8114
12.7687
12.7339
12.7043
12.6795
12.6587
12.6409
12.6256
12.6127
12.6014
12.5918
12.5832
12.5762
12.5696
12.5641
12.5591
12.5548
12.5508
12.5474
12.5446
12.5418
12.5393
12.5372
12.5352
12.5335
12.5319
12.5304
12.5291
12.5279
12.5267
12.5256
12.5246
12.5236
12.5227
12.5218
12.5207
12.5198
12.5187
12.5178
12.5168
12.5157
12.5147
12.5134
12.5123
12.5106
12.5092
12.5068
12.5051
12.5018
12.5001
12.4975
12.4959
12.4927
12.4908
12.4872
12.485
12.4806
12.478
12.4728
12.4697
12.4635
12.46
12.4527
12.4487
12.4397
12.4351
12.4234
12.4182
12.4019
12.3962
12.3697
12.3613
12.3275
12.2069
71.6037
30.2596
21.4069
17.6417
15.7238
14.6662
14.0452
13.6569
13.3985
13.2172
13.0846
12.9844
12.9067
12.8452
12.7958
12.7553
12.7226
12.6951
12.6721
12.6531
12.6368
12.6229
12.6113
12.6012
12.5927
12.585
12.5788
12.573
12.5681
12.5637
12.56
12.5565
12.5536
12.5511
12.5487
12.5466
12.5447
12.543
12.5415
12.5402
12.5389
12.5377
12.5366
12.5355
12.5345
12.5335
12.5325
12.5315
12.5306
12.5294
12.5283
12.527
12.5258
12.5243
12.5228
12.5212
12.5193
12.5175
12.5149
12.5126
12.509
12.5061
12.5011
12.4983
12.4944
12.4918
12.4871
12.4843
12.479
12.4759
12.4699
12.4663
12.4594
12.4554
12.4475
12.4431
12.4341
12.4292
12.4187
12.4132
12.4004
12.3942
12.3772
12.37
12.3448
12.3336
12.3013
12.2089
74.9724
32.2631
22.5283
18.3123
16.1085
14.8675
14.134
13.68
13.3848
13.1838
13.0413
12.9367
12.8578
12.7967
12.7487
12.71
12.6794
12.654
12.633
12.6159
12.6015
12.5892
12.5791
12.5704
12.5631
12.5566
12.5514
12.5465
12.5425
12.5389
12.5359
12.533
12.5306
12.5287
12.5268
12.5251
12.5236
12.5223
12.5211
12.52
12.5189
12.518
12.517
12.5161
12.5152
12.5144
12.5134
12.5125
12.5115
12.5102
12.5091
12.5076
12.5062
12.5045
12.5027
12.5008
12.4984
12.4961
12.4928
12.4899
12.4854
12.4817
12.4756
12.4719
12.467
12.4638
12.4581
12.4546
12.4482
12.4444
12.4373
12.4331
12.425
12.4204
12.4115
12.4064
12.3965
12.391
12.3797
12.3736
12.3601
12.3533
12.3363
12.3279
12.304
12.2908
12.2604
12.1877
78.3341
34.4269
23.7801
19.1002
16.5958
15.1485
14.2762
13.7327
13.3822
13.1478
12.9859
12.8706
12.7861
12.7227
12.6744
12.6363
12.6072
12.5833
12.5643
12.549
12.5364
12.5259
12.5175
12.5103
12.5044
12.4992
12.4953
12.4915
12.4885
12.4858
12.4836
12.4816
12.4799
12.4786
12.4772
12.4761
12.4751
12.4742
12.4734
12.4727
12.4719
12.4713
12.4706
12.4699
12.4692
12.4685
12.4677
12.4669
12.4659
12.4647
12.4636
12.4621
12.4606
12.4588
12.4569
12.4547
12.4521
12.4495
12.4459
12.4425
12.4375
12.4333
12.4265
12.4223
12.4169
12.4133
12.407
12.4031
12.3961
12.3918
12.384
12.3795
12.3708
12.3659
12.3564
12.3511
12.3406
12.3348
12.3231
12.3167
12.3031
12.2958
12.279
12.2699
12.2475
12.2314
12.2049
12.1477
81.6706
36.7586
25.1687
20.0085
17.1931
15.524
14.4922
13.837
13.4108
13.1267
12.9329
12.7974
12.7007
12.6302
12.578
12.5383
12.5089
12.4856
12.4677
12.4537
12.4427
12.4338
12.427
12.4213
12.4169
12.4131
12.4105
12.4079
12.4061
12.4044
12.4032
12.402
12.4012
12.4006
12.4
12.3994
12.399
12.3987
12.3984
12.3981
12.3978
12.3975
12.3971
12.3967
12.3963
12.3959
12.3953
12.3946
12.3938
12.3927
12.3917
12.3903
12.3889
12.3871
12.3852
12.383
12.3803
12.3776
12.3738
12.3704
12.3651
12.3607
12.3536
12.3492
12.3436
12.3397
12.3333
12.3291
12.3219
12.3175
12.3095
12.3048
12.296
12.2909
12.2813
12.2758
12.2653
12.2593
12.2476
12.2411
12.2276
12.22
12.2036
12.194
12.1727
12.1551
12.1314
12.0874
84.9491
39.2618
26.7019
21.0408
17.9044
16.0033
14.7973
14.0123
13.4915
13.1402
12.8995
12.7319
12.6136
12.5288
12.4675
12.422
12.3893
12.3644
12.3459
12.3321
12.3217
12.3137
12.3081
12.3036
12.3005
12.298
12.2966
12.2952
12.2945
12.2939
12.2937
12.2935
12.2935
12.2938
12.2939
12.2941
12.2943
12.2946
12.2948
12.295
12.2952
12.2954
12.2953
12.2954
12.2952
12.2951
12.2948
12.2943
12.2938
12.2929
12.2921
12.2909
12.2896
12.288
12.2862
12.2841
12.2816
12.279
12.2753
12.2718
12.2667
12.2623
12.2553
12.2508
12.2453
12.2413
12.235
12.2308
12.2237
12.2192
12.2114
12.2066
12.198
12.1929
12.1835
12.178
12.1677
12.1618
12.1503
12.1437
12.1305
12.1228
12.1067
12.0968
12.0756
12.0604
12.0324
12.005
88.1169
41.9327
28.388
22.2023
18.7325
16.591
15.2012
14.2733
13.6426
13.2079
12.9051
12.692
12.5406
12.4321
12.3541
12.2968
12.2561
12.2257
12.2037
12.1878
12.1763
12.1678
12.1623
12.1581
12.1557
12.1539
12.1533
12.1528
12.153
12.1534
12.154
12.1547
12.1555
12.1565
12.1574
12.1583
12.1592
12.16
12.1608
12.1616
12.1623
12.1629
12.1634
12.1637
12.164
12.1641
12.1642
12.164
12.1637
12.1631
12.1625
12.1616
12.1606
12.1592
12.1576
12.1558
12.1535
12.1511
12.1476
12.1444
12.1395
12.1353
12.1286
12.1242
12.119
12.1151
12.1092
12.105
12.0983
12.0938
12.0863
12.0816
12.0734
12.0684
12.0592
12.0539
12.0439
12.038
12.0268
12.0203
12.0073
11.9996
11.9838
11.9739
11.953
11.9392
11.9085
11.8942
91.0915
44.7541
30.2333
23.4987
19.6802
17.2896
15.7086
14.6292
13.8774
13.3466
12.9682
12.6962
12.4997
12.3567
12.2526
12.1757
12.1203
12.079
12.0492
12.0274
12.0118
12.0005
11.993
11.9875
11.9843
11.9822
11.9816
11.9812
11.9816
11.9824
11.9835
11.9848
11.9861
11.9876
11.989
11.9905
11.9919
11.9932
11.9945
11.9958
11.9968
11.9979
11.9987
11.9995
12.0001
12.0007
12.0008
12.001
12.0007
12.0006
12.0002
11.9997
11.9989
11.9979
11.9965
11.995
11.993
11.9909
11.9877
11.9847
11.9803
11.9762
11.9701
11.9659
11.961
11.9573
11.9518
11.9477
11.9415
11.937
11.9301
11.9254
11.9177
11.9127
11.9041
11.8988
11.8891
11.8833
11.8724
11.8659
11.8532
11.8454
11.83
11.8201
11.8
11.787
11.7554
11.7505
93.7439
47.6908
32.2384
24.9346
20.7504
18.1003
16.3215
15.0843
14.204
13.5679
13.1034
12.7615
12.5085
12.3202
12.1801
12.0747
11.9967
11.9377
11.894
11.8613
11.8372
11.8193
11.8067
11.7973
11.7912
11.7868
11.7844
11.7828
11.7823
11.7824
11.7831
11.7842
11.7852
11.7867
11.7883
11.7898
11.7913
11.7929
11.7943
11.7958
11.797
11.7983
11.7994
11.8003
11.8011
11.802
11.8024
11.8027
11.8025
11.8027
11.8023
11.8022
11.8015
11.801
11.7998
11.7985
11.7968
11.7949
11.7921
11.7893
11.7853
11.7815
11.7758
11.7717
11.7673
11.7637
11.7587
11.7546
11.7489
11.7445
11.7381
11.7334
11.7262
11.7211
11.7131
11.7076
11.6985
11.6925
11.6821
11.6753
11.663
11.6551
11.64
11.6301
11.611
11.5993
11.567
11.5688
95.8706
50.6857
34.3922
26.5094
21.9432
19.0225
17.0387
15.6386
14.6249
13.8777
13.32
12.8999
12.5815
12.3387
12.1534
12.0106
11.9017
11.8174
11.7528
11.7031
11.6651
11.6357
11.6137
11.5966
11.5842
11.5746
11.568
11.563
11.5596
11.5574
11.5561
11.5557
11.5552
11.5557
11.5564
11.5572
11.5581
11.5592
11.5602
11.5614
11.5622
11.5633
11.5641
11.565
11.5657
11.5664
11.5668
11.5669
11.567
11.5671
11.5669
11.5668
11.5661
11.5657
11.5647
11.5635
11.5619
11.5601
11.5575
11.5548
11.5511
11.5474
11.5421
11.5381
11.534
11.5304
11.5258
11.5217
11.5165
11.512
11.5061
11.5012
11.4945
11.4892
11.4817
11.4758
11.4673
11.4609
11.451
11.4437
11.432
11.4235
11.4092
11.3992
11.3812
11.371
11.3408
11.3451
97.1449
53.6463
36.6618
28.2097
23.2513
20.0505
17.8554
16.2881
15.1373
14.2754
13.6203
13.1168
12.727
12.4229
12.1851
11.9975
11.8503
11.7334
11.6411
11.5678
11.5098
11.4634
11.427
11.3976
11.3746
11.3562
11.3419
11.3304
11.3214
11.3144
11.3089
11.3048
11.3014
11.299
11.2973
11.2961
11.2952
11.2946
11.2943
11.2942
11.2937
11.2937
11.2937
11.294
11.2938
11.2939
11.2938
11.2937
11.2937
11.2934
11.293
11.2924
11.2917
11.2907
11.2895
11.2881
11.2863
11.2843
11.2817
11.2789
11.2751
11.2713
11.2662
11.2621
11.2582
11.2545
11.2501
11.2459
11.2409
11.2362
11.2306
11.2255
11.2191
11.2135
11.2063
11.2
11.1919
11.1849
11.1755
11.1676
11.1565
11.1475
11.1341
11.124
11.1074
11.0977
11.0713
11.0769
97.0923
56.4178
38.9741
29.9971
24.6509
21.1674
18.758
17.0212
15.7318
14.7536
13.9992
13.4099
12.9454
12.576
12.2811
12.0435
11.8523
11.6971
11.5713
11.4685
11.3849
11.316
11.26
11.2134
11.1754
11.1438
11.1178
11.0961
11.0782
11.0632
11.0507
11.0404
11.0315
11.0242
11.018
11.0128
11.0084
11.0046
11.0014
10.9987
10.9962
10.9941
10.9922
10.9905
10.9889
10.9876
10.9862
10.9849
10.9836
10.9823
10.9809
10.9795
10.9779
10.9762
10.9743
10.9722
10.9698
10.9672
10.9641
10.9607
10.9566
10.9523
10.9469
10.9425
10.9385
10.9345
10.93
10.9256
10.9205
10.9156
10.91
10.9045
10.8982
10.8922
10.8851
10.8784
10.8704
10.8629
10.8538
10.8454
10.8347
10.8254
10.8128
10.8028
10.7876
10.7784
10.7555
10.7616
94.9533
58.7361
41.1832
31.7857
26.0856
22.3326
19.7152
17.8125
16.387
15.2941
14.4414
13.7667
13.2271
12.7913
12.4373
12.1472
11.9089
11.7118
11.5483
11.412
11.2983
11.2026
11.1224
11.0544
10.9971
10.9482
10.9067
10.8711
10.8406
10.8143
10.7916
10.772
10.7549
10.74
10.727
10.7155
10.7054
10.6965
10.6885
10.6815
10.6751
10.6694
10.6641
10.6594
10.655
10.651
10.6472
10.6436
10.6402
10.637
10.6338
10.6307
10.6276
10.6244
10.621
10.6176
10.614
10.6102
10.606
10.6016
10.5965
10.5912
10.585
10.5799
10.5755
10.571
10.5661
10.5612
10.5558
10.5504
10.5445
10.5386
10.5321
10.5255
10.5183
10.5111
10.5031
10.4951
10.4861
10.4773
10.467
10.4575
10.4457
10.4359
10.422
10.4134
10.3935
10.3996
89.6143
60.1438
43.0086
33.404
27.4393
23.4615
20.6617
18.6096
17.0591
15.8597
14.9149
14.1592
13.5478
13.0478
12.636
12.2938
12.0082
11.7681
11.5656
11.3937
11.2476
11.1224
11.0152
10.9227
10.8429
10.7736
10.7134
10.6607
10.6146
10.574
10.5382
10.5066
10.4785
10.4534
10.431
10.4109
10.3929
10.3766
10.3619
10.3486
10.3364
10.3253
10.3151
10.3057
10.2971
10.289
10.2815
10.2744
10.2678
10.2615
10.2554
10.2496
10.244
10.2384
10.2328
10.2273
10.2216
10.2159
10.2099
10.2037
10.1971
10.1901
10.1825
10.1762
10.1709
10.1656
10.16
10.1543
10.1483
10.1422
10.1357
10.1291
10.1221
10.115
10.1074
10.0997
10.0914
10.083
10.0739
10.0649
10.0548
10.0454
10.0342
10.0247
10.0121
10.0041
9.98646
9.99211
79.5118
59.9889
43.9344
34.5206
28.486
24.3893
21.4706
19.3103
17.6634
16.3785
15.3571
14.5327
13.859
13.3024
12.8386
12.4487
12.1191
11.8384
11.5984
11.3918
11.2135
11.0586
10.9238
10.8058
10.7022
10.6109
10.5302
10.4587
10.3949
10.3381
10.2871
10.2414
10.2002
10.1629
10.1292
10.0986
10.0707
10.0452
10.0219
10.0005
9.98089
9.96277
9.94604
9.93051
9.9161
9.90265
9.89008
9.87827
9.86715
9.85662
9.84661
9.83704
9.82782
9.8189
9.81018
9.80164
9.79312
9.78466
9.77606
9.76738
9.75837
9.74916
9.73935
9.73134
9.72489
9.71836
9.71169
9.70489
9.69792
9.69081
9.68349
9.67601
9.66829
9.6604
9.65222
9.64388
9.63518
9.62638
9.61712
9.60792
9.59806
9.58864
9.57811
9.56893
9.55738
9.54942
9.53433
9.5391
64.7396
55.534
43.0531
34.5817
28.8301
24.819
21.9088
19.7255
18.0426
16.7163
15.6522
14.7852
14.0699
13.4732
12.9709
12.5443
12.1797
11.8658
11.5942
11.3577
11.1511
10.9694
10.8093
10.6674
10.5413
10.4288
10.3281
10.2377
10.1562
10.0827
10.016
9.95552
9.90042
9.8501
9.80408
9.76186
9.72308
9.68735
9.65438
9.6239
9.59567
9.56946
9.54509
9.52237
9.50116
9.4813
9.46267
9.44514
9.4286
9.41294
9.39806
9.38388
9.37028
9.35721
9.34453
9.33221
9.3201
9.30819
9.29631
9.28447
9.27244
9.2603
9.2477
9.23756
9.2295
9.22144
9.21333
9.20517
9.19692
9.1886
9.18016
9.17163
9.16296
9.15419
9.14526
9.13623
9.12702
9.11776
9.10826
9.09885
9.08909
9.0797
9.06962
9.06069
9.0499
9.0425
9.02837
9.0326
45.1285
44.6723
39.0855
32.6414
27.7987
24.2526
21.5873
19.5393
17.932
16.6466
15.6021
14.7411
14.0229
13.4173
12.9021
12.4601
12.0782
11.746
11.4554
11.1998
10.9739
10.7732
10.5944
10.4343
10.2905
10.1608
10.0436
9.9373
9.84062
9.75245
9.67185
9.59798
9.53015
9.4677
9.41012
9.35691
9.30766
9.26198
9.21956
9.18007
9.1433
9.10896
9.07687
9.04681
9.01863
8.99213
8.9672
8.94367
8.92142
8.90033
8.88028
8.86116
8.84285
8.82527
8.80829
8.79184
8.77579
8.76008
8.74457
8.72921
8.71381
8.69841
8.68267
8.6701
8.66023
8.65044
8.6407
8.631
8.62131
8.61163
8.60194
8.59225
8.58254
8.57282
8.56307
8.55333
8.54355
8.53382
8.52404
8.5144
8.50464
8.49526
8.48547
8.47671
8.46643
8.45958
8.4459
8.44976
22.5113
29.5674
29.3285
27.4367
24.4126
21.9407
19.9046
18.2552
16.9116
15.8062
14.8874
14.1154
13.4606
12.9001
12.4165
11.9961
11.6282
11.3043
11.0176
10.7624
10.5344
10.3297
10.1453
9.97846
9.82713
9.68939
9.56367
9.44862
9.34307
9.24601
9.15657
9.07396
8.99754
8.9267
8.86094
8.79977
8.74282
8.68969
8.64008
8.59367
8.55022
8.50946
8.47121
8.43523
8.40137
8.36943
8.33927
8.31073
8.28368
8.25798
8.2335
8.21013
8.18775
8.16624
8.14549
8.1254
8.10586
8.08676
8.06798
8.04945
8.031
8.01263
7.99403
7.97927
7.96773
7.95638
7.94517
7.93409
7.92312
7.91225
7.90148
7.89081
7.88023
7.86975
7.85936
7.84909
7.83891
7.82888
7.81894
7.80922
7.79954
7.79026
7.78077
7.77222
7.76247
7.75578
7.74299
7.74646
10.3816
14.7257
17.3582
18.2706
17.9817
17.2467
16.2523
15.328
14.4943
13.7575
13.1119
12.5467
12.0507
11.6137
11.2272
10.8837
10.577
10.302
10.0545
9.83081
9.62797
9.4434
9.27498
9.12083
8.9794
8.8493
8.72938
8.61859
8.51605
8.42096
8.33265
8.25048
8.17393
8.1025
8.03579
7.97337
7.91493
7.86013
7.80871
7.76038
7.71495
7.67215
7.63183
7.59378
7.55784
7.52383
7.49162
7.46106
7.43203
7.40438
7.378
7.35275
7.32855
7.30526
7.28279
7.261
7.23982
7.21911
7.19879
7.17876
7.15887
7.13911
7.11922
7.1035
7.09128
7.07931
7.06756
7.05601
7.04465
7.03347
7.02248
7.01168
7.00105
6.99062
6.98038
6.97034
6.96049
6.95087
6.94144
6.93228
6.92327
6.91464
6.90597
6.89811
6.88936
6.88325
6.87172
6.87455
7.38787
8.19786
9.30817
10.288
10.8579
11.1195
11.0879
10.9736
10.7459
10.4823
10.211
9.94334
9.6866
9.44399
9.21681
9.0051
8.80839
8.62583
8.45649
8.29937
8.15352
8.01801
7.89202
7.77473
7.66546
7.56352
7.46836
7.3794
7.29619
7.21826
7.14523
7.0767
7.01237
6.95191
6.89507
6.84156
6.79117
6.74367
6.69889
6.65661
6.61668
6.57894
6.54325
6.50944
6.47742
6.44703
6.41818
6.39074
6.36461
6.33967
6.31584
6.293
6.27109
6.24996
6.22958
6.20979
6.19057
6.17176
6.15336
6.1352
6.11725
6.09943
6.08159
6.06767
6.05691
6.04642
6.03618
6.02619
6.01642
6.00689
5.99759
5.98852
5.97968
5.97108
5.96271
5.95459
5.94669
5.93904
5.93163
5.92447
5.91751
5.91086
5.90431
5.89829
5.89182
5.88723
5.87852
5.8802
6.62493
6.72754
6.95134
7.25673
7.51124
7.71792
7.83085
7.88341
7.87557
7.84318
7.77631
7.68943
7.59204
7.48867
7.3829
7.27713
7.17303
7.07167
6.97377
6.87973
6.78979
6.70401
6.62239
6.54486
6.47131
6.40159
6.33554
6.273
6.21379
6.15775
6.10471
6.05451
6.00699
5.962
5.91941
5.87906
5.84086
5.80466
5.77036
5.73784
5.70702
5.67777
5.65002
5.62368
5.59866
5.57487
5.55226
5.53071
5.5102
5.49062
5.47193
5.45402
5.43689
5.4204
5.40458
5.38926
5.3745
5.36012
5.34621
5.33255
5.31929
5.30619
5.2934
5.28373
5.2764
5.26937
5.26262
5.25613
5.24991
5.24394
5.23823
5.23277
5.22754
5.22255
5.21779
5.21325
5.20892
5.2048
5.20087
5.19713
5.19357
5.19018
5.18694
5.18389
5.18082
5.17843
5.17411
5.17442
6.34791
6.35111
6.38109
6.45939
6.55916
6.66208
6.73654
6.78881
6.80623
6.8017
6.78572
6.75381
6.70588
6.64944
6.58719
6.52132
6.45352
6.38507
6.31693
6.2498
6.1842
6.12046
6.05883
5.99945
5.94241
5.88774
5.83544
5.78547
5.7378
5.69235
5.64905
5.60783
5.5686
5.53128
5.49579
5.46204
5.42996
5.39947
5.3705
5.34296
5.31679
5.29192
5.2683
5.24584
5.22451
5.20423
5.18497
5.16665
5.14924
5.13269
5.11696
5.10198
5.08776
5.07419
5.06132
5.049
5.03734
5.02614
5.01556
5.00534
4.99575
4.9864
4.97773
4.97146
4.96688
4.96262
4.95864
4.95492
4.95148
4.94826
4.94528
4.94251
4.93994
4.93755
4.93532
4.93322
4.93127
4.92945
4.92775
4.92616
4.92469
4.92331
4.92203
4.92082
4.91967
4.91859
4.91749
4.9167
6.33877
6.3385
6.36182
6.43576
6.53212
6.63799
6.71231
6.76817
6.78807
6.78527
6.77099
6.74364
6.6981
6.64384
6.5835
6.51928
6.45289
6.38566
6.31856
6.25233
6.18748
6.12439
6.06331
6.0044
5.94775
5.89341
5.84138
5.79165
5.74417
5.69888
5.65571
5.6146
5.57545
5.5382
5.50276
5.46906
5.43701
5.40654
5.37758
5.35005
5.3239
5.29904
5.27543
5.253
5.2317
5.21147
5.19227
5.17405
5.15678
5.14039
5.12488
5.11017
5.09626
5.08309
5.07067
5.0589
5.04788
5.03741
5.02768
5.01843
5.00992
5.00182
4.9945
4.98953
4.98605
4.98292
4.98011
4.97757
4.97537
4.97327
4.97167
4.97008
4.96863
4.96732
4.96602
4.9646
4.96341
4.96207
4.96076
4.95953
4.95894
4.9575
4.95743
4.95786
4.95731
4.95778
4.95811
4.95792
6.59297
6.6798
6.8671
7.17062
7.40924
7.62907
7.74432
7.81248
7.81082
7.79045
7.73565
7.65944
7.57075
7.47476
7.37525
7.27481
7.17521
7.07769
6.98302
6.89173
6.80409
6.72027
6.64029
6.56415
6.49175
6.42299
6.35773
6.29585
6.23717
6.18157
6.12888
6.07894
6.03164
5.98681
5.94433
5.90407
5.86592
5.82976
5.79549
5.763
5.73222
5.70304
5.67539
5.64919
5.62439
5.60089
5.57867
5.55763
5.53776
5.519
5.50132
5.48468
5.46905
5.45439
5.44071
5.42793
5.41612
5.40513
5.39515
5.3859
5.37767
5.37013
5.3636
5.35967
5.35706
5.35525
5.35221
5.3509
5.34852
5.34698
5.34533
5.34505
5.34258
5.34258
5.34388
5.34311
5.3448
5.34481
5.34536
5.34703
5.34905
5.35088
5.35258
5.35421
5.35568
5.35734
5.35811
5.35832
7.29711
8.03191
9.02324
10.0284
10.5864
10.9092
10.8982
10.8144
10.6308
10.3922
10.1424
9.89269
9.65079
9.42045
9.20338
9.00007
8.81031
8.63354
8.469
8.31589
8.17335
8.04062
7.91689
7.8015
7.69375
7.59308
7.49891
7.41077
7.32817
7.25073
7.17804
7.10977
7.0456
6.98523
6.92841
6.87489
6.82446
6.77689
6.73203
6.68968
6.64971
6.61196
6.57632
6.54266
6.51087
6.48086
6.45255
6.42585
6.40069
6.37701
6.35476
6.3339
6.31437
6.29616
6.27922
6.26351
6.24908
6.23578
6.22379
6.2128
6.20322
6.1945
6.18715
6.18289
6.17983
6.17805
6.17614
6.17466
6.17278
6.17038
6.16667
6.1656
6.16466
6.16535
6.16665
6.16837
6.17017
6.17199
6.17389
6.1759
6.17799
6.18015
6.18229
6.18446
6.18651
6.18881
6.19022
6.19052
9.92089
13.8607
16.4172
17.5884
17.3966
16.8337
15.9477
15.0984
14.324
13.6307
13.0179
12.4777
12.0012
11.5796
11.2052
10.8713
10.5723
10.3035
10.0608
9.84097
9.64112
9.45894
9.29228
9.13948
8.99898
8.86953
8.74996
8.63935
8.53677
8.44154
8.35293
8.27039
8.19338
8.12145
8.05417
7.99117
7.93213
7.87673
7.82472
7.77583
7.72988
7.68663
7.64593
7.6076
7.57152
7.53753
7.50555
7.47544
7.44714
7.42055
7.39561
7.37224
7.35041
7.33007
7.31117
7.29367
7.27756
7.26281
7.24937
7.23728
7.2264
7.21693
7.20841
7.20366
7.20002
7.19782
7.19554
7.19349
7.19195
7.19043
7.18913
7.18637
7.18562
7.18539
7.18396
7.18523
7.18535
7.18707
7.18952
7.19205
7.19444
7.19672
7.19881
7.20093
7.20286
7.20498
7.20714
7.20641
20.539
27.7509
28.0054
26.6092
23.8835
21.5909
19.6707
18.0965
16.8058
15.7382
14.8467
14.0949
13.455
12.9057
12.4304
12.0161
11.6526
11.3318
11.0471
10.7933
10.5659
10.3613
10.1765
10.0091
9.85675
9.71791
9.59086
9.47441
9.36731
9.26869
9.17759
9.09335
9.01524
8.94274
8.87532
8.81253
8.75398
8.69931
8.64821
8.60037
8.55559
8.51358
8.47421
8.43722
8.40253
8.36992
8.33934
8.3106
8.28367
8.25839
8.23477
8.21265
8.19206
8.17286
8.1551
8.13867
8.12358
8.10978
8.09724
8.08597
8.07588
8.06705
8.05929
8.05467
8.05169
8.04917
8.04753
8.045
8.04396
8.04032
8.03871
8.03797
8.03835
8.03682
8.03769
8.03869
8.03907
8.04079
8.04306
8.0452
8.0471
8.04893
8.05057
8.05241
8.0539
8.05618
8.05692
8.05667
41.7737
42.607
38.0046
32.0639
27.4798
24.0758
21.4961
19.5008
17.9279
16.6658
15.6369
14.7864
14.0751
13.4738
12.9609
12.5198
12.1378
11.8046
11.5124
11.2547
11.0263
10.8231
10.6413
10.4783
10.3314
10.1987
10.0782
9.96884
9.86899
9.77778
9.69411
9.61731
9.54655
9.48131
9.42098
9.36513
9.31333
9.2652
9.22044
9.17873
9.13986
9.10353
9.06964
9.0379
9.00827
8.98047
8.95453
8.93018
8.90751
8.88623
8.86647
8.84797
8.83089
8.81496
8.80035
8.78685
8.77456
8.76337
8.75331
8.74431
8.73644
8.72948
8.72377
8.72025
8.7183
8.71695
8.71547
8.71415
8.713
8.71248
8.70983
8.70992
8.71038
8.71131
8.71244
8.71367
8.715
8.71652
8.71818
8.71994
8.72171
8.72351
8.72529
8.72714
8.7289
8.73092
8.73223
8.73227
61.2395
53.927
42.398
34.312
28.7373
24.8148
21.9537
19.7976
18.13
16.8121
15.7516
14.8855
14.169
13.5697
13.0638
12.6331
12.2638
11.945
11.6683
11.4266
11.2146
11.0278
10.8624
10.7155
10.5843
10.467
10.3615
10.2666
10.1806
10.1028
10.0319
9.96742
9.90841
9.85442
9.80482
9.75922
9.71717
9.67835
9.64245
9.60917
9.57832
9.54963
9.523
9.49816
9.4751
9.45352
9.43352
9.41479
9.39747
9.38125
9.36634
9.35236
9.33964
9.32776
9.31706
9.30719
9.29837
9.29043
9.28344
9.2773
9.27216
9.26772
9.26425
9.26269
9.26171
9.26169
9.25959
9.26028
9.25923
9.25901
9.25975
9.26094
9.26235
9.264
9.26582
9.26776
9.26976
9.2718
9.27387
9.27595
9.27802
9.28009
9.28215
9.2842
9.28625
9.28822
9.2906
9.29038
76.1409
59.1452
43.6882
34.5114
28.5738
24.519
21.6186
19.4643
17.8168
16.5278
15.5002
14.6685
13.9866
13.4217
12.9492
12.5508
12.2127
11.9237
11.6756
11.4612
11.2752
11.113
10.9711
10.8464
10.7362
10.6388
10.5521
10.4749
10.4057
10.3437
10.2878
10.2374
10.1917
10.1503
10.1125
10.0781
10.0465
10.0177
9.99116
9.96674
9.94425
9.92347
9.90429
9.88649
9.87007
9.8548
9.84074
9.82764
9.81563
9.80443
9.79426
9.78477
9.77631
9.7684
9.76151
9.75516
9.74973
9.74497
9.74092
9.73758
9.73511
9.733
9.73182
9.73141
9.73068
9.73124
9.73225
9.73359
9.73503
9.73654
9.73819
9.74
9.74197
9.74408
9.7463
9.74861
9.75099
9.75339
9.75585
9.75826
9.76075
9.76309
9.76561
9.76778
9.77045
9.77217
9.77549
9.77571
86.9198
59.749
43.0632
33.5858
27.6579
23.6852
20.8796
18.8166
17.253
16.0398
15.0807
14.3113
13.6861
13.1732
12.7485
12.3942
12.097
11.8458
11.6329
11.4511
11.2955
11.1616
11.0459
10.9456
10.8582
10.782
10.715
10.6562
10.6041
10.5581
10.5171
10.4806
10.4478
10.4185
10.392
10.3681
10.3465
10.3268
10.309
10.2926
10.2777
10.264