/*--------------------------------*- C++ -*----------------------------------*\
| =========                 |                                                 |
| \\      /  F ield         | OpenFOAM: The Open Source CFD Toolbox           |
|  \\    /   O peration     | Version:  2306                                  |
|   \\  /    A nd           | Website:  www.openfoam.com                      |
|    \\/     M anipulation  |                                                 |
\*---------------------------------------------------------------------------*/
FoamFile
{
    version     2.0;
    format      ascii;
    arch        "LSB;label=32;scalar=64";
    class       volScalarField;
    location    "1900";
    object      nut;
}
// * * * * * * * * * * * * * * * * * * * * * * * * * * * * * * * * * * * * * //

dimensions      [0 2 -1 0 0 0 0];

internalField   nonuniform List<scalar> 
20540
(
0.0300064
0.0970112
0.01981
0.0709399
0.0170014
0.0641156
0.0156578
0.0603683
0.0147783
0.0573887
0.0141391
0.0549493
0.0136645
0.0529675
0.0133125
0.0513452
0.0130534
0.0499954
0.0128639
0.0488473
0.0127236
0.0478422
0.0126137
0.0469287
0.012515
0.0460605
0.0124068
0.0451939
0.0122664
0.0442871
0.0120688
0.0432969
0.0117883
0.0421749
0.0114044
0.0408605
0.0109116
0.0392721
0.0103133
0.0373248
0.0096052
0.0349582
0.00884008
0.032115
0.00826059
0.0287584
0.00861176
0.0248883
0.0119029
0.0205073
0.0182635
0.0156301
0.0129256
0.0111727
0.0124323
0.0107339
0.0158755
0.0211014
0.0218707
0.0240092
0.027074
0.025111
0.0289671
0.026974
0.0289409
0.0269923
0.0270395
0.0251485
0.0220976
0.0240533
0.016398
0.0213711
0.0129378
0.01077
0.0131531
0.0106333
0.0178561
0.0147065
0.0122749
0.019402
0.00869137
0.0236319
0.00821866
0.0273915
0.00877241
0.030667
0.00955932
0.0334437
0.0103088
0.0357476
0.0109566
0.0376302
0.0115008
0.0391499
0.0119263
0.0404003
0.0122374
0.0414631
0.0124551
0.0423972
0.0126057
0.0432456
0.0127143
0.0440446
0.0128037
0.0448288
0.0128939
0.0456337
0.0130031
0.0464968
0.0131487
0.0474594
0.0133483
0.0485677
0.0136213
0.049876
0.0139908
0.0514503
0.0144871
0.0533743
0.0151537
0.0557455
0.0160687
0.0586525
0.017453
0.0623084
0.0202924
0.0688254
0.0305052
0.0934258
2.06311e-05
1.6091e-05
1.52207e-05
1.47267e-05
1.44145e-05
1.42067e-05
1.40596e-05
1.39504e-05
1.38671e-05
1.38022e-05
1.37506e-05
1.3709e-05
1.3675e-05
1.36471e-05
1.36239e-05
1.36044e-05
1.35881e-05
1.35743e-05
1.35626e-05
1.35526e-05
1.3544e-05
1.35366e-05
1.35302e-05
1.35247e-05
1.35199e-05
1.35156e-05
1.3512e-05
1.35088e-05
1.3506e-05
1.35034e-05
1.35013e-05
1.34993e-05
1.34975e-05
1.3496e-05
1.34947e-05
1.34934e-05
1.34924e-05
1.34914e-05
1.34906e-05
1.34899e-05
1.34893e-05
1.34888e-05
1.34884e-05
1.34882e-05
1.3488e-05
1.34881e-05
1.34883e-05
1.34887e-05
1.34893e-05
1.34901e-05
1.34912e-05
1.34926e-05
1.34944e-05
1.34966e-05
1.34992e-05
1.35024e-05
1.35062e-05
1.35106e-05
1.35157e-05
1.35217e-05
1.35286e-05
1.35365e-05
1.35454e-05
1.3554e-05
1.35612e-05
1.35691e-05
1.35773e-05
1.35862e-05
1.35953e-05
1.36052e-05
1.36154e-05
1.36263e-05
1.36375e-05
1.36496e-05
1.3662e-05
1.36754e-05
1.36893e-05
1.37045e-05
1.37209e-05
1.37386e-05
1.37597e-05
1.37793e-05
1.38127e-05
1.38259e-05
1.38934e-05
1.38961e-05
1.4109e-05
1.33587e-05
4.53642e-05
1.67878e-05
1.35949e-05
1.21256e-05
1.13132e-05
1.08081e-05
1.04715e-05
1.02323e-05
1.00545e-05
9.91862e-06
9.81248e-06
9.72798e-06
9.65976e-06
9.60405e-06
9.55812e-06
9.5198e-06
9.48802e-06
9.4611e-06
9.43827e-06
9.41899e-06
9.40244e-06
9.38819e-06
9.37602e-06
9.36543e-06
9.35631e-06
9.34822e-06
9.34139e-06
9.33518e-06
9.32987e-06
9.32508e-06
9.32095e-06
9.31717e-06
9.31391e-06
9.31109e-06
9.30845e-06
9.30609e-06
9.304e-06
9.30212e-06
9.30043e-06
9.29891e-06
9.29752e-06
9.29629e-06
9.29511e-06
9.29403e-06
9.29303e-06
9.29208e-06
9.29138e-06
9.29054e-06
9.28976e-06
9.28898e-06
9.28828e-06
9.2875e-06
9.28687e-06
9.28617e-06
9.28544e-06
9.28475e-06
9.28392e-06
9.28317e-06
9.28207e-06
9.28111e-06
9.27953e-06
9.27818e-06
9.27596e-06
9.274e-06
9.27188e-06
9.27046e-06
9.26798e-06
9.26587e-06
9.26251e-06
9.25964e-06
9.25536e-06
9.25151e-06
9.24564e-06
9.24106e-06
9.23266e-06
9.22785e-06
9.21534e-06
9.21126e-06
9.19152e-06
9.19069e-06
9.15847e-06
9.16209e-06
9.11351e-06
9.09507e-06
9.04499e-06
8.99819e-06
8.87824e-06
8.71837e-06
0.00012482
4.176e-05
3.35605e-05
2.99799e-05
2.80384e-05
2.68372e-05
2.60372e-05
2.54687e-05
2.50456e-05
2.47218e-05
2.44684e-05
2.42665e-05
2.41032e-05
2.39698e-05
2.38597e-05
2.37677e-05
2.36915e-05
2.36268e-05
2.3572e-05
2.35257e-05
2.34859e-05
2.34517e-05
2.34224e-05
2.3397e-05
2.33751e-05
2.33556e-05
2.33392e-05
2.33242e-05
2.33115e-05
2.33e-05
2.329e-05
2.32809e-05
2.32731e-05
2.32663e-05
2.32599e-05
2.32542e-05
2.32492e-05
2.32447e-05
2.32406e-05
2.32369e-05
2.32336e-05
2.32306e-05
2.32277e-05
2.3225e-05
2.32225e-05
2.32201e-05
2.32183e-05
2.32162e-05
2.32141e-05
2.32119e-05
2.321e-05
2.32077e-05
2.32058e-05
2.32036e-05
2.32013e-05
2.3199e-05
2.31962e-05
2.31935e-05
2.31899e-05
2.31864e-05
2.31813e-05
2.31766e-05
2.31695e-05
2.31635e-05
2.31572e-05
2.31525e-05
2.31451e-05
2.31387e-05
2.31291e-05
2.31207e-05
2.31088e-05
2.3098e-05
2.30821e-05
2.30697e-05
2.30476e-05
2.30351e-05
2.30031e-05
2.29929e-05
2.29431e-05
2.29409e-05
2.28596e-05
2.28699e-05
2.27488e-05
2.27087e-05
2.25745e-05
2.25037e-05
2.21307e-05
2.17332e-05
0.000290586
8.8891e-05
6.99409e-05
6.26566e-05
5.90158e-05
5.68652e-05
5.54749e-05
5.45077e-05
5.37977e-05
5.32592e-05
5.28408e-05
5.25089e-05
5.22418e-05
5.2024e-05
5.18449e-05
5.16955e-05
5.15722e-05
5.14675e-05
5.1379e-05
5.13044e-05
5.12404e-05
5.11853e-05
5.11384e-05
5.10976e-05
5.10625e-05
5.10313e-05
5.10052e-05
5.09812e-05
5.09608e-05
5.09424e-05
5.09267e-05
5.0912e-05
5.08995e-05
5.08888e-05
5.08786e-05
5.08695e-05
5.08615e-05
5.08542e-05
5.08477e-05
5.08417e-05
5.08362e-05
5.08312e-05
5.08263e-05
5.08217e-05
5.08173e-05
5.08129e-05
5.08092e-05
5.08049e-05
5.08005e-05
5.07956e-05
5.07908e-05
5.07851e-05
5.07796e-05
5.07732e-05
5.0766e-05
5.07584e-05
5.07493e-05
5.07397e-05
5.07276e-05
5.07151e-05
5.06985e-05
5.06819e-05
5.06598e-05
5.06408e-05
5.06223e-05
5.06059e-05
5.05849e-05
5.05655e-05
5.05401e-05
5.0517e-05
5.04871e-05
5.04596e-05
5.04224e-05
5.03925e-05
5.03445e-05
5.03157e-05
5.02508e-05
5.02276e-05
5.01339e-05
5.01267e-05
4.99826e-05
5.0002e-05
4.98007e-05
4.97528e-05
4.95371e-05
4.95293e-05
4.90541e-05
4.73899e-05
0.000561359
0.000161865
0.000121141
0.00010689
0.000100384
9.67885e-05
9.45722e-05
9.3087e-05
9.20253e-05
9.12352e-05
9.06302e-05
9.01558e-05
8.97774e-05
8.94712e-05
8.92209e-05
8.90131e-05
8.88429e-05
8.86986e-05
8.85771e-05
8.84754e-05
8.83882e-05
8.83132e-05
8.82499e-05
8.81948e-05
8.81477e-05
8.81055e-05
8.80709e-05
8.80385e-05
8.80114e-05
8.79868e-05
8.79659e-05
8.79463e-05
8.79297e-05
8.79157e-05
8.79021e-05
8.78899e-05
8.78792e-05
8.78695e-05
8.78606e-05
8.78526e-05
8.78449e-05
8.7838e-05
8.78308e-05
8.78239e-05
8.78171e-05
8.78098e-05
8.78032e-05
8.77956e-05
8.77872e-05
8.77774e-05
8.77671e-05
8.77548e-05
8.7742e-05
8.7727e-05
8.77097e-05
8.76906e-05
8.76679e-05
8.76433e-05
8.76129e-05
8.75805e-05
8.75395e-05
8.7497e-05
8.74432e-05
8.73967e-05
8.73529e-05
8.73114e-05
8.72623e-05
8.72161e-05
8.71596e-05
8.71068e-05
8.70427e-05
8.69829e-05
8.69071e-05
8.68445e-05
8.67522e-05
8.66926e-05
8.65767e-05
8.65264e-05
8.63735e-05
8.63461e-05
8.61336e-05
8.61441e-05
8.58624e-05
8.58105e-05
8.55312e-05
8.56482e-05
8.53013e-05
8.19581e-05
0.000945716
0.000270272
0.000190693
0.000163585
0.000151984
0.000145974
0.000142462
0.000140217
0.00013867
0.000137551
0.000136714
0.000136069
0.000135563
0.000135158
0.000134831
0.000134562
0.000134344
0.00013416
0.000134006
0.000133879
0.00013377
0.000133677
0.000133599
0.000133531
0.000133474
0.000133422
0.000133381
0.000133342
0.000133309
0.00013328
0.000133255
0.000133231
0.000133212
0.000133195
0.000133179
0.000133165
0.000133152
0.00013314
0.00013313
0.00013312
0.000133111
0.000133102
0.000133093
0.000133083
0.000133074
0.000133063
0.000133053
0.000133041
0.000133028
0.000133012
0.000132994
0.000132973
0.00013295
0.000132923
0.000132891
0.000132856
0.000132814
0.000132769
0.000132713
0.000132652
0.000132577
0.000132499
0.000132401
0.000132317
0.000132239
0.000132163
0.000132076
0.000131994
0.000131896
0.000131804
0.000131696
0.000131595
0.000131471
0.000131367
0.000131223
0.000131123
0.000130954
0.000130864
0.000130663
0.00013059
0.000130343
0.000130303
0.000129991
0.000129924
0.000129666
0.000129773
0.000130197
0.000124112
0.0014549
0.000427892
0.000286823
0.000237206
0.000216533
0.00020632
0.00020063
0.000197157
0.000194866
0.000193267
0.000192107
0.000191237
0.000190569
0.000190045
0.000189629
0.000189291
0.000189023
0.000188799
0.000188613
0.000188462
0.000188334
0.000188225
0.000188135
0.000188058
0.000187993
0.000187935
0.00018789
0.000187846
0.00018781
0.000187778
0.000187752
0.000187726
0.000187705
0.000187688
0.000187671
0.000187655
0.000187642
0.00018763
0.000187618
0.000187608
0.000187597
0.000187588
0.000187577
0.000187566
0.000187554
0.000187541
0.000187526
0.00018751
0.000187492
0.000187469
0.000187443
0.000187411
0.000187377
0.000187337
0.000187289
0.000187236
0.000187173
0.000187103
0.000187018
0.000186927
0.000186814
0.000186696
0.000186549
0.000186424
0.000186309
0.000186197
0.000186068
0.000185948
0.000185807
0.000185675
0.000185522
0.000185377
0.000185208
0.000185061
0.000184873
0.000184728
0.000184526
0.000184381
0.000184171
0.000184018
0.000183804
0.000183661
0.000183439
0.000183283
0.000183266
0.00018307
0.000185173
0.000175352
0.00210653
0.000650407
0.000421853
0.00033533
0.000298955
0.000281396
0.00027193
0.000266372
0.000262853
0.000260491
0.000258837
0.000257636
0.000256742
0.000256059
0.00025553
0.00025511
0.000254785
0.000254518
0.000254302
0.000254129
0.000253986
0.000253866
0.00025377
0.000253688
0.000253621
0.00025356
0.000253516
0.000253472
0.000253438
0.000253406
0.000253382
0.000253357
0.000253339
0.000253325
0.000253309
0.000253295
0.000253283
0.000253272
0.000253263
0.000253253
0.000253244
0.000253235
0.000253224
0.000253211
0.000253198
0.000253184
0.000253167
0.000253146
0.000253124
0.000253094
0.000253061
0.00025302
0.000252976
0.000252922
0.000252859
0.000252789
0.000252705
0.000252613
0.000252501
0.00025238
0.000252231
0.000252075
0.000251883
0.00025172
0.000251572
0.000251427
0.000251261
0.000251106
0.000250929
0.000250762
0.000250573
0.000250392
0.000250191
0.000250005
0.000249797
0.000249607
0.00024941
0.000249199
0.000249031
0.000248795
0.00024867
0.000248422
0.000248416
0.000248082
0.000248511
0.000247719
0.000252172
0.000239177
0.00292281
0.000953808
0.000611682
0.000468935
0.000406587
0.000376439
0.000360416
0.000351235
0.000345605
0.000341953
0.000339482
0.00033775
0.000336502
0.000335582
0.000334892
0.000334359
0.000333963
0.000333645
0.000333397
0.000333206
0.000333052
0.000332926
0.000332832
0.000332752
0.000332691
0.000332636
0.000332601
0.000332563
0.000332538
0.000332514
0.000332498
0.00033248
0.000332468
0.000332463
0.000332453
0.000332445
0.000332438
0.000332433
0.000332428
0.000332423
0.000332417
0.000332412
0.000332403
0.000332393
0.000332381
0.000332367
0.00033235
0.000332327
0.000332303
0.000332268
0.000332232
0.000332183
0.000332132
0.000332069
0.000331994
0.000331911
0.000331811
0.000331702
0.000331569
0.000331426
0.000331249
0.000331066
0.000330839
0.000330649
0.00033048
0.000330312
0.000330122
0.000329945
0.000329745
0.000329559
0.000329352
0.000329148
0.000328942
0.00032873
0.000328532
0.000328317
0.000328158
0.00032792
0.000327817
0.000327546
0.000327553
0.000327229
0.000327511
0.000326937
0.000328131
0.000326529
0.000333454
0.000318571
0.00392839
0.00135395
0.000874857
0.000652846
0.000549935
0.000498989
0.000471791
0.000456327
0.00044701
0.000441106
0.000437217
0.00043457
0.000432722
0.000431404
0.000430449
0.000429737
0.00042923
0.000428839
0.000428547
0.000428335
0.000428172
0.000428047
0.000427961
0.000427894
0.000427849
0.000427809
0.000427794
0.000427773
0.000427767
0.000427759
0.000427761
0.000427757
0.000427761
0.000427772
0.000427775
0.000427779
0.000427784
0.00042779
0.000427795
0.0004278
0.000427803
0.000427806
0.000427804
0.000427799
0.000427792
0.000427783
0.000427769
0.00042775
0.000427728
0.000427692
0.000427656
0.000427604
0.000427553
0.000427486
0.000427406
0.00042732
0.000427214
0.0004271
0.000426957
0.000426806
0.000426618
0.000426428
0.000426186
0.00042599
0.000425816
0.000425647
0.000425451
0.000425278
0.000425076
0.000424902
0.000424696
0.000424516
0.000424315
0.000424136
0.000423955
0.000423784
0.000423655
0.00042348
0.000423441
0.000423215
0.000423388
0.000423016
0.000423718
0.000422844
0.000425071
0.000422694
0.00043194
0.000416035
0.00514852
0.00186688
0.00123113
0.000905641
0.000743455
0.000659815
0.000614216
0.000588082
0.000572376
0.00056252
0.000556119
0.00055184
0.000548916
0.000546881
0.000545446
0.00054441
0.000543699
0.000543173
0.000542797
0.000542542
0.000542362
0.000542233
0.000542161
0.000542112
0.000542093
0.000542078
0.000542096
0.000542103
0.000542128
0.000542149
0.00054218
0.000542202
0.000542231
0.000542269
0.000542295
0.00054232
0.000542346
0.000542371
0.000542394
0.000542416
0.000542434
0.000542452
0.000542463
0.00054247
0.000542474
0.000542476
0.000542473
0.000542461
0.000542449
0.000542418
0.000542391
0.000542343
0.000542299
0.000542239
0.000542167
0.000542091
0.000541992
0.000541893
0.000541756
0.000541628
0.000541444
0.000541287
0.000541049
0.000540898
0.000540725
0.000540604
0.00054041
0.0005403
0.0005401
0.000540003
0.000539806
0.000539717
0.000539536
0.00053946
0.000539318
0.000539255
0.000539199
0.000539127
0.000539232
0.00053908
0.000539521
0.000539116
0.000540377
0.000539198
0.000542657
0.000539723
0.000551354
0.000534695
0.00660696
0.00250938
0.00169995
0.00124862
0.00100582
0.000873793
0.000799298
0.000755681
0.000729179
0.000712489
0.000701661
0.000694459
0.000689576
0.000686214
0.000683875
0.000682216
0.000681094
0.000680288
0.00067973
0.000679365
0.000679123
0.000678963
0.00067889
0.000678853
0.000678861
0.000678876
0.000678935
0.000678979
0.000679047
0.000679108
0.000679182
0.000679241
0.000679308
0.000679386
0.000679446
0.000679504
0.000679561
0.000679616
0.000679667
0.000679715
0.000679758
0.0006798
0.000679831
0.000679858
0.000679881
0.000679902
0.000679916
0.000679921
0.000679927
0.000679911
0.000679903
0.00067987
0.000679847
0.000679806
0.000679758
0.00067971
0.00067964
0.00067958
0.000679476
0.000679402
0.000679256
0.000679175
0.000678981
0.000678921
0.00067878
0.000678749
0.000678593
0.000678589
0.000678434
0.000678455
0.000678318
0.000678363
0.000678262
0.000678332
0.000678297
0.000678385
0.000678477
0.000678548
0.000678879
0.000678837
0.000679653
0.000679247
0.000681211
0.000679783
0.00068466
0.000681362
0.000695818
0.000677494
0.00832306
0.00329925
0.00229927
0.00170389
0.0013592
0.00116029
0.00104298
0.000972072
0.000928027
0.00089988
0.000881436
0.000869089
0.000860681
0.000854878
0.000850835
0.000847973
0.00084602
0.000844626
0.000843663
0.000843026
0.000842604
0.00084233
0.000842197
0.000842132
0.000842142
0.00084217
0.000842264
0.000842343
0.000842455
0.000842562
0.000842686
0.000842791
0.000842906
0.000843034
0.000843139
0.000843239
0.000843338
0.000843433
0.000843523
0.000843608
0.000843685
0.00084376
0.000843821
0.000843876
0.000843927
0.000843977
0.000844018
0.00084405
0.000844084
0.000844094
0.000844118
0.000844114
0.000844127
0.000844124
0.000844122
0.000844123
0.000844109
0.000844117
0.00084408
0.000844098
0.000844034
0.000844074
0.000843982
0.000844059
0.000843998
0.000844096
0.00084403
0.000844172
0.000844122
0.000844308
0.000844292
0.00084452
0.000844562
0.00084483
0.000844971
0.000845266
0.000845579
0.000845855
0.000846486
0.000846615
0.000847908
0.000847548
0.000850376
0.000848792
0.000855349
0.00085176
0.00086955
0.000848879
0.0103076
0.00425521
0.00304473
0.00229197
0.00182725
0.00154244
0.00136588
0.00125481
0.00118368
0.00113716
0.0011061
0.00108499
0.00107043
0.00106025
0.00105308
0.00104794
0.00104437
0.00104178
0.00103996
0.0010387
0.00103784
0.00103725
0.00103691
0.0010367
0.00103662
0.0010366
0.00103668
0.00103676
0.00103689
0.00103703
0.00103719
0.00103733
0.00103749
0.00103767
0.00103782
0.00103797
0.00103812
0.00103826
0.00103839
0.00103852
0.00103864
0.00103876
0.00103885
0.00103895
0.00103903
0.00103912
0.0010392
0.00103927
0.00103934
0.00103939
0.00103946
0.0010395
0.00103957
0.00103962
0.00103969
0.00103976
0.00103983
0.00103994
0.00104001
0.00104016
0.00104023
0.00104044
0.00104052
0.00104078
0.00104085
0.00104112
0.00104121
0.00104154
0.00104166
0.00104206
0.00104223
0.00104269
0.00104294
0.00104347
0.00104385
0.00104442
0.00104503
0.00104557
0.00104659
0.00104695
0.00104884
0.00104859
0.00105247
0.00105084
0.00105947
0.00105542
0.00107699
0.00105377
0.0125548
0.00539663
0.00394904
0.00302956
0.00243213
0.00204499
0.00179231
0.00162614
0.00151573
0.00144133
0.00139041
0.00135505
0.00133018
0.00131248
0.00129976
0.00129052
0.0012839
0.00127902
0.00127548
0.00127294
0.0012711
0.00126978
0.0012689
0.00126828
0.00126791
0.00126767
0.00126761
0.00126757
0.00126764
0.00126774
0.00126789
0.00126803
0.0012682
0.00126841
0.00126858
0.00126876
0.00126894
0.00126912
0.0012693
0.00126947
0.00126962
0.00126978
0.00126991
0.00127004
0.00127017
0.0012703
0.00127042
0.00127053
0.00127064
0.00127074
0.00127087
0.00127096
0.0012711
0.00127123
0.00127139
0.00127156
0.00127175
0.00127199
0.00127221
0.00127253
0.00127278
0.00127321
0.00127352
0.00127402
0.00127429
0.00127476
0.00127506
0.00127563
0.00127598
0.00127664
0.00127706
0.00127782
0.00127835
0.00127919
0.00127988
0.00128078
0.00128176
0.00128264
0.00128414
0.00128481
0.00128742
0.0012874
0.00129252
0.00129101
0.00130206
0.0012976
0.00132296
0.00129666
0.0150331
0.00674295
0.00502111
0.00392761
0.0031911
0.00269062
0.00234765
0.00211154
0.00194822
0.00183428
0.00175396
0.00169671
0.00165547
0.00162547
0.00160346
0.00158712
0.00157512
0.00156606
0.0015593
0.00155426
0.00155048
0.00154763
0.00154557
0.00154401
0.00154292
0.0015421
0.0015416
0.00154121
0.00154101
0.0015409
0.00154089
0.00154091
0.00154099
0.00154114
0.00154127
0.00154142
0.00154159
0.00154176
0.00154193
0.00154211
0.00154228
0.00154245
0.00154259
0.00154275
0.0015429
0.00154306
0.00154321
0.00154335
0.00154351
0.00154365
0.00154383
0.00154399
0.00154421
0.00154442
0.00154469
0.00154497
0.00154531
0.0015457
0.00154611
0.00154662
0.00154712
0.00154779
0.0015484
0.00154918
0.00154969
0.00155041
0.00155098
0.00155182
0.00155247
0.00155342
0.00155417
0.00155526
0.00155613
0.00155734
0.00155841
0.00155971
0.00156114
0.00156243
0.00156451
0.00156558
0.00156906
0.00156943
0.001576
0.00157487
0.00158843
0.0015842
0.00161207
0.00158287
0.0176736
0.00831304
0.00626476
0.00498978
0.00411343
0.00349562
0.00305383
0.0027362
0.00250729
0.00234156
0.00222083
0.0021322
0.00206664
0.00201776
0.00198103
0.00195318
0.00193218
0.00191595
0.00190355
0.001894
0.00188661
0.00188085
0.00187647
0.00187301
0.00187039
0.00186831
0.0018668
0.00186556
0.00186468
0.00186401
0.00186353
0.00186318
0.00186294
0.00186282
0.00186274
0.00186271
0.00186273
0.00186278
0.00186285
0.00186294
0.00186304
0.00186316
0.00186327
0.00186339
0.00186352
0.00186364
0.00186378
0.00186391
0.00186407
0.00186423
0.00186444
0.00186465
0.00186494
0.00186522
0.0018656
0.001866
0.0018665
0.00186704
0.00186766
0.00186838
0.00186915
0.0018701
0.00187106
0.00187214
0.00187293
0.00187393
0.00187481
0.00187595
0.00187694
0.00187824
0.00187935
0.00188082
0.00188209
0.00188373
0.00188524
0.00188702
0.00188895
0.00189076
0.00189352
0.00189514
0.00189963
0.00190065
0.00190887
0.00190846
0.0019247
0.00192051
0.00195077
0.00191807
0.0203596
0.010121
0.00767656
0.00621102
0.00519812
0.00446583
0.00392411
0.00351954
0.00321646
0.00298878
0.00281713
0.00268712
0.00258815
0.00251235
0.002454
0.00240861
0.00237363
0.00234592
0.00232428
0.00230715
0.00229356
0.0022827
0.00227412
0.00226715
0.00226163
0.00225712
0.00225358
0.00225062
0.00224828
0.00224638
0.00224485
0.00224363
0.00224261
0.00224183
0.00224119
0.00224067
0.00224026
0.00223994
0.00223969
0.00223951
0.00223935
0.00223927
0.00223918
0.00223914
0.00223912
0.00223914
0.00223913
0.00223918
0.0022392
0.00223933
0.00223948
0.00223971
0.00224001
0.00224033
0.00224078
0.00224126
0.0022419
0.00224259
0.00224341
0.00224432
0.00224536
0.00224657
0.0022479
0.00224929
0.00225038
0.00225167
0.0022529
0.00225436
0.00225573
0.00225739
0.00225892
0.0022608
0.00226254
0.00226463
0.00226667
0.00226898
0.00227153
0.00227399
0.00227753
0.00227996
0.00228557
0.00228764
0.00229764
0.00229839
0.00231732
0.00231279
0.00234574
0.00230877
0.0229406
0.0121373
0.00924201
0.00757629
0.00643231
0.00559372
0.00495824
0.00446901
0.00409001
0.00379538
0.00356571
0.00338615
0.00324538
0.00313451
0.00304698
0.00297718
0.00292197
0.0028773
0.00284172
0.0028128
0.00278934
0.00277019
0.00275464
0.00274172
0.00273118
0.00272238
0.00271518
0.00270908
0.002704
0.00269976
0.00269617
0.00269322
0.00269061
0.00268847
0.00268665
0.00268508
0.00268373
0.00268259
0.00268159
0.00268077
0.00268
0.00267939
0.00267882
0.00267835
0.00267793
0.00267763
0.00267731
0.00267705
0.00267679
0.00267674
0.00267667
0.00267678
0.00267694
0.00267726
0.00267766
0.00267814
0.00267886
0.0026796
0.00268056
0.00268161
0.00268288
0.0026843
0.00268596
0.00268765
0.00268904
0.00269061
0.0026922
0.00269398
0.00269576
0.00269779
0.00269979
0.00270209
0.00270437
0.00270697
0.00270964
0.00271256
0.00271587
0.00271912
0.00272363
0.00272717
0.00273409
0.00273767
0.00274955
0.00275182
0.00277329
0.00276821
0.00280407
0.00276207
0.025225
0.0142856
0.0109307
0.00905916
0.00779061
0.00685702
0.00613944
0.00557503
0.00512611
0.00476684
0.00447826
0.0042458
0.00405821
0.00390632
0.00378325
0.00368269
0.00360103
0.00353367
0.0034786
0.00343295
0.0033952
0.00336374
0.00333758
0.00331541
0.00329696
0.00328127
0.00326804
0.00325671
0.00324705
0.00323875
0.0032316
0.0032255
0.00322002
0.00321542
0.0032114
0.00320785
0.00320473
0.00320199
0.00319955
0.00319742
0.00319542
0.00319372
0.00319216
0.00319082
0.00318956
0.00318855
0.00318756
0.00318666
0.00318589
0.00318532
0.00318488
0.00318466
0.00318442
0.00318453
0.00318469
0.00318499
0.00318559
0.00318623
0.00318718
0.00318823
0.0031896
0.00319115
0.00319304
0.00319497
0.00319662
0.00319845
0.00320038
0.00320248
0.00320467
0.00320709
0.00320959
0.00321237
0.00321526
0.00321844
0.00322187
0.00322553
0.00322981
0.00323405
0.00323981
0.00324475
0.00325331
0.00325875
0.00327266
0.00327663
0.00330044
0.00329452
0.00333478
0.00328597
0.0269828
0.0164345
0.0126903
0.0106201
0.00923493
0.00821878
0.00743364
0.00680843
0.00630215
0.00588795
0.00554702
0.00526521
0.00503176
0.00483774
0.00467651
0.00454167
0.00442932
0.00433479
0.00425558
0.00418866
0.00413218
0.00408414
0.00404347
0.00400835
0.00397862
0.00395287
0.0039307
0.00391144
0.00389473
0.00388015
0.00386739
0.00385623
0.00384627
0.00383754
0.00382982
0.00382293
0.0038168
0.0038113
0.00380636
0.00380195
0.00379774
0.00379411
0.00379079
0.00378791
0.0037851
0.00378274
0.00378052
0.00377858
0.00377695
0.00377548
0.00377415
0.00377317
0.00377231
0.00377171
0.00377127
0.00377107
0.00377121
0.00377148
0.00377215
0.00377298
0.00377423
0.00377572
0.00377767
0.00377975
0.00378159
0.00378364
0.00378586
0.00378828
0.00379088
0.00379371
0.00379676
0.00380008
0.00380368
0.00380758
0.00381194
0.00381657
0.00382205
0.00382763
0.00383496
0.00384171
0.00385219
0.00385983
0.00387582
0.00388148
0.00390747
0.00390009
0.00394642
0.0038895
0.0279717
0.0184007
0.0144414
0.0122033
0.0107142
0.00962841
0.00879083
0.00812115
0.00757371
0.00711955
0.0067392
0.00641849
0.00614708
0.00591641
0.00572032
0.00555271
0.00540978
0.0052871
0.00518197
0.00509142
0.00501346
0.00494588
0.0048876
0.00483657
0.00479236
0.0047536
0.00471966
0.00468975
0.00466339
0.00464008
0.00461939
0.00460098
0.00458448
0.00456974
0.00455653
0.00454461
0.00453389
0.00452416
0.00451536
0.00450741
0.00450004
0.0044934
0.00448729
0.00448177
0.00447665
0.00447206
0.00446782
0.00446401
0.00446054
0.0044575
0.00445467
0.00445236
0.00445025
0.0044485
0.004447
0.00444582
0.00444509
0.00444459
0.0044446
0.00444487
0.00444569
0.00444686
0.00444863
0.00445071
0.00445264
0.00445485
0.00445733
0.00446005
0.00446307
0.00446637
0.00447004
0.00447404
0.00447851
0.00448335
0.00448887
0.00449481
0.00450182
0.00450917
0.00451839
0.00452741
0.00454001
0.00455012
0.00456803
0.00457537
0.00460323
0.00459425
0.00464757
0.00458125
0.0279212
0.0199805
0.0160724
0.0137319
0.0121622
0.0110224
0.0101474
0.00944919
0.00887734
0.00840009
0.00799656
0.007652
0.00735601
0.0071002
0.00687874
0.00668597
0.00651826
0.00637167
0.00624356
0.00613113
0.00603257
0.00594559
0.00586917
0.00580137
0.00574144
0.00568817
0.0056408
0.00559849
0.00556066
0.00552674
0.00549625
0.0054688
0.00544396
0.00542148
0.00540111
0.00538253
0.00536568
0.00535019
0.00533616
0.00532328
0.00531138
0.00530049
0.00529044
0.00528121
0.0052727
0.00526486
0.00525767
0.00525103
0.00524498
0.00523958
0.00523455
0.00523009
0.005226
0.00522241
0.00521934
0.00521664
0.00521453
0.0052128
0.00521169
0.00521102
0.00521103
0.00521157
0.00521288
0.00521482
0.00521674
0.00521907
0.00522179
0.00522485
0.00522834
0.00523225
0.00523667
0.00524158
0.00524714
0.00525327
0.00526028
0.00526797
0.00527688
0.00528648
0.00529792
0.00530956
0.00532435
0.00533702
0.00535652
0.00536559
0.00539473
0.00538461
0.00544515
0.0053682
0.0265559
0.0210177
0.0174337
0.0150978
0.0134919
0.0123219
0.0114268
0.0107159
0.0101353
0.00965085
0.00924032
0.00888796
0.00858295
0.00831672
0.00808345
0.00787777
0.00769613
0.007535
0.00739192
0.00726435
0.00715069
0.00704884
0.0069578
0.00687593
0.00680238
0.00673605
0.00667621
0.00662206
0.00657297
0.0065284
0.00648784
0.00645089
0.00641713
0.00638622
0.00635792
0.00633187
0.006308
0.00628593
0.00626562
0.00624689
0.00622954
0.00621348
0.00619861
0.00618481
0.00617204
0.00616017
0.0061492
0.00613901
0.00612962
0.00612098
0.00611308
0.00610582
0.00609926
0.00609327
0.00608802
0.00608332
0.00607935
0.00607597
0.00607336
0.00607139
0.00607029
0.00606995
0.00607062
0.00607235
0.00607424
0.00607674
0.00607977
0.0060833
0.00608744
0.00609218
0.00609763
0.00610379
0.0061108
0.00611867
0.00612759
0.00613749
0.00614872
0.00616092
0.00617483
0.00618918
0.00620608
0.00622114
0.00624184
0.00625252
0.00628246
0.00627154
0.00633926
0.0062509
0.0237065
0.0214515
0.0183193
0.0161415
0.0145812
0.0134245
0.0125361
0.0118316
0.0112581
0.0107812
0.010378
0.0100323
0.00973272
0.00947049
0.00923953
0.00903459
0.00885203
0.00868854
0.00854179
0.00840945
0.00829005
0.00818175
0.00808359
0.00799423
0.00791287
0.00783855
0.00777061
0.00770838
0.00765128
0.00759881
0.0075505
0.00750599
0.00746489
0.00742689
0.00739174
0.00735911
0.00732889
0.00730077
0.00727462
0.00725029
0.00722764
0.0072065
0.00718681
0.00716841
0.00715128
0.00713526
0.00712036
0.00710645
0.00709354
0.00708153
0.00707047
0.00706024
0.00705092
0.00704238
0.00703472
0.00702784
0.00702186
0.00701669
0.00701247
0.00700915
0.00700692
0.00700574
0.00700587
0.00700756
0.00700962
0.00701254
0.00701615
0.00702048
0.00702562
0.00703162
0.00703854
0.00704644
0.00705541
0.00706548
0.00707679
0.00708929
0.00710314
0.00711807
0.00713447
0.00715131
0.00717003
0.00718703
0.00720849
0.00722056
0.00725074
0.00723899
0.0073139
0.00721422
0.0201007
0.0204196
0.0184418
0.0166634
0.0152677
0.014194
0.0133558
0.0126869
0.0121416
0.0116889
0.0113074
0.0109813
0.0106997
0.0104537
0.0102373
0.0100452
0.00987367
0.00971956
0.00958057
0.00945446
0.00933984
0.0092351
0.00913928
0.00905127
0.00897033
0.00889567
0.0088267
0.00876288
0.0087037
0.00864877
0.00859769
0.00855014
0.00850582
0.00846444
0.00842582
0.00838967
0.00835587
0.00832418
0.0082945
0.00826664
0.00824052
0.00821598
0.00819298
0.00817135
0.00815109
0.00813204
0.00811424
0.00809754
0.00808197
0.00806742
0.00805394
0.00804143
0.00802996
0.00801944
0.00800995
0.00800143
0.00799397
0.00798754
0.00798228
0.00797815
0.0079754
0.007974
0.00797429
0.00797659
0.00797938
0.00798331
0.00798813
0.00799389
0.00800069
0.00800859
0.00801764
0.00802788
0.00803938
0.00805215
0.00806622
0.00808151
0.00809804
0.00811554
0.00813413
0.00815297
0.00817301
0.00819137
0.00821307
0.00822622
0.00825589
0.00824444
0.0083238
0.00821521
0.0162586
0.0176586
0.0174991
0.0163946
0.0153351
0.0144581
0.0137419
0.0131551
0.0126699
0.0122644
0.0119222
0.0116301
0.0113785
0.0111596
0.0109677
0.010798
0.0106469
0.0105115
0.0103894
0.0102786
0.0101778
0.0100855
0.0100007
0.00992254
0.00985027
0.00978323
0.0097209
0.00966283
0.00960861
0.00955789
0.00951038
0.0094658
0.00942394
0.00938455
0.0093475
0.00931258
0.00927968
0.00924862
0.00921933
0.00919166
0.00916556
0.00914089
0.00911764
0.00909566
0.00907498
0.00905546
0.00903714
0.00901992
0.00900382
0.00898876
0.0089748
0.00896187
0.00895002
0.00893922
0.00892954
0.00892096
0.0089136
0.00890742
0.00890264
0.00889922
0.00889748
0.00889742
0.00889949
0.0089038
0.00890847
0.00891453
0.00892165
0.00892991
0.0089394
0.00895017
0.00896224
0.0089756
0.00899027
0.00900618
0.00902329
0.00904146
0.00906059
0.00908036
0.00910079
0.00912115
0.00914208
0.00916134
0.00918297
0.00919699
0.00922564
0.00921546
0.0092965
0.00918334
0.0122116
0.014556
0.0150897
0.0151727
0.0145883
0.0140495
0.0135443
0.0131025
0.0127235
0.0123999
0.0121235
0.0118861
0.0116812
0.0115031
0.0113474
0.0112101
0.0110886
0.0109801
0.0108827
0.0107948
0.0107151
0.0106424
0.0105757
0.0105143
0.0104575
0.0104048
0.0103558
0.0103101
0.0102672
0.010227
0.0101892
0.0101536
0.01012
0.0100882
0.0100582
0.0100297
0.0100028
0.0099773
0.00995312
0.00993017
0.00990845
0.00988784
0.00986836
0.00984991
0.00983252
0.00981611
0.00980071
0.00978628
0.00977285
0.00976038
0.00974895
0.00973851
0.00972917
0.00972089
0.00971381
0.0097079
0.00970337
0.00970019
0.00969866
0.00969874
0.00970088
0.00970507
0.00971188
0.00972077
0.00972938
0.00973956
0.00975093
0.00976355
0.0097775
0.00979279
0.00980937
0.00982719
0.00984618
0.00986621
0.00988717
0.00990883
0.00993106
0.00995354
0.00997619
0.00999843
0.0100207
0.0100413
0.0100636
0.010079