/*--------------------------------*- C++ -*----------------------------------*\
| =========                 |                                                 |
| \\      /  F ield         | OpenFOAM: The Open Source CFD Toolbox           |
|  \\    /   O peration     | Version:  2306                                  |
|   \\  /    A nd           | Website:  www.openfoam.com                      |
|    \\/     M anipulation  |                                                 |
\*---------------------------------------------------------------------------*/
FoamFile
{
    version     2.0;
    format      ascii;
    arch        "LSB;label=32;scalar=64";
    class       volScalarField;
    location    "1900";
    object      p;
}
// * * * * * * * * * * * * * * * * * * * * * * * * * * * * * * * * * * * * * //

dimensions      [0 2 -2 0 0 0 0];

internalField   nonuniform List<scalar> 
20540
(
214.667
-12.0882
213.269
-24.4007
212.303
-32.0258
211.95
-34.8756
211.792
-36.0675
211.673
-36.8481
211.577
-37.4392
211.506
-37.8756
211.458
-38.1946
211.425
-38.4279
211.405
-38.5937
211.392
-38.701
211.381
-38.7537
211.369
-38.7527
211.351
-38.6972
211.321
-38.5849
211.275
-38.4128
211.209
-38.1779
211.121
-37.8782
211.01
-37.5129
210.878
-37.0822
210.73
-36.5886
210.582
-36.043
210.424
-35.4626
210.169
-34.8147
209.691
-33.9335
209.06
-32.6832
208.399
-31.2994
207.683
-30.0771
206.897
-28.9911
206.277
-28.2062
205.977
-27.8644
205.972
-27.9018
206.257
-28.3197
206.847
-29.1707
207.59
-30.2775
208.277
-31.4912
208.919
-32.8668
209.548
-34.1408
210.049
-35.0617
210.332
-35.7383
210.51
-36.3357
210.674
-36.8933
210.838
-37.3979
210.989
-37.8403
211.119
-38.2188
211.226
-38.5339
211.309
-38.7865
211.369
-38.9793
211.409
-39.1155
211.435
-39.1985
211.451
-39.2309
211.463
-39.2145
211.475
-39.1495
211.491
-39.0344
211.515
-38.8647
211.552
-38.631
211.606
-38.3152
211.683
-37.8855
211.786
-37.3043
211.915
-36.5326
212.083
-35.3436
212.45
-32.5279
213.437
-25.1332
214.86
-13.3385
-92.2438
-56.8384
-62.9767
-65.7124
-67.5804
-70.265
-73.1607
-75.999
-78.8229
-81.6152
-84.3469
-87.0075
-89.5934
-92.1011
-94.5293
-96.878
-99.1479
-101.34
-103.457
-105.5
-107.471
-109.373
-111.207
-112.976
-114.682
-116.327
-117.913
-119.441
-120.915
-122.336
-123.706
-125.027
-126.3
-127.528
-128.712
-129.854
-130.956
-132.021
-133.049
-134.043
-135.006
-135.939
-136.847
-137.73
-138.594
-139.441
-140.275
-141.1
-141.922
-142.745
-143.575
-144.418
-145.28
-146.168
-147.09
-148.054
-149.068
-150.142
-151.285
-152.511
-153.829
-155.258
-156.805
-158.215
-159.384
-160.586
-161.831
-163.12
-164.452
-165.831
-167.256
-168.732
-170.256
-171.837
-173.467
-175.166
-176.912
-178.757
-180.645
-182.698
-184.771
-187.155
-189.466
-192.441
-195.087
-199.264
-202.87
-211.287
-92.2481
-56.8385
-62.9765
-65.7123
-67.5803
-70.265
-73.1606
-75.999
-78.8228
-81.6152
-84.3469
-87.0075
-89.5934
-92.1011
-94.5293
-96.878
-99.1479
-101.34
-103.457
-105.5
-107.471
-109.373
-111.207
-112.976
-114.682
-116.327
-117.913
-119.441
-120.915
-122.336
-123.706
-125.027
-126.3
-127.528
-128.712
-129.854
-130.956
-132.021
-133.049
-134.043
-135.006
-135.939
-136.847
-137.73
-138.594
-139.441
-140.275
-141.1
-141.922
-142.745
-143.575
-144.418
-145.28
-146.168
-147.09
-148.054
-149.068
-150.142
-151.285
-152.511
-153.829
-155.258
-156.805
-158.215
-159.384
-160.586
-161.831
-163.12
-164.452
-165.831
-167.256
-168.732
-170.256
-171.838
-173.467
-175.166
-176.913
-178.757
-180.646
-182.698
-184.771
-187.155
-189.467
-192.442
-195.088
-199.266
-202.865
-211.236
-92.2631
-56.8388
-62.9762
-65.712
-67.5801
-70.2648
-73.1605
-75.9989
-78.8228
-81.6151
-84.3469
-87.0074
-89.5934
-92.101
-94.5293
-96.8779
-99.1479
-101.34
-103.457
-105.5
-107.471
-109.373
-111.207
-112.976
-114.682
-116.327
-117.913
-119.441
-120.915
-122.336
-123.706
-125.027
-126.3
-127.528
-128.712
-129.854
-130.956
-132.021
-133.049
-134.043
-135.006
-135.939
-136.847
-137.73
-138.594
-139.441
-140.275
-141.101
-141.922
-142.745
-143.575
-144.418
-145.28
-146.168
-147.09
-148.054
-149.068
-150.142
-151.285
-152.511
-153.829
-155.258
-156.805
-158.215
-159.384
-160.586
-161.831
-163.12
-164.452
-165.831
-167.256
-168.733
-170.257
-171.838
-173.468
-175.167
-176.914
-178.758
-180.647
-182.699
-184.772
-187.157
-189.468
-192.445
-195.09
-199.273
-202.853
-211.102
-92.2892
-56.8394
-62.9756
-65.7114
-67.5796
-70.2645
-73.1602
-75.9986
-78.8226
-81.615
-84.3468
-87.0073
-89.5933
-92.101
-94.5292
-96.8779
-99.1478
-101.34
-103.457
-105.5
-107.471
-109.373
-111.207
-112.976
-114.682
-116.327
-117.913
-119.441
-120.915
-122.336
-123.706
-125.027
-126.3
-127.528
-128.712
-129.854
-130.956
-132.021
-133.049
-134.043
-135.006
-135.939
-136.847
-137.73
-138.594
-139.441
-140.275
-141.101
-141.922
-142.745
-143.575
-144.418
-145.28
-146.168
-147.09
-148.054
-149.068
-150.142
-151.285
-152.511
-153.83
-155.259
-156.806
-158.216
-159.385
-160.587
-161.832
-163.121
-164.453
-165.832
-167.257
-168.733
-170.258
-171.839
-173.469
-175.168
-176.915
-178.76
-180.649
-182.702
-184.775
-187.16
-189.472
-192.449
-195.092
-199.283
-202.822
-210.942
-92.3328
-56.841
-62.975
-65.7106
-67.579
-70.2639
-73.1598
-75.9983
-78.8223
-81.6148
-84.3466
-87.0072
-89.5932
-92.1008
-94.5291
-96.8778
-99.1477
-101.34
-103.457
-105.5
-107.471
-109.373
-111.207
-112.976
-114.682
-116.327
-117.912
-119.441
-120.915
-122.336
-123.706
-125.027
-126.3
-127.528
-128.712
-129.854
-130.956
-132.021
-133.049
-134.043
-135.006
-135.939
-136.847
-137.73
-138.594
-139.441
-140.275
-141.101
-141.922
-142.745
-143.575
-144.418
-145.28
-146.168
-147.09
-148.054
-149.068
-150.142
-151.285
-152.512
-153.83
-155.259
-156.806
-158.216
-159.386
-160.588
-161.832
-163.122
-164.454
-165.833
-167.258
-168.735
-170.259
-171.841
-173.471
-175.171
-176.917
-178.763
-180.651
-182.705
-184.778
-187.165
-189.476
-192.455
-195.095
-199.295
-202.768
-210.735
-92.4012
-56.8449
-62.9751
-65.7099
-67.5781
-70.2633
-73.1593
-75.9978
-78.8219
-81.6144
-84.3463
-87.0069
-89.593
-92.1007
-94.5289
-96.8777
-99.1476
-101.34
-103.457
-105.5
-107.471
-109.373
-111.207
-112.976
-114.682
-116.327
-117.912
-119.441
-120.915
-122.336
-123.706
-125.027
-126.3
-127.528
-128.712
-129.854
-130.956
-132.021
-133.049
-134.043
-135.006
-135.939
-136.847
-137.73
-138.594
-139.441
-140.275
-141.101
-141.922
-142.745
-143.575
-144.418
-145.28
-146.169
-147.091
-148.054
-149.068
-150.142
-151.286
-152.512
-153.831
-155.26
-156.807
-158.217
-159.387
-160.589
-161.834
-163.123
-164.455
-165.835
-167.26
-168.737
-170.262
-171.844
-173.474
-175.173
-176.92
-178.766
-180.655
-182.709
-184.782
-187.17
-189.48
-192.461
-195.096
-199.303
-202.688
-210.446
-92.4996
-56.8524
-62.9763
-65.7094
-67.5773
-70.2625
-73.1586
-75.9973
-78.8214
-81.614
-84.346
-87.0066
-89.5927
-92.1004
-94.5288
-96.8775
-99.1475
-101.34
-103.457
-105.5
-107.471
-109.373
-111.207
-112.976
-114.682
-116.327
-117.912
-119.441
-120.915
-122.336
-123.706
-125.027
-126.3
-127.528
-128.712
-129.854
-130.956
-132.021
-133.049
-134.043
-135.006
-135.939
-136.847
-137.73
-138.594
-139.441
-140.275
-141.101
-141.922
-142.745
-143.575
-144.418
-145.28
-146.169
-147.091
-148.055
-149.069
-150.143
-151.286
-152.513
-153.831
-155.26
-156.808
-158.218
-159.388
-160.59
-161.835
-163.125
-164.457
-165.837
-167.262
-168.739
-170.264
-171.846
-173.477
-175.177
-176.924
-178.77
-180.659
-182.714
-184.787
-187.175
-189.484
-192.466
-195.092
-199.301
-202.58
-210.057
-92.6325
-56.8649
-62.9795
-65.7095
-67.5766
-70.2616
-73.1578
-75.9966
-78.8208
-81.6135
-84.3455
-87.0063
-89.5924
-92.1002
-94.5285
-96.8773
-99.1473
-101.34
-103.457
-105.5
-107.471
-109.373
-111.207
-112.976
-114.682
-116.327
-117.912
-119.441
-120.915
-122.336
-123.706
-125.027
-126.3
-127.528
-128.712
-129.854
-130.956
-132.021
-133.049
-134.043
-135.006
-135.939
-136.847
-137.73
-138.594
-139.441
-140.275
-141.101
-141.922
-142.746
-143.575
-144.418
-145.28
-146.169
-147.091
-148.055
-149.069
-150.143
-151.287
-152.513
-153.832
-155.261
-156.809
-158.219
-159.389
-160.591
-161.837
-163.126
-164.459
-165.839
-167.265
-168.742
-170.267
-171.85
-173.48
-175.18
-176.928
-178.774
-180.663
-182.719
-184.791
-187.18
-189.487
-192.468
-195.084
-199.283
-202.439
-209.561
-92.8049
-56.884
-62.9855
-65.7108
-67.5762
-70.2609
-73.157
-75.9958
-78.8201
-81.6129
-84.345
-87.0058
-89.592
-92.0998
-94.5282
-96.877
-99.147
-101.34
-103.457
-105.5
-107.471
-109.373
-111.207
-112.976
-114.682
-116.326
-117.912
-119.441
-120.915
-122.336
-123.706
-125.027
-126.3
-127.528
-128.712
-129.854
-130.956
-132.02
-133.049
-134.043
-135.006
-135.939
-136.847
-137.73
-138.594
-139.441
-140.275
-141.101
-141.922
-142.746
-143.576
-144.418
-145.281
-146.169
-147.091
-148.055
-149.069
-150.144
-151.287
-152.514
-153.833
-155.262
-156.81
-158.221
-159.391
-160.593
-161.839
-163.129
-164.462
-165.842
-167.267
-168.745
-170.27
-171.853
-173.484
-175.184
-176.932
-178.779
-180.668
-182.724
-184.795
-187.184
-189.488
-192.466
-195.067
-199.241
-202.255
-208.954
-93.0222
-56.9118
-62.9955
-65.7139
-67.5767
-70.2604
-73.1562
-75.9949
-78.8193
-81.6122
-84.3443
-87.0052
-89.5914
-92.0993
-94.5278
-96.8766
-99.1467
-101.339
-103.456
-105.499
-107.471
-109.372
-111.207
-112.976
-114.682
-116.326
-117.912
-119.441
-120.915
-122.336
-123.706
-125.027
-126.3
-127.528
-128.712
-129.854
-130.956
-132.02
-133.049
-134.043
-135.006
-135.939
-136.847
-137.73
-138.594
-139.441
-140.275
-141.101
-141.923
-142.746
-143.576
-144.419
-145.281
-146.169
-147.092
-148.056
-149.07
-150.144
-151.288
-152.515
-153.834
-155.264
-156.811
-158.222
-159.392
-160.595
-161.841
-163.131
-164.464
-165.844
-167.27
-168.748
-170.274
-171.857
-173.488
-175.188
-176.936
-178.783
-180.672
-182.727
-184.798
-187.185
-189.485
-192.454
-195.037
-199.163
-202.019
-208.231
-93.2901
-56.9499
-63.011
-65.7199
-67.5784
-70.2606
-73.1557
-75.9942
-78.8185
-81.6114
-84.3436
-87.0045
-89.5908
-92.0988
-94.5273
-96.8762
-99.1463
-101.339
-103.456
-105.499
-107.47
-109.372
-111.207
-112.975
-114.681
-116.326
-117.912
-119.441
-120.915
-122.336
-123.706
-125.027
-126.3
-127.528
-128.712
-129.854
-130.956
-132.02
-133.049
-134.043
-135.006
-135.939
-136.847
-137.73
-138.594
-139.441
-140.275
-141.101
-141.923
-142.746
-143.576
-144.419
-145.281
-146.17
-147.092
-148.056
-149.07
-150.145
-151.289
-152.516
-153.835
-155.265
-156.813
-158.224
-159.394
-160.597
-161.843
-163.133
-164.467
-165.847
-167.273
-168.751
-170.277
-171.86
-173.491
-175.192
-176.939
-178.786
-180.674
-182.729
-184.797
-187.181
-189.475
-192.429
-194.989
-199.036
-201.721
-207.389
-93.613
-57.0006
-63.0331
-65.7298
-67.5824
-70.2619
-73.1558
-75.9937
-78.8178
-81.6106
-84.3428
-87.0038
-89.5901
-92.0981
-94.5267
-96.8756
-99.1458
-101.338
-103.456
-105.499
-107.47
-109.372
-111.206
-112.975
-114.681
-116.326
-117.912
-119.441
-120.915
-122.336
-123.706
-125.026
-126.3
-127.528
-128.712
-129.854
-130.956
-132.02
-133.048
-134.043
-135.005
-135.939
-136.846
-137.73
-138.594
-139.441
-140.275
-141.101
-141.923
-142.746
-143.576
-144.419
-145.281
-146.17
-147.092
-148.057
-149.071
-150.145
-151.29
-152.517
-153.836
-155.266
-156.814
-158.225
-159.396
-160.599
-161.845
-163.135
-164.469
-165.849
-167.276
-168.754
-170.279
-171.862
-173.493
-175.194
-176.94
-178.786
-180.673
-182.726
-184.792
-187.169
-189.455
-192.384
-194.914
-198.845
-201.351
-206.432
-93.9938
-57.0662
-63.0632
-65.7449
-67.5894
-70.2651
-73.157
-75.9938
-78.8174
-81.6099
-84.342
-87.003
-89.5893
-92.0974
-94.526
-96.875
-99.1452
-101.338
-103.455
-105.498
-107.47
-109.372
-111.206
-112.975
-114.681
-116.326
-117.912
-119.44
-120.915
-122.336
-123.706
-125.026
-126.3
-127.527
-128.711
-129.854
-130.956
-132.02
-133.048
-134.043
-135.005
-135.939
-136.846
-137.73
-138.594
-139.441
-140.275
-141.101
-141.923
-142.746
-143.576
-144.419
-145.281
-146.17
-147.092
-148.057
-149.071
-150.146
-151.29
-152.517
-153.837
-155.267
-156.815
-158.226
-159.397
-160.6
-161.846
-163.137
-164.47
-165.851
-167.277
-168.755
-170.28
-171.863
-173.493
-175.193
-176.938
-178.783
-180.668
-182.717
-184.778
-187.143
-189.418
-192.308
-194.798
-198.57
-200.895
-205.371
-94.4317
-57.1497
-63.1023
-65.7665
-67.6007
-70.2712
-73.16
-75.9951
-78.8177
-81.6097
-84.3415
-87.0023
-89.5886
-92.0967
-94.5253
-96.8743
-99.1446
-101.337
-103.455
-105.498
-107.469
-109.371
-111.205
-112.974
-114.68
-116.325
-117.911
-119.44
-120.914
-122.335
-123.705
-125.026
-126.299
-127.527
-128.711
-129.854
-130.956
-132.02
-133.048
-134.042
-135.005
-135.939
-136.846
-137.73
-138.594
-139.441
-140.275
-141.101
-141.923
-142.746
-143.576
-144.419
-145.281
-146.17
-147.093
-148.057
-149.071
-150.146
-151.29
-152.518
-153.837
-155.267
-156.816
-158.227
-159.397
-160.6
-161.846
-163.137
-164.47
-165.85
-167.276
-168.753
-170.278
-171.86
-173.489
-175.187
-176.931
-178.772
-180.654
-182.696
-184.75
-187.097
-189.356
-192.187
-194.627
-198.193
-200.339
-204.223
-94.9207
-57.2545
-63.1513
-65.7956
-67.6173
-70.2809
-73.1657
-75.9982
-78.8193
-81.6103
-84.3415
-87.002
-89.5881
-92.0961
-94.5246
-96.8736
-99.1439
-101.337
-103.454
-105.497
-107.469
-109.371
-111.205
-112.974
-114.68
-116.325
-117.911
-119.44
-120.914
-122.335
-123.705
-125.026
-126.299
-127.527
-128.711
-129.853
-130.956
-132.02
-133.048
-134.042
-135.005
-135.939
-136.846
-137.73
-138.594
-139.441
-140.275
-141.101
-141.922
-142.746
-143.576
-144.419
-145.281
-146.17
-147.092
-148.057
-149.071
-150.146
-151.29
-152.517
-153.836
-155.267
-156.815
-158.225
-159.396
-160.599
-161.844
-163.134
-164.467
-165.847
-167.272
-168.748
-170.271
-171.851
-173.478
-175.173
-176.914
-178.75
-180.627
-182.658
-184.702
-187.02
-189.256
-192.006
-194.379
-197.696
-199.667
-203.003
-95.4462
-57.385
-63.2109
-65.8331
-67.6401
-70.2955
-73.175
-76.0041
-78.8228
-81.6124
-84.3426
-87.0025
-89.5882
-92.0958
-94.5242
-96.8731
-99.1433
-101.336
-103.453
-105.496
-107.468
-109.37
-111.204
-112.973
-114.679
-116.324
-117.91
-119.439
-120.913
-122.335
-123.705
-125.025
-126.299
-127.527
-128.711
-129.853
-130.955
-132.02
-133.048
-134.042
-135.005
-135.939
-136.846
-137.73
-138.594
-139.44
-140.275
-141.1
-141.922
-142.745
-143.575
-144.418
-145.281
-146.169
-147.092
-148.056
-149.07
-150.145
-151.289
-152.516
-153.835
-155.264
-156.812
-158.222
-159.392
-160.594
-161.839
-163.128
-164.46
-165.838
-167.262
-168.736
-170.257
-171.834
-173.457
-175.148
-176.883
-178.711
-180.579
-182.593
-184.621
-186.898
-189.1
-191.742
-194.029
-197.061
-198.864
-201.719
-95.9834
-57.546
-63.282
-65.8798
-67.6698
-70.3157
-73.1889
-76.0135
-78.8292
-81.6166
-84.3454
-87.0042
-89.5892
-92.0963
-94.5244
-96.873
-99.1431
-101.336
-103.453
-105.496
-107.468
-109.369
-111.204
-112.973
-114.679
-116.324
-117.91
-119.439
-120.913
-122.334
-123.704
-125.025
-126.298
-127.526
-128.71
-129.853
-130.955
-132.019
-133.047
-134.042
-135.005
-135.938
-136.846
-137.73
-138.593
-139.44
-140.274
-141.1
-141.922
-142.745
-143.575
-144.418
-145.28
-146.168
-147.09
-148.054
-149.068
-150.142
-151.286
-152.512
-153.83
-155.259
-156.806
-158.214
-159.383
-160.585
-161.828
-163.115
-164.446
-165.822
-167.243
-168.713
-170.23
-171.802
-173.42
-175.103
-176.83
-178.645
-180.5
-182.488
-184.492
-186.712
-188.864
-191.37
-193.548
-196.275
-197.915
-200.369
-96.4953
-57.7426
-63.3651
-65.9361
-67.7069
-70.342
-73.208
-76.0273
-78.8391
-81.6238
-84.3506
-87.0079
-89.5918
-92.0981
-94.5255
-96.8737
-99.1435
-101.336
-103.453
-105.496
-107.467
-109.369
-111.204
-112.973
-114.679
-116.323
-117.909
-119.438
-120.913
-122.334
-123.704
-125.025
-126.298
-127.526
-128.71
-129.852
-130.955
-132.019
-133.047
-134.041
-135.004
-135.938
-136.845
-137.729
-138.593
-139.44
-140.274
-141.099
-141.921
-142.744
-143.574
-144.416
-145.278
-146.166
-147.088
-148.051
-149.065
-150.138
-151.281
-152.506
-153.823
-155.25
-156.794
-158.201
-159.368
-160.568
-161.809
-163.093
-164.42
-165.793
-167.209
-168.675
-170.186
-171.75
-173.359
-175.029
-176.744
-178.539
-180.373
-182.324
-184.292
-186.436
-188.518
-190.86
-192.904
-195.322
-196.806
-198.937
-96.9343
-57.9783
-63.4609
-66.0026
-67.7514
-70.3746
-73.2327
-76.046
-78.8534
-81.6348
-84.3589
-87.0143
-89.5966
-92.1018
-94.5283
-96.8758
-99.145
-101.337
-103.454
-105.496
-107.468
-109.369
-111.204
-112.973
-114.678
-116.323
-117.909
-119.438
-120.912
-122.333
-123.704
-125.024
-126.298
-127.526
-128.71
-129.852
-130.954
-132.019
-133.047
-134.041
-135.004
-135.938
-136.845
-137.729
-138.592
-139.439
-140.273
-141.098
-141.92
-142.742
-143.572
-144.414
-145.275
-146.163
-147.084
-148.046
-149.059
-150.131
-151.272
-152.495
-153.81
-155.234
-156.775
-158.178
-159.343
-160.54
-161.776
-163.056
-164.379
-165.745
-167.155
-168.612
-170.113
-171.665
-173.261
-174.913
-176.608
-178.374
-180.178
-182.077
-183.992
-186.037
-188.024
-190.18
-192.067
-194.188
-195.521
-197.396
-97.2447
-58.2542
-63.5695
-66.0797
-67.8031
-70.4132
-73.263
-76.0698
-78.8723
-81.6499
-84.3711
-87.024
-89.6044
-92.1081
-94.5334
-96.8799
-99.1483
-101.34
-103.456
-105.498
-107.469
-109.37
-111.204
-112.973
-114.679
-116.324
-117.91
-119.438
-120.913
-122.334
-123.704
-125.024
-126.298
-127.526
-128.71
-129.852
-130.954
-132.018
-133.047
-134.041
-135.004
-135.937
-136.844
-137.728
-138.591
-139.438
-140.272
-141.097
-141.918
-142.74
-143.569
-144.41
-145.271
-146.158
-147.077
-148.038
-149.049
-150.119
-151.258
-152.478
-153.789
-155.209
-156.745
-158.142
-159.302
-160.494
-161.725
-162.998
-164.312
-165.67
-167.069
-168.513
-169.999
-171.533
-173.108
-174.734
-176.399
-178.124
-179.882
-181.712
-183.552
-185.475
-187.339
-189.292
-191.005
-192.851
-194.041
-195.706
-97.3676
-58.5675
-63.6898
-66.1681
-67.8616
-70.4573
-73.2983
-76.0984
-78.8956
-81.6692
-84.3871
-87.0374
-89.6156
-92.1175
-94.5413
-96.8865
-99.1538
-101.344
-103.46
-105.501
-107.472
-109.373
-111.206
-112.975
-114.68
-116.325
-117.911
-119.439
-120.913
-122.334
-123.704
-125.025
-126.298
-127.526
-128.71
-129.852
-130.954
-132.018
-133.047
-134.041
-135.003
-135.937
-136.844
-137.727
-138.591
-139.437
-140.27
-141.095
-141.915
-142.737
-143.565
-144.405
-145.264
-146.149
-147.067
-148.026
-149.034
-150.1
-151.235
-152.451
-153.757
-155.17
-156.698
-158.086
-159.239
-160.423
-161.645
-162.907
-164.21
-165.553
-166.936
-168.361
-169.825
-171.332
-172.876
-174.464
-176.086
-177.753
-179.446
-181.185
-182.925
-184.704
-186.418
-188.16
-189.688
-191.285
-192.338
-193.82
-97.2507
-58.9122
-63.819
-66.2685
-67.9267
-70.506
-73.338
-76.1309
-78.9228
-81.6922
-84.4068
-87.0543
-89.6302
-92.1301
-94.5522
-96.896
-99.1621
-101.351
-103.466
-105.507
-107.477
-109.377
-111.21
-112.978
-114.683
-116.328
-117.913
-119.441
-120.915
-122.336
-123.706
-125.026
-126.299
-127.527
-128.711
-129.853
-130.955
-132.019
-133.047
-134.041
-135.004
-135.937
-136.844
-137.727
-138.59
-139.435
-140.268
-141.092
-141.911
-142.732
-143.558
-144.397
-145.254
-146.137
-147.052
-148.007
-149.01
-150.072
-151.201
-152.41
-153.707
-155.11
-156.625
-158.001
-159.143
-160.315
-161.523
-162.769
-164.053
-165.375
-166.734
-168.131
-169.562
-171.031
-172.531
-174.065
-175.625
-177.214
-178.818
-180.443
-182.055
-183.669
-185.213
-186.741
-188.081
-189.452
-190.377
-191.688
-96.8599
-59.2767
-63.951
-66.382
-67.9983
-70.5589
-73.3812
-76.1666
-78.9528
-81.7181
-84.4294
-87.0741
-89.6477
-92.1455
-94.5659
-96.9082
-99.173
-101.361
-103.475
-105.515
-107.484
-109.383
-111.216
-112.984
-114.688
-116.332
-117.917
-119.445
-120.919
-122.339
-123.709
-125.029
-126.302
-127.529
-128.713
-129.855
-130.957
-132.021
-133.048
-134.042
-135.004
-135.937
-136.844
-137.726
-138.589
-139.434
-140.265
-141.088
-141.906
-142.725
-143.549
-144.385
-145.239
-146.118
-147.028
-147.978
-148.976
-150.03
-151.15
-152.348
-153.633
-155.02
-156.516
-157.872
-158.998
-160.152
-161.339
-162.561
-163.818
-165.109
-166.433
-167.788
-169.173
-170.587
-172.024
-173.484
-174.959
-176.448
-177.936
-179.422
-180.88
-182.314
-183.672
-184.989
-186.145
-187.309
-188.11
-189.255
-96.1911
-59.6385
-64.0773
-66.5096
-68.0764
-70.6152
-73.4272
-76.2045
-78.9847
-81.7457
-84.4537
-87.0957
-89.667
-92.163
-94.5818
-96.9226
-99.1861
-101.373
-103.486
-105.525
-107.493
-109.392
-111.224
-112.991
-114.695
-116.338
-117.923
-119.451
-120.924
-122.344
-123.713
-125.033
-126.306
-127.533
-128.716
-129.858
-130.96
-132.023
-133.051
-134.044
-135.006
-135.938
-136.844
-137.726
-138.587
-139.431
-140.262
-141.083
-141.899
-142.715
-143.536
-144.368
-145.217
-146.09
-146.994
-147.936
-148.924
-149.967
-151.074
-152.255
-153.521
-154.885
-156.354
-157.682
-158.783
-159.911
-161.066
-162.253
-163.471
-164.717
-165.99
-167.287
-168.606
-169.944
-171.296
-172.657
-174.021
-175.382
-176.727
-178.051
-179.335
-180.577
-181.742
-182.854
-183.83
-184.8
-185.479
-186.458
-95.2591
-59.9583
-64.1852
-66.6525
-68.1612
-70.6746
-73.4758
-76.2441
-79.0176
-81.7742
-84.4787
-87.118
-89.6871
-92.1813
-94.5985
-96.938
-99.2004
-101.386
-103.498
-105.536
-107.504
-109.402
-111.233
-113
-114.703
-116.346
-117.93
-119.458
-120.93
-122.35
-123.719
-125.039
-126.311
-127.538
-128.721
-129.863
-130.964
-132.027
-133.054
-134.047
-135.008
-135.94
-136.845
-137.726
-138.586
-139.428
-140.256
-141.075
-141.887
-142.699
-143.516
-144.342
-145.185
-146.05
-146.943
-147.873
-148.847
-149.874
-150.961
-152.119
-153.356
-154.686
-156.115
-157.402
-158.467
-159.555
-160.666
-161.803
-162.964
-164.146
-165.348
-166.565
-167.794
-169.031
-170.27
-171.506
-172.73
-173.936
-175.114
-176.257
-177.351
-178.394
-179.363
-180.275
-181.075
-181.862
-182.418
-183.23
-94.0727
-60.2072
-64.2461
-66.8095
-68.2527
-70.7367
-73.5266
-76.2849
-79.0509
-81.8026
-84.5036
-87.14
-89.7069
-92.1992
-94.6149
-96.9532
-99.2145
-101.4
-103.51
-105.548
-107.515
-109.412
-111.243
-113.009
-114.712
-116.355
-117.938
-119.465
-120.938
-122.357
-123.726
-125.045
-126.317
-127.544
-128.727
-129.868
-130.969
-132.032
-133.058
-134.051
-135.011
-135.942
-136.846
-137.725
-138.583
-139.423
-140.248
-141.062
-141.871
-142.677
-143.486
-144.304
-145.137
-145.989
-146.868
-147.781
-148.734
-149.736
-150.794
-151.918
-153.115
-154.396
-155.766
-156.995
-158.008
-159.039
-160.086
-161.152
-162.234
-163.329
-164.434
-165.544
-166.655
-167.762
-168.858
-169.939
-170.996
-172.024
-173.014
-173.961
-174.856
-175.696
-176.469
-177.187
-177.814
-178.424
-178.853
-179.496
-92.6801
-60.4024
-64.2095
-66.9685
-68.3482
-70.7997
-73.5791
-76.3267
-79.0844
-81.8307
-84.5277
-87.161
-89.7255
-92.216
-94.6302
-96.9672
-99.2275
-101.412
-103.522
-105.559
-107.525
-109.422
-111.253
-113.018
-114.721
-116.363
-117.946
-119.473
-120.945
-122.364
-123.733
-125.052
-126.324
-127.55
-128.733
-129.874
-130.974
-132.036
-133.062
-134.054
-135.013
-135.943
-136.845
-137.722
-138.577
-139.413
-140.234
-141.043
-141.845
-142.643
-143.442
-144.248
-145.065
-145.9
-146.758
-147.646
-148.569
-149.536
-150.552
-151.626
-152.764
-153.975
-155.262
-156.409
-157.349
-158.299
-159.258
-160.227
-161.203
-162.182
-163.159
-164.131
-165.093
-166.039
-166.964
-167.862
-168.729
-169.559
-170.346
-171.086
-171.775
-172.412
-172.99
-173.519
-173.975
-174.414
-174.712
-175.185
-91.2532
-60.587
-64.0552
-67.0952
-68.4346
-70.8561
-73.6299
-76.3677
-79.1169
-81.8579
-84.5507
-87.1808
-89.7427
-92.2312
-94.6438
-96.9795
-99.2388
-101.422
-103.531
-105.568
-107.534
-109.43
-111.26
-113.025
-114.728
-116.37
-117.953
-119.48
-120.952
-122.371
-123.739
-125.058
-126.329
-127.555
-128.738
-129.878
-130.978
-132.04
-133.065
-134.055
-135.013
-135.941
-136.841
-137.715
-138.566
-139.397
-140.212
-141.013
-141.805
-142.591
-143.376
-144.164
-144.96
-145.769
-146.597
-147.448
-148.329
-149.245
-150.202
-151.206
-152.261
-153.374
-154.545
-155.579
-156.418
-157.259
-158.1
-158.94
-159.777
-160.606
-161.424
-162.225
-163.006
-163.762
-164.489
-165.183
-165.839
-166.456
-167.029
-167.558
-168.039
-168.473
-168.858
-169.201
-169.487
-169.756
-169.921
-170.222
-89.9238
-60.8287
-63.8643
-67.1737
-68.4868
-70.8881
-73.6679
-76.4005
-79.1435
-81.8804
-84.57
-87.1972
-89.7569
-92.2436
-94.6548
-96.9893
-99.2476
-101.43
-103.539
-105.575
-107.54
-109.436
-111.266
-113.031
-114.733
-116.375
-117.958
-119.484
-120.956
-122.375
-123.743
-125.062
-126.333
-127.559
-128.741
-129.881
-130.98
-132.041
-133.065
-134.054
-135.01
-135.935
-136.831
-137.701
-138.547
-139.371
-140.176
-140.967
-141.744
-142.514
-143.278
-144.041
-144.807
-145.58
-146.365
-147.165
-147.985
-148.831
-149.704
-150.61
-151.551
-152.53
-153.545
-154.426
-155.132
-155.83
-156.518
-157.196
-157.859
-158.505
-159.129
-159.729
-160.301
-160.843
-161.351
-161.823
-162.257
-162.652
-163.006
-163.321
-163.595
-163.83
-164.025
-164.187
-164.307
-164.412
-164.444
-164.571
-88.6409
-61.0226
-63.7475
-67.2678
-68.5274
-70.8995
-73.6844
-76.4133
-79.1532
-81.889
-84.5776
-87.2037
-89.7625
-92.2484
-94.6589
-96.9928
-99.2506
-101.433
-103.541
-105.577
-107.542
-109.438
-111.267
-113.032
-114.734
-116.376
-117.959
-119.485
-120.957
-122.376
-123.744
-125.062
-126.334
-127.559
-128.741
-129.88
-130.979
-132.038
-133.061
-134.048
-135.001
-135.923
-136.814
-137.678
-138.516
-139.33
-140.123
-140.898
-141.656
-142.402
-143.137
-143.865
-144.589
-145.312
-146.037
-146.767
-147.504
-148.252
-149.012
-149.786
-150.573
-151.374
-152.185
-152.869
-153.406
-153.924
-154.424
-154.904
-155.36
-155.791
-156.195
-156.569
-156.911
-157.219
-157.494
-157.734
-157.938
-158.107
-158.242
-158.342
-158.41
-158.447
-158.453
-158.433
-158.385
-158.321
-158.215
-158.156
-87.7511
-61.0467
-63.6569
-67.3168
-68.5506
-70.9081
-73.6937
-76.4177
-79.1533
-81.8871
-84.5742
-87.1988
-89.7566
-92.2418
-94.6518
-96.9853
-99.2429
-101.425
-103.533
-105.569
-107.534
-109.43
-111.26
-113.025
-114.727
-116.369
-117.952
-119.478
-120.95
-122.369
-123.737
-125.056
-126.327
-127.552
-128.733
-129.872
-130.97
-132.029
-133.05
-134.034
-134.984
-135.902
-136.788
-137.644
-138.472
-139.275
-140.053
-140.809
-141.544
-142.261
-142.962
-143.648
-144.322
-144.985
-145.64
-146.286
-146.927
-147.561
-148.19
-148.812
-149.426
-150.028
-150.614
-151.085
-151.441
-151.773
-152.079
-152.358
-152.609
-152.83
-153.022
-153.182
-153.311
-153.409
-153.475
-153.511
-153.516
-153.493
-153.443
-153.366
-153.266
-153.143
-152.999
-152.837
-152.657
-152.465
-152.255
-152.055
-87.3335
-61.0434
-63.6159
-67.3262
-68.5493
-70.9019
-73.6871
-76.4088
-79.1423
-81.8752
-84.561
-87.1853
-89.7431
-92.2281
-94.6382
-96.9719
-99.2297
-101.412
-103.521
-105.556
-107.522
-109.418
-111.248
-113.013
-114.716
-116.358
-117.941
-119.468
-120.94
-122.359
-123.727
-125.046
-126.317
-127.543
-128.724
-129.862
-130.959
-132.016
-133.036
-134.018
-134.965
-135.878
-136.758
-137.607
-138.426
-139.216
-139.979
-140.716
-141.428
-142.116
-142.781
-143.425
-144.048
-144.65
-145.233
-145.797
-146.34
-146.863
-147.363
-147.838
-148.285
-148.699
-149.076
-149.354
-149.547
-149.711
-149.846
-149.952
-150.027
-150.071
-150.086
-150.07
-150.026
-149.953
-149.853
-149.727
-149.577
-149.404
-149.21
-148.997
-148.767
-148.522
-148.264
-147.995
-147.716
-147.429
-147.136
-146.84
-87.3016
-61.0313
-63.6202
-67.3221
-68.5475
-70.9011
-73.6862
-76.4079
-79.1416
-81.8745
-84.5604
-87.1848
-89.7426
-92.2277
-94.6378
-96.9715
-99.2294
-101.412
-103.52
-105.556
-107.522
-109.418
-111.248
-113.013
-114.716
-116.358
-117.941
-119.468
-120.94
-122.359
-123.727
-125.046
-126.317
-127.542
-128.722
-129.86
-130.956
-132.012
-133.029
-134.009
-134.953
-135.861
-136.736
-137.577
-138.386
-139.164
-139.912
-140.629
-141.317
-141.976
-142.606
-143.207
-143.779
-144.322
-144.835
-145.316
-145.764
-146.178
-146.553
-146.888
-147.177
-147.416
-147.6
-147.703
-147.749
-147.764
-147.748
-147.701
-147.623
-147.516
-147.379
-147.215
-147.025
-146.811
-146.574
-146.316
-146.039
-145.746
-145.437
-145.117
-144.785
-144.445
-144.098
-143.745
-143.39
-143.032
-142.674
-142.309
-87.6538
-61.0084
-63.6694
-67.3045
-68.5459
-70.9064
-73.6917
-76.4156
-79.1515
-81.8856
-84.5729
-87.1976
-89.7554
-92.2407
-94.6508
-96.9844
-99.2421
-101.424
-103.532
-105.568
-107.533
-109.429
-111.259
-113.024
-114.726
-116.368
-117.951
-119.478
-120.949
-122.368
-123.736
-125.054
-126.325
-127.549
-128.729
-129.866
-130.961
-132.016
-133.031
-134.008
-134.948
-135.852
-136.721
-137.555
-138.354
-139.12
-139.852
-140.55
-141.214
-141.845
-142.44
-142.999
-143.522
-144.006
-144.45
-144.852
-145.208
-145.517
-145.775
-145.977
-146.118
-146.195
-146.202
-146.144
-146.059
-145.942
-145.794
-145.616
-145.408
-145.172
-144.91
-144.624
-144.315
-143.987
-143.641
-143.28
-142.906
-142.52
-142.125
-141.722
-141.315
-140.904
-140.491
-140.078
-139.666
-139.254
-138.851
-138.435
-88.4588
-60.9572
-63.7665
-67.2483
-68.5204
-70.8972
-73.6813
-76.4109
-79.1512
-81.8874
-84.5764
-87.2026
-89.7614
-92.2473
-94.6579
-96.9918
-99.2497
-101.432
-103.54
-105.576
-107.541
-109.437
-111.267
-113.031
-114.734
-116.375
-117.958
-119.484
-120.956
-122.374
-123.742
-125.06
-126.33
-127.554
-128.733
-129.87
-130.964
-132.017
-133.03
-134.005
-134.942
-135.842
-136.705
-137.532
-138.322
-139.076
-139.793
-140.474
-141.116
-141.718
-142.281
-142.801
-143.277
-143.706
-144.086
-144.414
-144.686
-144.899
-145.048
-145.13
-145.14
-145.072
-144.924
-144.728
-144.53
-144.301
-144.042
-143.754
-143.437
-143.095
-142.731
-142.345
-141.942
-141.523
-141.09
-140.646
-140.193
-139.733
-139.269
-138.802
-138.334
-137.867
-137.402
-136.939
-136.483
-136.03
-135.59
-135.135
-89.6337
-60.7621
-63.8856
-67.1528
-68.4793
-70.8868
-73.665
-76.3987
-79.1427
-81.8796
-84.5695
-87.1967
-89.7565
-92.2431
-94.6544
-96.9888
-99.2472
-101.43
-103.538
-105.574
-107.539
-109.436
-111.265
-113.03
-114.733
-116.374
-117.957
-119.483
-120.955
-122.373
-123.741
-125.059
-126.329
-127.553
-128.732
-129.867
-130.961
-132.013
-133.025
-133.998
-134.932
-135.829
-136.687
-137.508
-138.291
-139.036
-139.741
-140.406
-141.03
-141.611
-142.147
-142.635
-143.073
-143.458
-143.786
-144.055
-144.259
-144.396
-144.46
-144.447
-144.354
-144.175
-143.908
-143.606
-143.323
-143.009
-142.666
-142.295
-141.898
-141.478
-141.038
-140.581