/*--------------------------------*- C++ -*----------------------------------*\
| =========                 |                                                 |
| \\      /  F ield         | OpenFOAM: The Open Source CFD Toolbox           |
|  \\    /   O peration     | Version:  2306                                  |
|   \\  /    A nd           | Website:  www.openfoam.com                      |
|    \\/     M anipulation  |                                                 |
\*---------------------------------------------------------------------------*/
FoamFile
{
    version     2.0;
    format      ascii;
    arch        "LSB;label=32;scalar=64";
    class       surfaceScalarField;
    location    "1900";
    object      phi;
}
// * * * * * * * * * * * * * * * * * * * * * * * * * * * * * * * * * * * * * //

dimensions      [0 3 -1 0 0 0 0];

oriented        oriented;

internalField   nonuniform List<scalar> 
40747
(
7.71169e-06
7.16881e-06
2.804e-06
4.90768e-06
9.33734e-06
1.58328e-05
4.76636e-06
7.37498e-06
1.13124e-05
2.62972e-05
6.12593e-06
9.95278e-06
1.3713e-05
3.89281e-05
7.11343e-06
1.27255e-05
1.66341e-05
5.41629e-05
7.8386e-06
1.5909e-05
2.01939e-05
7.25218e-05
8.34177e-06
1.96907e-05
2.45393e-05
9.46208e-05
8.62921e-06
2.42518e-05
2.98544e-05
0.000121186
8.69063e-06
2.9793e-05
3.63709e-05
0.000153068
8.50905e-06
3.65525e-05
4.4382e-05
0.000191252
8.06878e-06
4.48222e-05
5.42609e-05
0.000236875
7.36459e-06
5.49651e-05
6.64866e-05
0.00029122
6.4142e-06
6.7437e-05
8.16774e-05
0.000355716
5.27637e-06
8.28152e-05
0.000100638
0.000431908
4.07729e-06
0.000101837
0.000124424
0.0005214
3.04823e-06
0.000125453
0.000154431
0.000625749
2.57855e-06
0.000154901
0.000192518
0.000746285
3.28771e-06
0.000191808
0.000241179
0.000883816
6.11914e-06
0.000238348
0.000303784
0.00103817
1.24545e-05
0.000297449
0.000384903
0.00120748
2.42353e-05
0.000373122
0.000490736
0.0013872
4.40545e-05
0.000470917
0.000629632
0.00156864
7.51084e-05
0.000598578
0.000812469
0.00173734
0.00012066
0.000766917
0.00105223
0.00187205
0.000182041
0.000990852
0.00136272
0.00194522
0.000254468
0.00129029
0.00176054
0.0019217
0.000325619
0.00168939
0.00225867
0.00176436
0.000376157
0.00220814
0.0028266
0.0014798
0.000373201
0.00282955
0.00343022
0.00112475
0.000309127
0.00349429
0.00413243
0.000712444
0.000211799
0.00422976
0.00394023
0.000336723
0.000111185
0.00404084
0.00393072
-2.94953e-05
8.27883e-06
0.00403363
0.00393066
-0.000395646
-9.4449e-05
0.00403338
0.00393979
-0.000770926
-0.000194687
0.00404002
0.00400485
-0.00116852
-0.000289472
0.00409964
0.00334418
-0.00151183
-0.000354195
0.00340891
0.00277512
-0.00179055
-0.000363781
0.00278471
0.00223974
-0.00195354
-0.000320672
0.00219663
0.00176263
-0.00198853
-0.00025476
0.00169672
0.00137622
-0.00192754
-0.000184886
0.00130635
0.00107128
-0.00180321
-0.000123792
0.00101019
0.000833231
-0.00164182
-7.72997e-05
0.000786738
0.000649926
-0.00146432
-4.49042e-05
0.00061753
0.000509537
-0.00128553
-2.37865e-05
0.000488419
0.00040182
-0.00111473
-1.09517e-05
0.000388985
0.000318753
-0.000957124
-3.87256e-06
0.000311673
0.000254294
-0.000815138
-5.98895e-07
0.00025102
0.000203945
-0.000689419
2.94389e-07
0.000203052
0.000164358
-0.000579532
-1.93715e-07
0.000164846
0.000133037
-0.000484425
-1.38814e-06
0.000134231
0.000108107
-0.00040274
-2.85027e-06
0.000109569
8.8155e-05
-0.000333008
-4.30867e-06
8.96133e-05
7.21061e-05
-0.000273769
-5.60658e-06
7.3404e-05
5.91376e-05
-0.000223641
-6.66337e-06
6.01944e-05
4.8615e-05
-0.000181359
-7.44696e-06
4.93986e-05
4.00456e-05
-0.000145787
-7.95441e-06
4.05531e-05
3.30444e-05
-0.000115926
-8.19845e-06
3.32884e-05
2.73079e-05
-9.0903e-05
-8.19798e-06
2.73074e-05
2.2596e-05
-6.99652e-05
-7.97086e-06
2.23689e-05
1.87173e-05
-5.2467e-05
-7.52709e-06
1.82736e-05
1.55185e-05
-3.78579e-05
-6.85972e-06
1.48512e-05
1.28762e-05
-2.56712e-05
-5.92793e-06
1.19444e-05
1.06905e-05
-1.55119e-05
-4.62272e-06
9.38528e-06
8.88064e-06
-7.04771e-06
-2.7189e-06
6.97681e-06
7.38136e-06
4.66247e-06
2.4502e-06
2.45748e-06
1.66394e-06
7.86252e-07
1.48292e-06
1.81021e-07
1.37925e-06
1.03678e-07
1.31407e-06
6.51721e-08
1.27047e-06
4.36079e-08
1.23937e-06
3.10936e-08
1.21628e-06
2.30886e-08
1.19867e-06
1.76153e-08
1.18491e-06
1.37524e-08
1.17398e-06
1.09349e-08
1.16516e-06
8.81936e-09
1.15797e-06
7.19553e-09
1.15204e-06
5.92883e-09
1.1471e-06
4.93291e-09
1.14298e-06
4.12248e-09
1.13952e-06
3.46453e-09
1.13658e-06
2.94097e-09
1.13408e-06
2.49854e-09
1.13195e-06
2.13162e-09
1.13011e-06
1.83436e-09
1.12854e-06
1.57863e-09
1.12717e-06
1.36274e-09
1.12599e-06
1.18188e-09
1.12496e-06
1.03235e-09
1.12406e-06
8.97903e-10
1.12328e-06
7.86263e-10
1.12259e-06
6.93315e-10
1.12198e-06
6.08972e-10
1.12144e-06
5.37617e-10
1.12097e-06
4.76481e-10
1.12054e-06
4.23598e-10
1.12017e-06
3.69147e-10
1.11985e-06
3.27895e-10
1.11955e-06
2.95022e-10
1.11929e-06
2.6039e-10
1.11907e-06
2.27997e-10
1.11887e-06
1.98311e-10
1.1187e-06
1.70015e-10
1.11856e-06
1.42772e-10
1.11844e-06
1.14059e-10
1.11835e-06
8.56317e-11
1.1183e-06
5.65588e-11
1.11827e-06
2.28545e-11
1.11829e-06
-1.46865e-11
1.11835e-06
-6.11702e-11
1.11845e-06
-1.10021e-10
1.11861e-06
-1.63737e-10
1.11884e-06
-2.26351e-10
1.11913e-06
-2.99727e-10
1.11951e-06
-3.83566e-10
1.11999e-06
-4.81733e-10
1.12057e-06
-5.95709e-10
1.12128e-06
-7.20365e-10
1.12213e-06
-8.65991e-10
1.12314e-06
-1.02872e-09
1.12433e-06
-1.21393e-09
1.12572e-06
-1.41772e-09
1.12734e-06
-1.64937e-09
1.1292e-06
-1.90338e-09
1.13136e-06
-2.19441e-09
1.13382e-06
-2.50998e-09
1.13665e-06
-2.87053e-09
1.13873e-06
-2.14094e-09
1.14095e-06
-2.28431e-09
1.14332e-06
-2.44458e-09
1.14585e-06
-2.58768e-09
1.14851e-06
-2.74019e-09
1.15134e-06
-2.8713e-09
1.15433e-06
-3.0418e-09
1.15749e-06
-3.17476e-09
1.16081e-06
-3.34979e-09
1.16434e-06
-3.49579e-09
1.16806e-06
-3.68091e-09
1.17202e-06
-3.85742e-09
1.1762e-06
-4.06647e-09
1.18072e-06
-4.30403e-09
1.18554e-06
-4.53142e-09
1.19089e-06
-4.90625e-09
1.19667e-06
-5.15064e-09
1.20334e-06
-5.77761e-09
1.21076e-06
-6.27443e-09
1.21939e-06
-7.13039e-09
1.22989e-06
-8.75984e-09
1.24413e-06
-1.21116e-08
1.27029e-06
-2.38783e-08
1.25032e-06
2.22125e-08
-1.05704e-06
2.30941e-06
5.50634e-06
4.32613e-06
4.24916e-06
2.04344e-06
3.88353e-06
5.46646e-07
3.66178e-06
3.25423e-07
3.51799e-06
2.08968e-07
3.42012e-06
1.41474e-07
3.34949e-06
1.01719e-07
3.29662e-06
7.59655e-08
3.25605e-06
5.81815e-08
3.22425e-06
4.5556e-08
3.19887e-06
3.63061e-08
3.17836e-06
2.93345e-08
3.16159e-06
2.3968e-08
3.14774e-06
1.97719e-08
3.13621e-06
1.64668e-08
3.12656e-06
1.37739e-08
3.11844e-06
1.15843e-08
3.11155e-06
9.83866e-09
3.10568e-06
8.36413e-09
3.10067e-06
7.13933e-09
3.09636e-06
6.14573e-09
3.09265e-06
5.29141e-09
3.08945e-06
4.56968e-09
3.08667e-06
3.96424e-09
3.08424e-06
3.46332e-09
3.08212e-06
3.01372e-09
3.08027e-06
2.6394e-09
3.07864e-06
2.32761e-09
3.07721e-06
2.04504e-09
3.07594e-06
1.80561e-09
3.07482e-06
1.60051e-09
3.07382e-06
1.42314e-09
3.07295e-06
1.24108e-09
3.07218e-06
1.10191e-09
3.07149e-06
9.90559e-10
3.07087e-06
8.74206e-10
3.07034e-06
7.65057e-10
3.06987e-06
6.6463e-10
3.06947e-06
5.68636e-10
3.06914e-06
4.75835e-10
3.06888e-06
3.7785e-10
3.06868e-06
2.80183e-10
3.06855e-06
1.79755e-10
3.06851e-06
6.33232e-11
3.06856e-06
-6.6851e-11
3.06872e-06
-2.26055e-10
3.069e-06
-3.95838e-10
3.06941e-06
-5.84972e-10
3.06998e-06
-8.03345e-10
3.07073e-06
-1.0586e-09
3.07169e-06
-1.35145e-09
3.07288e-06
-1.69325e-09
3.07435e-06
-2.09021e-09
3.07613e-06
-2.52652e-09
3.07827e-06
-3.03543e-09
3.08079e-06
-3.6035e-09
3.08378e-06
-4.25245e-09
3.08725e-06
-4.96454e-09
3.0913e-06
-5.77638e-09
3.09598e-06
-6.66459e-09
3.10138e-06
-7.68161e-09
3.10755e-06
-8.7877e-09
3.11463e-06
-1.00534e-08
3.11985e-06
-7.49584e-09
3.12545e-06
-8.0264e-09
3.1314e-06
-8.54982e-09
3.13775e-06
-9.06239e-09
3.14444e-06
-9.5811e-09
3.15154e-06
-1.00674e-08
3.15902e-06
-1.06327e-08
3.16695e-06
-1.11267e-08
3.17527e-06
-1.17071e-08
3.18409e-06
-1.22409e-08
3.19338e-06
-1.289e-08
3.20325e-06
-1.35074e-08
3.21374e-06
-1.43028e-08
3.22495e-06
-1.50594e-08
3.23707e-06
-1.60342e-08
3.25016e-06
-1.70641e-08
3.26466e-06
-1.83384e-08
3.2805e-06
-1.98243e-08
3.29897e-06
-2.24437e-08
3.31866e-06
-2.38994e-08
3.34486e-06
-3.15884e-08
3.37439e-06
-3.76052e-08
3.43629e-06
-8.15389e-08
3.44661e-06
1.58594e-08
-1.88075e-06
4.27383e-06
8.89963e-06
5.37928e-06
7.62187e-06
3.3212e-06
7.14373e-06
1.02478e-06
6.82578e-06
6.43375e-07
6.61008e-06
4.24667e-07
6.45982e-06
2.91736e-07
6.34954e-06
2.11991e-07
6.26608e-06
1.59431e-07
6.2016e-06
1.22659e-07
6.15079e-06
9.63688e-08
6.11009e-06
7.70061e-08
6.07708e-06
6.23463e-08
6.05002e-06
5.10241e-08
6.02765e-06
4.21475e-08
6.00897e-06
3.51405e-08
5.99332e-06
2.94267e-08
5.98014e-06
2.47704e-08
5.96893e-06
2.10492e-08
5.95938e-06
1.79099e-08
5.95123e-06
1.52965e-08
5.9442e-06
1.31717e-08
5.93815e-06
1.13478e-08
5.93291e-06
9.80507e-09
5.92837e-06
8.50856e-09
5.9244e-06
7.43406e-09
5.92095e-06
6.47361e-09
5.91792e-06
5.67005e-09
5.91525e-06
4.9997e-09
5.9129e-06
4.39459e-09
5.91083e-06
3.88027e-09
5.90899e-06
3.43936e-09
5.90736e-06
3.05839e-09
5.90593e-06
2.67064e-09
5.90467e-06
2.3682e-09
5.90354e-06
2.12502e-09
5.90254e-06
1.87472e-09
5.90166e-06
1.63841e-09
5.90091e-06
1.41936e-09
5.90027e-06
1.20881e-09
5.89974e-06
1.00369e-09
5.89933e-06
7.8639e-10
5.89904e-06
5.66482e-10
5.89888e-06
3.38261e-10
5.89887e-06
7.40861e-11
5.89902e-06
-2.24656e-10
5.89937e-06
-5.8181e-10
5.89994e-06
-9.71817e-10
5.90077e-06
-1.41662e-09
5.90188e-06
-1.92261e-09
5.90332e-06
-2.51222e-09
5.90514e-06
-3.19219e-09
5.90741e-06
-3.98253e-09
5.9102e-06
-4.90002e-09
5.91355e-06
-5.91539e-09
5.91757e-06
-7.09251e-09
5.92232e-06
-8.41073e-09
5.92792e-06
-9.91222e-09
5.93444e-06
-1.15703e-08
5.94203e-06
-1.34518e-08
5.9508e-06
-1.55283e-08
5.9609e-06
-1.78883e-08
5.97248e-06
-2.04812e-08
5.98575e-06
-2.34386e-08
5.99555e-06
-1.74414e-08
6.00601e-06
-1.86451e-08
6.01712e-06
-1.98262e-08
6.02895e-06
-2.10321e-08
6.04146e-06
-2.22487e-08
6.05471e-06
-2.3409e-08
6.06868e-06
-2.47249e-08
6.08345e-06
-2.59189e-08
6.09903e-06
-2.73126e-08
6.11546e-06
-2.85873e-08
6.13286e-06
-3.01996e-08
6.15119e-06
-3.16064e-08
6.17083e-06
-3.36679e-08
6.19149e-06
-3.52363e-08
6.21412e-06
-3.80235e-08
6.23788e-06
-3.98393e-08
6.26492e-06
-4.40175e-08
6.29308e-06
-4.61308e-08
6.32738e-06
-5.44075e-08
6.36209e-06
-5.56477e-08
6.41066e-06
-7.67825e-08
6.45885e-06
-8.17726e-08
6.56276e-06
-1.81271e-07
6.63563e-06
-5.32102e-08
-2.41716e-06
7.17552e-06
1.24332e-05
5.67154e-06
1.12833e-05
4.47108e-06
1.07433e-05
1.56488e-06
1.03434e-05
1.04319e-06
1.00596e-05
7.08493e-07
9.85762e-06
4.9373e-07
9.70731e-06
3.62297e-07
9.59254e-06
2.74202e-07
9.5034e-06
2.11795e-07
9.43289e-06
1.66883e-07
9.37625e-06
1.3365e-07
9.3302e-06
1.0839e-07
9.2924e-06
8.88249e-08
9.2611e-06
7.34522e-08
9.23495e-06
6.1295e-08
9.213e-06
5.13764e-08
9.19449e-06
4.32784e-08
9.17875e-06
3.67923e-08
9.16533e-06
3.13281e-08
9.15386e-06
2.67707e-08
9.14397e-06
2.30573e-08
9.13545e-06
1.98757e-08
9.12808e-06
1.71812e-08
9.12167e-06
1.49134e-08
9.11608e-06
1.30305e-08
9.1112e-06
1.13546e-08
9.10693e-06
9.94599e-09
9.10316e-06
8.76868e-09
9.09985e-06
7.71064e-09
9.09692e-06
6.80887e-09
9.09433e-06
6.03461e-09
9.09202e-06
5.3662e-09
9.09001e-06
4.69238e-09
9.08822e-06
4.15663e-09
9.08662e-06
3.72378e-09
9.08521e-06
3.2847e-09
9.08399e-06
2.86806e-09
9.08293e-06
2.47951e-09
9.08203e-06
2.10447e-09
9.0813e-06
1.73698e-09
9.08074e-06
1.34715e-09
9.08035e-06
9.47969e-10
9.08016e-06
5.30728e-10
9.08018e-06
4.91245e-11
9.08045e-06
-5.00591e-10
9.08101e-06
-1.14626e-09
9.08189e-06
-1.86241e-09
9.08316e-06
-2.69396e-09
9.08486e-06
-3.63068e-09
9.08705e-06
-4.71905e-09
9.08982e-06
-5.97846e-09
9.09325e-06
-7.43765e-09
9.09746e-06
-9.13064e-09
9.10252e-06
-1.10137e-08
9.10856e-06
-1.31865e-08
9.11572e-06
-1.5626e-08
9.12413e-06
-1.83966e-08
9.13395e-06
-2.14717e-08
9.14535e-06
-2.49464e-08
9.15852e-06
-2.88069e-08
9.17369e-06
-3.31678e-08
9.19108e-06
-3.79949e-08
9.21099e-06
-4.34793e-08
9.2257e-06
-3.23104e-08
9.24138e-06
-3.44945e-08
9.25801e-06
-3.66339e-08
9.27569e-06
-3.88619e-08
9.2944e-06
-4.1124e-08
9.31418e-06
-4.32868e-08
9.33505e-06
-4.57211e-08
9.35706e-06
-4.79542e-08
9.3803e-06
-5.05845e-08
9.40474e-06
-5.29384e-08
9.43067e-06
-5.60308e-08
9.45785e-06
-5.85309e-08
9.48703e-06
-6.25632e-08
9.51745e-06
-6.51401e-08
9.55095e-06
-7.0834e-08
9.58553e-06
-7.3375e-08
9.6253e-06
-8.23525e-08
9.66565e-06
-8.45253e-08
9.71553e-06
-1.01825e-07
9.76455e-06
-1.01562e-07
9.83452e-06
-1.43225e-07
9.89874e-06
-1.41816e-07
1.00374e-05
-3.15609e-07
1.01471e-05
-1.58985e-07
-2.83845e-06
1.0572e-05
1.63704e-05
5.21008e-06
1.54226e-05
5.41893e-06
1.48653e-05
2.12217e-06
1.43899e-05
1.51854e-06
1.40333e-05
1.06515e-06
1.3773e-05
7.54036e-07
1.35764e-05
5.58893e-07
1.34249e-05
4.25709e-07
1.33065e-05
3.30136e-07
1.32125e-05
2.60864e-07
1.31368e-05
2.09358e-07
1.30752e-05
1.70061e-07
1.30244e-05
1.3954e-07
1.29824e-05
1.15507e-07
1.29472e-05
9.64674e-08
1.29177e-05
8.09265e-08
1.28927e-05
6.8217e-08
1.28715e-05
5.8016e-08
1.28534e-05
4.94328e-08
1.28379e-05
4.22623e-08
1.28246e-05
3.64083e-08
1.2813e-05
3.14003e-08
1.28031e-05
2.71548e-08
1.27944e-05
2.35771e-08
1.27868e-05
2.06013e-08
1.27802e-05
1.79624e-08
1.27744e-05
1.57361e-08
1.27693e-05
1.38716e-08
1.27649e-05
1.22027e-08
1.27609e-05
1.07771e-08
1.27574e-05
9.55102e-09
1.27543e-05
8.49324e-09
1.27515e-05
7.43673e-09
1.27491e-05
6.5829e-09
1.27469e-05
5.88981e-09
1.2745e-05
5.1958e-09
1.27434e-05
4.53513e-09
1.27419e-05
3.91615e-09
1.27407e-05
3.31721e-09
1.27397e-05
2.72804e-09
1.2739e-05
2.10324e-09
1.27384e-05
1.45822e-09
1.27382e-05
7.80669e-10
1.27382e-05
1.43328e-12
1.27386e-05
-8.94048e-10
1.27394e-05
-1.93305e-09
1.27406e-05
-3.0947e-09
1.27424e-05
-4.46108e-09
1.27447e-05
-5.99229e-09
1.27478e-05
-7.76648e-09
1.27516e-05
-9.82335e-09
1.27563e-05
-1.22004e-08
1.27621e-05
-1.49569e-08
1.27691e-05
-1.80338e-08
1.27774e-05
-2.1572e-08
1.27873e-05
-2.55515e-08
1.27989e-05
-3.00606e-08
1.28124e-05
-3.50824e-08
1.28281e-05
-4.0738e-08
1.28462e-05
-4.70487e-08
1.2867e-05
-5.41458e-08
1.28909e-05
-6.20403e-08
1.29183e-05
-7.09762e-08
1.29385e-05
-5.26917e-08
1.296e-05
-5.62077e-08
1.29828e-05
-5.96326e-08
1.3007e-05
-6.32288e-08
1.30326e-05
-6.69073e-08
1.30596e-05
-7.04235e-08
1.30881e-05
-7.43655e-08
1.31181e-05
-7.7989e-08
1.31498e-05
-8.22956e-08
1.3183e-05
-8.60702e-08
1.32183e-05
-9.11711e-08
1.32551e-05
-9.50615e-08
1.32946e-05
-1.01766e-07
1.33356e-05
-1.05536e-07
1.33807e-05
-1.15176e-07
1.34269e-05
-1.18381e-07
1.348e-05
-1.33863e-07
1.35332e-05
-1.35576e-07
1.35989e-05
-1.64834e-07
1.36626e-05
-1.61769e-07
1.37535e-05
-2.30256e-07
1.38335e-05
-2.17303e-07
1.40021e-05
-4.79482e-07
1.414e-05
-2.92587e-07
-3.19363e-06
1.44992e-05
2.09603e-05
3.94049e-06
2.02824e-05
6.09679e-06
1.97693e-05
2.63534e-06
1.92344e-05
2.05337e-06
1.88028e-05
1.49682e-06
1.84772e-05
1.07959e-06
1.82267e-05
8.09373e-07
1.80315e-05
6.20947e-07
1.78779e-05
4.83713e-07
1.77554e-05
3.83404e-07
1.76563e-05
3.0841e-07
1.75754e-05
2.50952e-07
1.75088e-05
2.06189e-07
1.74534e-05
1.70861e-07
1.74071e-05
1.42818e-07
1.73681e-05
1.19915e-07
1.73352e-05
1.01154e-07
1.73071e-05
8.60645e-08
1.72832e-05
7.33803e-08
1.72627e-05
6.27686e-08
1.7245e-05
5.40881e-08
1.72297e-05
4.66718e-08
1.72165e-05
4.03792e-08
1.7205e-05
3.50699e-08
1.7195e-05
3.06462e-08
1.71862e-05
2.67361e-08
1.71785e-05
2.34267e-08
1.71717e-05
2.06497e-08
1.71658e-05
1.81724e-08
1.71605e-05
1.60521e-08
1.71558e-05
1.42261e-08
1.71517e-05
1.26512e-08
1.7148e-05
1.1092e-08
1.71448e-05
9.81416e-09
1.71419e-05
8.77191e-09
1.71394e-05
7.74034e-09
1.71372e-05
6.75657e-09
1.71352e-05
5.83176e-09
1.71336e-05
4.93552e-09
1.71323e-05
4.05175e-09
1.71313e-05
3.11586e-09
1.71306e-05
2.14417e-09
1.71303e-05
1.11985e-09
1.71303e-05
-5.33148e-11
1.71308e-05
-1.40763e-09
1.71318e-05
-2.96692e-09
1.71335e-05
-4.71521e-09
1.71358e-05
-6.78935e-09
1.71389e-05
-9.11017e-09
1.71429e-05
-1.17933e-08
1.71479e-05
-1.49053e-08
1.71542e-05
-1.84939e-08
1.71619e-05
-2.2653e-08
1.71711e-05
-2.73081e-08
1.71821e-05
-3.26474e-08
1.71951e-05
-3.86597e-08
1.72104e-05
-4.54587e-08
1.72283e-05
-5.30486e-08
1.7249e-05
-6.15742e-08
1.72729e-05
-7.11133e-08
1.73004e-05
-8.18055e-08
1.73319e-05
-9.37374e-08
1.7368e-05
-1.07195e-07
1.73946e-05
-7.95143e-08
1.74229e-05
-8.47766e-08
1.74529e-05
-8.98657e-08
1.74847e-05
-9.52169e-08
1.75183e-05
-1.00726e-07
1.75537e-05
-1.0599e-07
1.75911e-05
-1.11873e-07
1.76303e-05
-1.17273e-07
1.76717e-05
-1.23735e-07
1.77151e-05
-1.29302e-07
1.7761e-05
-1.36974e-07
1.78088e-05
-1.4258e-07
1.78601e-05
-1.52676e-07
1.79131e-05
-1.57866e-07
1.79713e-05
-1.72454e-07
1.80306e-05
-1.76355e-07
1.80984e-05
-1.99898e-07
1.81661e-05
-2.008e-07
1.82492e-05
-2.44748e-07
1.83289e-05
-2.37675e-07
1.84418e-05
-3.38705e-07
1.85398e-05
-3.1015e-07
1.87356e-05
-6.69991e-07
1.8909e-05
-4.61174e-07
-3.47703e-06
1.91969e-05
2.64293e-05
1.76297e-06
2.60928e-05
6.43334e-06
2.5702e-05
3.02612e-06
2.51402e-05
2.61515e-06
2.46391e-05
1.99791e-06
2.42441e-05
1.47466e-06
2.39325e-05
1.12095e-06
2.3686e-05
8.67479e-07
2.34902e-05
6.79463e-07
2.3333e-05
5.40568e-07
2.32054e-05
4.36012e-07
2.31009e-05
3.55502e-07
2.30145e-05
2.92549e-07
2.29427e-05
2.42725e-07
2.28824e-05
2.03089e-07
2.28316e-05
1.70688e-07
2.27887e-05
1.441e-07
2.27521e-05
1.22667e-07
2.27208e-05
1.04663e-07
2.2694e-05
8.95805e-08
2.26709e-05
7.72172e-08
2.26509e-05
6.66657e-08
2.26336e-05
5.77058e-08
2.26185e-05
5.01367e-08
2.26053e-05
4.38187e-08
2.25938e-05
3.82507e-08
2.25837e-05
3.35245e-08
2.25748e-05
2.95512e-08
2.2567e-05
2.60166e-08
2.25601e-05
2.29862e-08
2.25539e-05
2.03733e-08
2.25485e-05
1.81197e-08
2.25436e-05
1.59071e-08
2.25394e-05
1.4072e-08
2.25356e-05
1.25673e-08
2.25322e-05
1.1094e-08
2.25293e-05
9.68797e-09
2.25268e-05
8.36291e-09
2.25246e-05
7.07779e-09
2.25229e-05
5.80869e-09
2.25215e-05
4.46783e-09
2.25206e-05
3.0701e-09
2.25201e-05
1.59286e-09
2.25202e-05
-9.15518e-11
2.25208e-05
-2.04068e-09
2.25221e-05
-4.27545e-09
2.25241e-05
-6.78151e-09
2.25271e-05
-9.76677e-09
2.25311e-05
-1.31109e-08
2.25362e-05
-1.69734e-08
2.25427e-05
-2.14487e-08
2.25508e-05
-2.65995e-08
2.25607e-05
-3.25655e-08
2.25726e-05
-3.92565e-08
2.25868e-05
-4.69167e-08
2.26035e-05
-5.55477e-08
2.26232e-05
-6.52925e-08
2.26462e-05
-7.61876e-08
2.26729e-05
-8.84007e-08
2.27037e-05
-1.02088e-07
2.27391e-05
-1.17391e-07
2.27796e-05
-1.34503e-07
2.2826e-05
-1.53741e-07
2.28601e-05
-1.13952e-07
2.28965e-05
-1.21449e-07
2.2935e-05
-1.28649e-07
2.29758e-05
-1.36199e-07
2.30188e-05
-1.4401e-07
2.30641e-05
-1.51472e-07
2.31118e-05
-1.59781e-07
2.31619e-05
-1.67396e-07
2.32147e-05
-1.76545e-07
2.32698e-05
-1.84323e-07
2.33282e-05
-1.95168e-07
2.33888e-05
-2.02872e-07
2.34537e-05
-2.1709e-07
2.35206e-05
-2.24021e-07
2.35937e-05
-2.44505e-07
2.36682e-05
-2.49306e-07
2.37528e-05
-2.82321e-07
2.38372e-05
-2.82321e-07
2.39395e-05
-3.43505e-07
2.40378e-05
-3.31521e-07
2.41741e-05
-4.69915e-07
2.42941e-05
-4.24267e-07
2.45141e-05
-8.83896e-07
2.47332e-05
-6.74938e-07
-3.69461e-06
2.49558e-05
3.30179e-05
-1.46191e-06
3.30986e-05
6.35262e-06
3.2921e-05
3.20369e-06
3.23846e-05
3.1515e-06
3.18325e-05
2.55002e-06
3.13698e-05
1.9374e-06
3.09923e-05
1.49849e-06
3.06874e-05
1.17236e-06
3.04422e-05
9.24665e-07
3.02436e-05
7.39111e-07
3.00815e-05
5.9818e-07
2.9948e-05
4.88963e-07
2.98374e-05
4.03163e-07
2.97451e-05
3.35018e-07
2.96675e-05
2.80654e-07
2.96021e-05
2.36152e-07
2.95466e-05
1.99564e-07
2.94993e-05
1.69993e-07
2.94588e-05
1.45163e-07
2.9424e-05
1.24333e-07
2.9394e-05
1.07219e-07
2.93681e-05
9.26252e-08
2.93456e-05
8.02228e-08
2.9326e-05
6.97321e-08
2.93089e-05
6.09584e-08
2.92939e-05
5.32466e-08
2.92807e-05
4.66836e-08
2.92691e-05
4.11555e-08
2.92589e-05
3.62494e-08
2.92498e-05
3.20361e-08
2.92418e-05
2.83995e-08
2.92347e-05
2.5262e-08
2.92284e-05
2.2207e-08
2.92228e-05
1.96459e-08
2.92179e-05
1.75342e-08
2.92135e-05
1.54868e-08
2.92096e-05
1.35338e-08
2.92063e-05
1.16899e-08
2.92035e-05
9.90116e-09
2.92012e-05
8.13341e-09
2.91994e-05
6.2714e-09
2.91981e-05
4.32527e-09
2.91974e-05
2.26437e-09
2.91974e-05
-7.48295e-11
2.91981e-05
-2.78255e-09
2.91997e-05
-5.88106e-09
2.92023e-05
-9.35422e-09
2.9206e-05
-1.34916e-08
2.9211e-05
-1.81379e-08
2.92175e-05
-2.35052e-08
2.92257e-05
-2.97124e-08
2.92359e-05
-3.68459e-08
2.92484e-05
-4.50998e-08
2.92634e-05
-5.43721e-08
2.92814e-05
-6.49725e-08
2.93026e-05
-7.69187e-08
2.93275e-05
-9.03882e-08
2.93566e-05
-1.05462e-07
2.93903e-05
-1.22332e-07
2.94293e-05
-1.41255e-07
2.9474e-05
-1.62367e-07
2.95252e-05
-1.86003e-07
2.95837e-05
-2.12505e-07
2.96268e-05
-1.57386e-07
2.96728e-05
-1.67687e-07
2.97213e-05
-1.77523e-07
2.97726e-05
-1.87789e-07
2.98267e-05
-1.98435e-07
2.98836e-05
-2.08614e-07
2.99435e-05
-2.19896e-07
3.00063e-05
-2.3023e-07
3.00723e-05
-2.42645e-07
3.01413e-05
-2.53125e-07
3.02141e-05
-2.67774e-07
3.02897e-05
-2.78053e-07
3.03703e-05
-2.97109e-07
3.04534e-05
-3.06248e-07
3.05436e-05
-3.33511e-07
3.06358e-05
-3.39626e-07
3.07393e-05
-3.8339e-07
3.08431e-05
-3.82725e-07
3.09671e-05
-4.6334e-07
3.1087e-05
-4.46317e-07
3.12483e-05
-6.25365e-07
3.13959e-05
-5.65197e-07
3.16372e-05
-1.11825e-06
3.19057e-05
-9.3752e-07
-3.8676e-06
3.20844e-05
4.10041e-05
-5.91353e-06
4.15842e-05
5.77257e-06
4.17184e-05
3.06943e-06
4.12801e-05
3.58984e-06
4.07131e-05
3.11698e-06
4.01953e-05
2.45526e-06
3.97523e-05
1.94143e-06
3.93843e-05
1.54033e-06
3.90831e-05
1.22589e-06
3.88363e-05
9.85905e-07
3.86331e-05
8.01437e-07
3.84648e-05
6.57261e-07
3.83246e-05
5.433e-07
3.82073e-05
4.52366e-07
3.81084e-05
3.79559e-07
3.80247e-05
3.19838e-07
3.79537e-05
2.70619e-07
3.78929e-05
2.30721e-07
3.78409e-05
1.97216e-07
3.77962e-05
1.69067e-07
3.77575e-05
1.4588e-07
3.7724e-05
1.26117e-07
3.76949e-05
1.09307e-07
3.76696e-05
9.50682e-08
3.76474e-05
8.31343e-08
3.7628e-05
7.2669e-08
3.7611e-05
6.37413e-08
3.75959e-05
5.62066e-08
3.75827e-05
4.95321e-08
3.75709e-05
4.37904e-08
3.75605e-05
3.88303e-08
3.75512e-05
3.45485e-08
3.7543e-05
3.04124e-08
3.75358e-05
2.69128e-08
3.75293e-05
2.40091e-08
3.75236e-05
2.12195e-08
3.75185e-05
1.85622e-08
3.75142e-05
1.60503e-08
3.75105e-05
1.36139e-08
3.75074e-05
1.12058e-08
3.7505e-05
8.67876e-09
3.75033e-05
6.03361e-09
3.75023e-05
3.2282e-09
3.75022e-05
5.84588e-11
3.7503e-05
-3.6053e-09
3.75049e-05
-7.79375e-09
3.7508e-05
-1.24883e-08
3.75125e-05
-1.80662e-08
3.75187e-05
-2.43469e-08
3.75268e-05
-3.16055e-08
3.7537e-05
-3.99837e-08
3.75497e-05
-4.96019e-08
3.75652e-05
-6.07134e-08
3.75839e-05
-7.32159e-08
3.76063e-05
-8.74904e-08
3.76328e-05
-1.03575e-07
3.76639e-05
-1.21691e-07
3.77002e-05
-1.41973e-07
3.77422e-05
-1.64644e-07
3.77908e-05
-1.90079e-07
3.78465e-05
-2.18412e-07
3.79103e-05
-2.50145e-07
3.79831e-05
-2.85658e-07
3.80367e-05
-2.114e-07
3.80938e-05
-2.25163e-07
3.81541e-05
-2.38249e-07
3.82178e-05
-2.51831e-07
3.82848e-05
-2.65918e-07
3.83554e-05
-2.7941e-07
3.84295e-05
-2.94274e-07
3.85071e-05
-3.07921e-07
3.85886e-05
-3.24227e-07
3.86737e-05
-3.37989e-07
3.87633e-05
-3.57102e-07
3.88563e-05
-3.70541e-07
3.8955e-05
-3.95144e-07
3.90569e-05
-4.07105e-07
3.91668e-05
-4.41998e-07
3.92794e-05
-4.50053e-07
3.94046e-05
-5.05707e-07
3.95308e-05
-5.05048e-07
3.96791e-05
-6.06751e-07
3.98246e-05
-5.85889e-07
4.00125e-05
-8.06684e-07
4.0194e-05
-7.39122e-07
4.04558e-05
-1.37224e-06
4.07705e-05
-1.24563e-06
-4.01559e-06
4.09247e-05
5.07219e-05
-1.18132e-05
5.1893e-05
4.60149e-06
5.24421e-05
2.52037e-06
5.21915e-05
3.8404e-06
5.1667e-05
3.64146e-06
5.11225e-05
2.99978e-06
5.06245e-05
2.43948e-06
5.0194e-05
1.97078e-06
4.98328e-05
1.5871e-06
4.95319e-05
1.28675e-06
4.92813e-05
1.05209e-06
4.9072e-05
8.66571e-07
4.88966e-05
7.18711e-07
4.8749e-05
5.9999e-07
4.8624e-05
5.04472e-07
4.8518e-05
4.25887e-07
4.84277e-05
3.60926e-07
4.83503e-05
3.08077e-07
4.82839e-05
2.63662e-07
4.82267e-05
2.26285e-07
4.81772e-05
1.95405e-07
4.81342e-05
1.69084e-07
4.80969e-05
1.46675e-07
4.80643e-05
1.27665e-07
4.80357e-05
1.11692e-07
4.80107e-05
9.77128e-08
4.79887e-05
8.57597e-08
4.79693e-05
7.56508e-08
4.79521e-05
6.67091e-08
4.79369e-05
5.90033e-08
4.79234e-05
5.23406e-08
4.79114e-05
4.65836e-08
4.79007e-05
4.10666e-08
4.78913e-05
3.63604e-08
4.78829e-05
3.24288e-08
4.78754e-05
2.86831e-08
4.78689e-05
2.51228e-08
4.78632e-05
2.17554e-08
4.78583e-05
1.84911e-08
4.78542e-05
1.52653e-08
4.7851e-05
1.18953e-08
4.78487e-05
8.36613e-09
4.78473e-05
4.61864e-09
4.78469e-05
4.03368e-10
4.78477e-05
-4.45455e-09
4.78499e-05
-1.00029e-08
4.78536e-05
-1.62246e-08
4.78591e-05
-2.35878e-08
4.78666e-05
-3.18989e-08
4.78765e-05
-4.1506e-08
4.7889e-05
-5.25754e-08
4.79046e-05
-6.52716e-08
4.79237e-05
-7.99123e-08
4.79467e-05
-9.64137e-08
4.79743e-05
-1.15226e-07
4.80069e-05
-1.36416e-07
4.80452e-05
-1.60263e-07
4.80899e-05
-1.86961e-07
4.81417e-05
-2.16777e-07
4.82015e-05
-2.50213e-07
4.82701e-05
-2.87419e-07
4.83486e-05
-3.29078e-07
4.84382e-05
-3.75655e-07
4.8504e-05
-2.77787e-07
4.85741e-05
-2.95763e-07
4.86482e-05
-3.12807e-07
4.87263e-05
-3.30403e-07
4.88085e-05
-3.4862e-07
4.88949e-05
-3.66107e-07
4.89855e-05
-3.8524e-07
4.90804e-05
-4.02878e-07
4.91799e-05
-4.23765e-07
4.92836e-05
-4.41485e-07
4.93926e-05
-4.65775e-07
4.95057e-05
-4.83063e-07
4.96253e-05
-5.13961e-07
4.9749e-05
-5.29482e-07
4.98815e-05
-5.72845e-07
5.00177e-05
-5.83731e-07
5.01676e-05
-6.52226e-07
5.03199e-05
-6.52859e-07
5.04952e-05
-7.76556e-07
5.06709e-05
-7.54798e-07
5.08876e-05
-1.01585e-06
5.11087e-05
-9.51853e-07
5.13925e-05
-1.64741e-06
5.1748e-05
-1.59395e-06
-4.14817e-06
5.18872e-05
6.25777e-05
-1.94258e-05
6.4446e-05
2.73319e-06
6.55162e-05
1.45019e-06
6.55552e-05
3.80135e-06
6.51519e-05
4.04477e-06
6.46298e-05
3.52189e-06
6.4102e-05
2.96726e-06
6.36193e-05
2.45345e-06
6.31999e-05
2.00652e-06
6.28424e-05
1.64426e-06
6.25397e-05
1.35483e-06
6.22839e-05
1.12239e-06
6.20675e-05
9.35028e-07
6.18842e-05
7.83312e-07
6.17283e-05
6.60446e-07
6.15952e-05
5.58916e-07
6.14815e-05
4.74659e-07
6.13838e-05
4.05805e-07
6.12996e-05
3.47845e-07
6.12269e-05
2.98968e-07
6.11639e-05
2.58445e-07
6.11091e-05
2.23886e-07
6.10614e-05
1.94427e-07
6.10197e-05
1.69392e-07
6.09831e-05
1.48298e-07
6.09509e-05
1.29864e-07
6.09227e-05
1.14067e-07
6.08976e-05
1.00676e-07
6.08755e-05
8.88443e-08
6.08559e-05
7.8629e-08
6.08385e-05
6.97872e-08
6.08229e-05
6.21367e-08
6.08092e-05
5.48631e-08
6.07969e-05
4.86145e-08
6.0786e-05
4.33553e-08
6.07763e-05
3.8382e-08
6.07678e-05
3.3669e-08
6.07603e-05
2.92109e-08
6.07539e-05
2.48932e-08
6.07486e-05
2.06287e-08
6.07443e-05
1.61956e-08
6.07411e-05
1.15556e-08
6.0739e-05
6.62407e-09
6.07383e-05
1.10079e-09
6.07391e-05
-5.23825e-09
6.07415e-05
-1.24671e-08
6.07458e-05
-2.05808e-08
6.07523e-05
-3.01396e-08
6.07613e-05
-4.09508e-08
6.07732e-05
-5.34462e-08
6.07884e-05
-6.78203e-08
6.08073e-05
-8.42934e-08
6.08305e-05
-1.03251e-07
6.08586e-05
-1.24653e-07
6.08921e-05
-1.49011e-07
6.09319e-05
-1.76441e-07
6.09786e-05
-2.07285e-07
6.1033e-05
-2.41807e-07
6.10961e-05
-2.80333e-07
6.11689e-05
-3.23505e-07
6.12525e-05
-3.71502e-07
6.13481e-05
-4.25208e-07
6.14572e-05
-4.8524e-07
6.15373e-05
-3.58565e-07
6.16225e-05
-3.81601e-07
6.17125e-05
-4.03419e-07
6.18074e-05
-4.25826e-07
6.19072e-05
-4.48967e-07
6.20119e-05
-4.71223e-07
6.21217e-05
-4.95404e-07
6.22365e-05
-5.17804e-07
6.23567e-05
-5.44046e-07
6.2482e-05
-5.66502e-07
6.26133e-05
-5.96753e-07
6.27497e-05
-6.187e-07
6.28933e-05
-6.5669e-07
6.3042e-05
-6.7669e-07
6.32005e-05
-7.29313e-07
6.33639e-05
-7.4427e-07
6.35419e-05
-8.26299e-07
6.37244e-05
-8.30295e-07
6.39301e-05
-9.75986e-07
6.4141e-05
-9.58146e-07
6.4389e-05
-1.2555e-06
6.46548e-05
-1.20839e-06
6.49629e-05
-1.94612e-06
6.53546e-05
-1.97805e-06
-4.26985e-06
6.54831e-05
7.70701e-05
-2.90589e-05
7.97617e-05
4.15386e-08
8.14643e-05
-2.52336e-07
8.19017e-05
3.36386e-06
8.17163e-05
4.23023e-06
8.12884e-05
3.94976e-06
8.07765e-05
3.47915e-06
8.02669e-05
2.96303e-06
7.98013e-05
2.47215e-06
7.93911e-05
2.05444e-06
7.90357e-05
1.71025e-06
7.87303e-05
1.42778e-06
7.84688e-05
1.19654e-06
7.8245e-05
1.0071e-06
7.80531e-05
8.52317e-07
7.78885e-05
7.236e-07
7.77469e-05
6.1622e-07
7.76248e-05
5.27974e-07
7.75191e-05
4.53481e-07
7.74276e-05
3.90495e-07
7.7348e-05
3.38057e-07
7.72787e-05
2.93274e-07
7.72181e-05
2.5504e-07
7.7165e-05
2.2248e-07
7.71184e-05
1.94954e-07
7.70773e-05
1.70922e-07
7.70411e-05
1.50282e-07
7.70091e-05
1.32741e-07
7.69807e-05
1.1725e-07
7.69555e-05
1.0385e-07
7.69331e-05
9.22371e-08
7.69131e-05
8.21692e-08
7.68953e-05
7.26724e-08
7.68794e-05
6.44646e-08
7.68653e-05
5.75007e-08
7.68527e-05
5.09576e-08
7.68416e-05
4.47788e-08
7.68319e-05
3.89369e-08
7.68235e-05
3.32852e-08
7.68165e-05
2.77071e-08
7.68107e-05
2.19399e-08
7.68063e-05
1.59118e-08
7.68034e-05
9.50095e-09
7.68022e-05
2.35035e-09
7.68027e-05
-5.81496e-09
7.68053e-05
-1.5104e-08
7.68102e-05
-2.55427e-08
7.68178e-05
-3.77829e-08
7.68284e-05
-5.1648e-08
7.68426e-05
-6.76661e-08
7.68607e-05
-8.60646e-08
7.68834e-05
-1.07136e-07
7.69113e-05
-1.31329e-07
7.69451e-05
-1.58684e-07
7.69856e-05
-1.89761e-07
7.70335e-05
-2.2475e-07
7.70899e-05
-2.64062e-07
7.71556e-05
-3.08047e-07
7.72318e-05
-3.57088e-07
7.73197e-05
-4.12011e-07
7.74206e-05
-4.7301e-07
7.75359e-05
-5.41222e-07
7.76675e-05
-6.17463e-07
7.77642e-05
-4.55991e-07
7.78668e-05
-4.85042e-07
7.79752e-05
-5.12575e-07
7.80894e-05
-5.40694e-07
7.82095e-05
-5.69674e-07
7.83354e-05
-5.97588e-07
7.84672e-05
-6.27701e-07
7.86051e-05
-6.55743e-07
7.87491e-05
-6.88208e-07
7.88993e-05
-7.16301e-07
7.90563e-05
-7.53371e-07
7.92194e-05
-7.80957e-07
7.93906e-05
-8.26863e-07
7.95682e-05
-8.52514e-07
7.97563e-05
-9.15115e-07
7.99511e-05
-9.35795e-07
8.01609e-05
-1.03177e-06
8.03784e-05
-1.04206e-06
8.06182e-05
-1.2088e-06
8.08697e-05
-1.20139e-06
8.11525e-05
-1.52905e-06
8.14669e-05
-1.51293e-06
8.18007e-05
-2.27003e-06
8.22247e-05
-2.39404e-06
-4.38716e-06
8.23486e-05
9.48148e-05
-4.10585e-05
9.84808e-05
-3.62451e-06
0.000100935
-2.70701e-06
0.000101884
2.41528e-06
0.000102025
4.08892e-06
0.000101785
4.19042e-06
0.000101358
3.90629e-06
0.000100867
3.45381e-06
0.000100383
2.95624e-06
9.99352e-05
2.50198e-06
9.95343e-05
2.11106e-06
9.91816e-05
1.78049e-06
9.88742e-05
1.50398e-06