/*--------------------------------*- C++ -*----------------------------------*\
| =========                 |                                                 |
| \\      /  F ield         | OpenFOAM: The Open Source CFD Toolbox           |
|  \\    /   O peration     | Version:  2306                                  |
|   \\  /    A nd           | Website:  www.openfoam.com                      |
|    \\/     M anipulation  |                                                 |
\*---------------------------------------------------------------------------*/
FoamFile
{
    version     2.0;
    format      ascii;
    arch        "LSB;label=32;scalar=64";
    class       volSymmTensorField;
    location    "1900";
    object      turbulenceProperties:devReff;
}
// * * * * * * * * * * * * * * * * * * * * * * * * * * * * * * * * * * * * * //

dimensions      [0 2 -2 0 0 0 0];

internalField   nonuniform List<symmTensor> 
20540
(
(6.40999 -14.9675 -0 -6.27617 -0 -0.13382)
(26.3673 -29.3836 -0 -25.1458 -0 -1.22155)
(4.37005 -24.197 -0 -4.4229 -0 0.0528492)
(12.3869 -50.2688 -0 -13.1006 -0 0.713719)
(3.75101 -26.6715 -0 -3.80232 -0 0.051311)
(6.34368 -55.616 -0 -6.64462 -0 0.300946)
(3.38586 -27.8356 -0 -3.37171 -0 -0.0141503)
(3.30627 -58.4282 -0 -3.19608 -0 -0.110184)
(3.19038 -28.5034 -0 -3.18102 -0 -0.00936481)
(1.90253 -60.367 -0 -1.83305 -0 -0.0694744)
(3.04849 -28.9069 -0 -3.04729 -0 -0.00119777)
(1.07066 -61.8878 -0 -1.05774 -0 -0.0129202)
(2.93336 -29.109 -0 -2.93392 -0 0.000553236)
(0.494372 -63.0831 -0 -0.494769 -0 0.000397333)
(2.83955 -29.1321 -0 -2.83978 -0 0.0002275)
(0.0853799 -63.9985 -0 -0.0850463 -0 -0.000333681)
(2.76203 -28.9867 -0 -2.76204 -0 5.58852e-06)
(-0.200411 -64.6761 -0 0.20149 -0 -0.00107905)
(2.69494 -28.6763 -0 -2.69493 -0 -7.10349e-06)
(-0.392525 -65.1497 -0 0.393394 -0 -0.000868542)
(2.63269 -28.1988 -0 -2.63271 -0 1.1662e-05)
(-0.508197 -65.4422 -0 0.508784 -0 -0.000586173)
(2.57002 -27.5474 -0 -2.57003 -0 1.2143e-05)
(-0.556135 -65.5659 -0 0.556569 -0 -0.000433995)
(2.50159 -26.7122 -0 -2.50158 -0 -4.17729e-06)
(-0.540216 -65.5226 -0 0.540545 -0 -0.000328815)
(2.42181 -25.6805 -0 -2.42177 -0 -4.37111e-05)
(-0.461774 -65.3027 -0 0.461977 -0 -0.000202898)
(2.32483 -24.4387 -0 -2.3247 -0 -0.000125029)
(-0.321075 -64.8845 -0 0.321089 -0 -1.45821e-05)
(2.20475 -22.9738 -0 -2.2045 -0 -0.000246668)
(-0.118603 -64.2312 -0 0.118317 -0 0.000285655)
(2.05643 -21.2751 -0 -2.0561 -0 -0.000328344)
(0.143448 -63.2865 -0 -0.144186 -0 0.000738002)
(1.87674 -19.3383 -0 -1.87642 -0 -0.000320937)
(0.459114 -61.969 -0 -0.460476 -0 0.00136216)
(1.66612 -17.1767 -0 -1.66561 -0 -0.000513625)
(0.815786 -60.1546 -0 -0.81804 -0 0.00225476)
(1.42797 -14.8208 -0 -1.42684 -0 -0.00113017)
(1.19092 -57.6753 -0 -1.1947 -0 0.00378441)
(1.16751 -12.2928 -0 -1.16619 -0 -0.00132284)
(1.54953 -54.3335 -0 -1.55597 -0 0.00643169)
(0.89988 -9.63536 -0 -0.900542 -0 0.000661778)
(1.83964 -49.868 -0 -1.84901 -0 0.00937202)
(0.65177 -6.91945 -0 -0.655498 -0 0.00372809)
(1.98699 -43.9969 -0 -1.99584 -0 0.00884719)
(0.446471 -4.32392 -0 -0.443621 -0 -0.00284998)
(1.90079 -36.5467 -0 -1.90535 -0 0.00455854)
(0.268931 -2.08611 -0 -0.251752 -0 -0.0171788)
(1.52898 -27.6954 -0 -1.54515 -0 0.0161736)
(-0.0976469 0.551095 -0 0.107944 -0 -0.010297)
(0.956335 -17.9848 -0 -0.998795 -0 0.0424607)
(-0.411514 1.88323 -0 0.411746 -0 -0.000231342)
(0.366301 -8.77913 -0 -0.386747 -0 0.0204469)
(-0.607022 2.17229 -0 0.618519 -0 -0.0114966)
(-0.0822562 -3.3386 -0 0.0757558 -0 0.0065004)
(-0.805156 1.87166 -0 0.828536 -0 -0.02338)
(-0.749372 -0.535726 -0 0.695603 -0 0.0537694)
(-1.04714 1.22768 -0 1.06625 -0 -0.0191042)
(-1.06519 0.703577 -0 0.997065 -0 0.0681296)
(-1.23523 0.591685 -0 1.25411 -0 -0.0188822)
(-1.1955 0.643202 -0 1.14064 -0 0.0548555)
(-1.29871 0.166131 -0 1.32645 -0 -0.0277356)
(-1.29529 0.250824 -0 1.23048 -0 0.0648065)
(-1.29735 -0.173703 -0 1.3252 -0 -0.0278529)
(-1.29486 -0.235962 -0 1.22994 -0 0.0649163)
(-1.23282 -0.589542 -0 1.25211 -0 -0.0192914)
(-1.19484 -0.620185 -0 1.14071 -0 0.0541331)
(-1.05413 -1.18597 -0 1.07292 -0 -0.0187825)
(-1.06656 -0.675156 -0 1.00003 -0 0.066539)
(-0.824885 -1.78956 -0 0.847814 -0 -0.0229291)
(-0.775974 0.44228 -0 0.721526 -0 0.0544479)
(-0.631362 -2.09004 -0 0.643615 -0 -0.0122532)
(-0.123718 3.03241 -0 0.117516 -0 0.00620236)
(-0.440039 -1.83503 -0 0.440234 -0 -0.000194616)
(0.292533 7.87305 -0 -0.309517 -0 0.0169838)
(-0.147262 -0.631772 -0 0.155469 -0 -0.00820709)
(0.836531 16.3824 -0 -0.877817 -0 0.0412861)
(0.230461 1.91648 -0 -0.212914 -0 -0.0175469)
(1.39391 25.692 -0 -1.41192 -0 0.0180119)
(0.412203 4.08297 -0 -0.40819 -0 -0.0040132)
(1.78159 34.3097 -0 -1.78657 -0 0.00497461)
(0.612468 6.60195 -0 -0.616002 -0 0.0035337)
(1.90364 41.7002 -0 -1.91247 -0 0.00883086)
(0.856949 9.277 -0 -0.857866 -0 0.000916641)
(1.79505 47.6083 -0 -1.80457 -0 0.00952439)
(1.12621 11.9262 -0 -1.12498 -0 -0.00122581)
(1.53764 52.1528 -0 -1.54436 -0 0.00671133)
(1.39369 14.4728 -0 -1.39254 -0 -0.00115178)
(1.2021 55.5866 -0 -1.20615 -0 0.00405687)
(1.64297 16.8718 -0 -1.6424 -0 -0.000562635)
(0.839596 58.1566 -0 -0.84209 -0 0.00249404)
(1.86726 19.1002 -0 -1.86685 -0 -0.000407114)
(0.485705 60.0512 -0 -0.487269 -0 0.00156404)
(2.06058 21.1158 -0 -2.06017 -0 -0.000407181)
(0.16409 61.4442 -0 -0.16498 -0 0.000889861)
(2.2214 22.9035 -0 -2.22112 -0 -0.000285751)
(-0.111695 62.4582 -0 0.11129 -0 0.000405628)
(2.35223 24.4643 -0 -2.35208 -0 -0.000144898)
(-0.334783 63.178 -0 0.33469 -0 9.34963e-05)
(2.45783 25.806 -0 -2.45777 -0 -5.75249e-05)
(-0.502244 63.662 -0 0.502348 -0 -0.00010355)
(2.54385 26.9395 -0 -2.54384 -0 -1.51662e-05)
(-0.613234 63.9508 -0 0.613469 -0 -0.000234101)
(2.61599 27.8773 -0 -2.61599 -0 4.44004e-06)
(-0.667677 64.0702 -0 0.668007 -0 -0.000329753)
(2.67966 28.6316 -0 -2.67967 -0 1.28183e-05)
(-0.665211 64.0343 -0 0.66563 -0 -0.000418427)
(2.73998 29.213 -0 -2.73999 -0 8.8829e-06)
(-0.604146 63.8471 -0 0.604706 -0 -0.000560372)
(2.80185 29.6296 -0 -2.80184 -0 -1.25537e-05)
(-0.480149 63.503 -0 0.480979 -0 -0.000830721)
(2.87022 29.8859 -0 -2.87022 -0 -3.73003e-06)
(-0.284082 62.9877 -0 0.285118 -0 -0.00103566)
(2.95048 29.9821 -0 -2.95069 -0 0.000214203)
(0.00156561 62.2768 -0 -0.00119797 -0 -0.000367634)
(3.0484 29.9122 -0 -3.04895 -0 0.000544295)
(0.406438 61.3354 -0 -0.406565 -0 0.00012717)
(3.16917 29.663 -0 -3.16798 -0 -0.00119494)
(0.975247 60.12 -0 -0.9623 -0 -0.0129467)
(3.31858 29.2079 -0 -3.30915 -0 -0.0094278)
(1.79825 58.5801 -0 -1.73176 -0 -0.066495)
(3.52411 28.4793 -0 -3.50971 -0 -0.0144004)
(3.18971 56.6169 -0 -3.08728 -0 -0.102432)
(3.90291 27.2406 -0 -3.95475 -0 0.0518406)
(6.17774 53.7933 -0 -6.46732 -0 0.289586)
(4.53759 24.6675 -0 -4.59142 -0 0.053828)
(12.0769 48.5319 -0 -12.7508 -0 0.673867)
(6.61039 15.1687 -0 -6.47601 -0 -0.134376)
(25.4176 28.1952 -0 -24.2671 -0 -1.15049)
(0.00979819 -16.9787 -0 -0.00987218 -0 7.39955e-05)
(0.00285351 -9.41955 -0 -0.002868 -0 1.44887e-05)
(0.000660388 -8.12364 -0 -0.000666299 -0 5.91153e-06)
(0.000383475 -7.40859 -0 -0.00038247 -0 -1.00516e-06)
(0.000246209 -6.96737 -0 -0.000244023 -0 -2.18637e-06)
(0.000169135 -6.68128 -0 -0.000167109 -0 -2.02608e-06)
(0.000124225 -6.48171 -0 -0.000122423 -0 -1.80226e-06)
(9.52318e-05 -6.33538 -0 -9.36745e-05 -0 -1.55725e-06)
(7.51069e-05 -6.225 -0 -7.37931e-05 -0 -1.31383e-06)
(6.06668e-05 -6.13968 -0 -5.95539e-05 -0 -1.11284e-06)
(4.99422e-05 -6.07234 -0 -4.89913e-05 -0 -9.50924e-07)
(4.17228e-05 -6.01835 -0 -4.09062e-05 -0 -8.1663e-07)
(3.5273e-05 -5.97452 -0 -3.45676e-05 -0 -7.05419e-07)
(3.01235e-05 -5.93858 -0 -2.95106e-05 -0 -6.12854e-07)
(2.5984e-05 -5.90882 -0 -2.5448e-05 -0 -5.35936e-07)
(2.25143e-05 -5.88393 -0 -2.20433e-05 -0 -4.7095e-07)
(1.96214e-05 -5.86315 -0 -1.92065e-05 -0 -4.14884e-07)
(1.72754e-05 -5.84556 -0 -1.69082e-05 -0 -3.6722e-07)
(1.52218e-05 -5.83059 -0 -1.48949e-05 -0 -3.26956e-07)
(1.34705e-05 -5.8179 -0 -1.31795e-05 -0 -2.9104e-07)
(1.20259e-05 -5.807 -0 -1.17655e-05 -0 -2.60391e-07)
(1.07356e-05 -5.7976 -0 -1.05017e-05 -0 -2.33872e-07)
(9.61435e-06 -5.78953 -0 -9.40411e-06 -0 -2.10236e-07)
(8.65086e-06 -5.78252 -0 -8.46153e-06 -0 -1.89333e-07)
(7.8404e-06 -5.77645 -0 -7.66928e-06 -0 -1.71119e-07)
(7.07433e-06 -5.7711 -0 -6.91915e-06 -0 -1.55175e-07)
(6.42754e-06 -5.76652 -0 -6.28679e-06 -0 -1.4075e-07)
(5.8816e-06 -5.76241 -0 -5.75396e-06 -0 -1.27635e-07)
(5.35979e-06 -5.75886 -0 -5.24342e-06 -0 -1.16371e-07)
(4.90964e-06 -5.75568 -0 -4.80314e-06 -0 -1.06503e-07)
(4.51558e-06 -5.75292 -0 -4.4185e-06 -0 -9.70709e-08)
(4.16614e-06 -5.75042 -0 -4.07731e-06 -0 -8.88286e-08)
(3.76558e-06 -5.74823 -0 -3.68398e-06 -0 -8.15964e-08)
(3.47246e-06 -5.74634 -0 -3.39874e-06 -0 -7.37194e-08)
(3.24424e-06 -5.74461 -0 -3.17718e-06 -0 -6.70619e-08)
(2.9719e-06 -5.74308 -0 -2.9107e-06 -0 -6.12048e-08)
(2.70186e-06 -5.74174 -0 -2.64704e-06 -0 -5.4825e-08)
(2.44139e-06 -5.74056 -0 -2.39334e-06 -0 -4.80474e-08)
(2.1755e-06 -5.73954 -0 -2.13488e-06 -0 -4.06212e-08)
(1.9011e-06 -5.73868 -0 -1.86862e-06 -0 -3.24744e-08)
(1.58301e-06 -5.73796 -0 -1.56019e-06 -0 -2.28272e-08)
(1.24442e-06 -5.73741 -0 -1.23357e-06 -0 -1.08548e-08)
(8.70231e-07 -5.737 -0 -8.73656e-07 -0 3.42533e-09)
(3.95309e-07 -5.73677 -0 -4.15776e-07 -0 2.04665e-08)
(-1.74298e-07 -5.73673 -0 1.30989e-07 -0 4.33088e-08)
(-9.36926e-07 -5.73691 -0 8.68586e-07 -0 6.83402e-08)
(-1.79149e-06 -5.73738 -0 1.69049e-06 -0 1.00995e-07)
(-2.78721e-06 -5.73809 -0 2.64074e-06 -0 1.46469e-07)
(-4.01875e-06 -5.73915 -0 3.82186e-06 -0 1.96886e-07)
(-5.54357e-06 -5.74055 -0 5.28577e-06 -0 2.57798e-07)
(-7.37553e-06 -5.7424 -0 7.04431e-06 -0 3.31222e-07)
(-9.62848e-06 -5.74471 -0 9.20954e-06 -0 4.18934e-07)
(-1.23656e-05 -5.74764 -0 1.1845e-05 -0 5.20601e-07)
(-1.55168e-05 -5.75118 -0 1.48786e-05 -0 6.38241e-07)
(-1.93599e-05 -5.75545 -0 1.85902e-05 -0 7.69619e-07)
(-2.38609e-05 -5.76057 -0 2.29353e-05 -0 9.25528e-07)
(-2.92218e-05 -5.76659 -0 2.81208e-05 -0 1.10096e-06)
(-3.54254e-05 -5.7737 -0 3.40948e-05 -0 1.33056e-06)
(-4.27815e-05 -5.78193 -0 4.12009e-05 -0 1.58065e-06)
(-5.12943e-05 -5.79154 -0 4.93552e-05 -0 1.93904e-06)
(-6.1384e-05 -5.80256 -0 5.90837e-05 -0 2.30034e-06)
(-7.30057e-05 -5.81531 -0 7.01625e-05 -0 2.84325e-06)
(-8.66138e-05 -5.82984 -0 8.32761e-05 -0 3.33767e-06)
(-0.00010027 -5.84374 -0 9.70649e-05 -0 3.20489e-06)
(-0.000112865 -5.85561 -0 0.000109343 -0 3.52269e-06)
(-0.000126759 -5.86837 -0 0.000122993 -0 3.76508e-06)
(-0.000141744 -5.88188 -0 0.000137141 -0 4.6037e-06)
(-0.00015771 -5.89635 -0 0.000152593 -0 5.11621e-06)
(-0.000174737 -5.91149 -0 0.000168506 -0 6.23054e-06)
(-0.000194599 -5.92764 -0 0.000187638 -0 6.96138e-06)
(-0.000215047 -5.94462 -0 0.000206446 -0 8.60162e-06)
(-0.000238821 -5.96256 -0 0.000228873 -0 9.94857e-06)
(-0.000264046 -5.98153 -0 0.000252004 -0 1.20426e-05)
(-0.000293433 -6.00149 -0 0.000279086 -0 1.43472e-05)
(-0.000325362 -6.02278 -0 0.000308861 -0 1.65013e-05)
(-0.000364353 -6.04504 -0 0.000343242 -0 2.11112e-05)
(-0.000406201 -6.06947 -0 0.00038368 -0 2.25217e-05)
(-0.000462412 -6.09441 -0 0.000427769 -0 3.46427e-05)
(-0.000520343 -6.12381 -0 0.000487862 -0 3.24811e-05)
(-0.000612589 -6.15181 -0 0.000547773 -0 6.48161e-05)
(-0.00068594 -6.19031 -0 0.000639684 -0 4.62563e-05)
(-0.000889862 -6.22011 -0 0.000762892 -0 0.00012697)
(-0.000912188 -6.27929 -0 0.000863353 -0 4.88351e-05)
(-0.00148798 -6.30088 -0 0.00123481 -0 0.000253169)
(-0.00163539 -6.41392 -0 0.0016578 -0 -2.24055e-05)
(-0.00434937 -6.42036 -0 0.00377273 -0 0.000576647)
(0.00508744 -6.74676 -0 -0.00363102 -0 -0.00145642)
(-0.181072 -6.11919 8.07431e-21 0.182648 -0 -0.00157606)
(0.00979077 -10.5131 -0 -0.00930066 -0 -0.000490118)
(0.00379389 -5.47047 -0 -0.00375693 -0 -3.69512e-05)
(0.00103579 -4.69639 -0 -0.00103518 -0 -6.13428e-07)
(0.000622373 -4.28461 -0 -0.000623317 -0 9.43994e-07)
(0.000407301 -4.03456 -0 -0.000408445 -0 1.14368e-06)
(0.000282375 -3.87333 -0 -0.000283412 -0 1.0376e-06)
(0.000208918 -3.76177 -0 -0.00020982 -0 9.02362e-07)
(0.000160923 -3.68036 -0 -0.000161669 -0 7.46013e-07)
(0.000127271 -3.6191 -0 -0.000127886 -0 6.15597e-07)
(0.00010302 -3.57182 -0 -0.000103536 -0 5.16682e-07)
(8.49503e-05 -3.53458 -0 -8.53867e-05 -0 4.36389e-07)
(7.10593e-05 -3.50476 -0 -7.14311e-05 -0 3.718e-07)
(6.01355e-05 -3.48057 -0 -6.04545e-05 -0 3.19035e-07)
(5.13992e-05 -3.46075 -0 -5.16754e-05 -0 2.76206e-07)
(4.43663e-05 -3.44434 -0 -4.46068e-05 -0 2.40497e-07)
(3.84729e-05 -3.43063 -0 -3.86842e-05 -0 2.113e-07)
(3.35501e-05 -3.4192 -0 -3.37359e-05 -0 1.85885e-07)
(2.95469e-05 -3.40951 -0 -2.97113e-05 -0 1.6441e-07)
(2.60531e-05 -3.40128 -0 -2.61998e-05 -0 1.46763e-07)
(2.30661e-05 -3.3943 -0 -2.3197e-05 -0 1.30929e-07)
(2.05953e-05 -3.3883 -0 -2.07126e-05 -0 1.17317e-07)
(1.83958e-05 -3.38314 -0 -1.85019e-05 -0 1.06061e-07)
(1.64818e-05 -3.3787 -0 -1.65775e-05 -0 9.57836e-08)
(1.48332e-05 -3.37485 -0 -1.492e-05 -0 8.67771e-08)
(1.34437e-05 -3.37152 -0 -1.35226e-05 -0 7.89499e-08)
(1.21385e-05 -3.36858 -0 -1.22108e-05 -0 7.22346e-08)
(1.10295e-05 -3.36606 -0 -1.10957e-05 -0 6.62072e-08)
(1.00905e-05 -3.3638 -0 -1.01509e-05 -0 6.03571e-08)
(9.19869e-06 -3.36185 -0 -9.25417e-06 -0 5.54841e-08)
(8.42677e-06 -3.3601 -0 -8.47812e-06 -0 5.13495e-08)
(7.74999e-06 -3.35858 -0 -7.79729e-06 -0 4.72987e-08)
(7.14989e-06 -3.35721 -0 -7.19308e-06 -0 4.31891e-08)
(6.47195e-06 -3.35601 -0 -6.51184e-06 -0 3.98895e-08)
(5.96017e-06 -3.35497 -0 -5.99614e-06 -0 3.59751e-08)
(5.55707e-06 -3.35401 -0 -5.58909e-06 -0 3.20255e-08)
(5.08868e-06 -3.35317 -0 -5.11717e-06 -0 2.84903e-08)
(4.61954e-06 -3.35242 -0 -4.64367e-06 -0 2.41375e-08)
(4.16178e-06 -3.35177 -0 -4.18079e-06 -0 1.90124e-08)
(3.6904e-06 -3.3512 -0 -3.70358e-06 -0 1.31846e-08)
(3.19849e-06 -3.35071 -0 -3.20443e-06 -0 5.94457e-09)
(2.62637e-06 -3.35029 -0 -2.62344e-06 -0 -2.9286e-09)
(2.00509e-06 -3.34996 -0 -1.99093e-06 -0 -1.41543e-08)
(1.31038e-06 -3.3497 -0 -1.28215e-06 -0 -2.82265e-08)
(4.33091e-07 -3.34953 -0 -3.87196e-07 -0 -4.58953e-08)
(-6.31343e-07 -3.34945 -0 6.99073e-07 -0 -6.77303e-08)
(-2.01442e-06 -3.34947 -0 2.10773e-06 -0 -9.33041e-08)
(-3.60881e-06 -3.34963 -0 3.73727e-06 -0 -1.28456e-07)
(-5.51704e-06 -3.3499 -0 5.69092e-06 -0 -1.73885e-07)
(-7.83199e-06 -3.35033 -0 8.05911e-06 -0 -2.27121e-07)
(-1.06836e-05 -3.35091 -0 1.09732e-05 -0 -2.89556e-07)
(-1.41297e-05 -3.35171 -0 1.45009e-05 -0 -3.71191e-07)
(-1.8344e-05 -3.3527 -0 1.88129e-05 -0 -4.68938e-07)
(-2.34602e-05 -3.35398 -0 2.40525e-05 -0 -5.92233e-07)
(-2.93958e-05 -3.35554 -0 3.01384e-05 -0 -7.42601e-07)
(-3.6589e-05 -3.35742 -0 3.75171e-05 -0 -9.28135e-07)
(-4.50378e-05 -3.35969 -0 4.61785e-05 -0 -1.14074e-06)
(-5.50813e-05 -3.36235 -0 5.64884e-05 -0 -1.40711e-06)
(-6.67595e-05 -3.36551 -0 6.84486e-05 -0 -1.68911e-06)
(-8.05524e-05 -3.36916 -0 8.2607e-05 -0 -2.05458e-06)
(-9.66072e-05 -3.37342 -0 9.90252e-05 -0 -2.41806e-06)
(-0.000115513 -3.37828 -0 0.000118428 -0 -2.91575e-06)
(-0.000137475 -3.38392 -0 0.000140858 -0 -3.38344e-06)
(-0.000163197 -3.3903 -0 0.000167329 -0 -4.13174e-06)
(-0.000188645 -3.39641 -0 0.00019379 -0 -5.14431e-06)
(-0.000212239 -3.40162 -0 0.000217944 -0 -5.70427e-06)
(-0.000237468 -3.40724 -0 0.000243792 -0 -6.32416e-06)
(-0.000265564 -3.41308 -0 0.000272439 -0 -6.87481e-06)
(-0.00029547 -3.41936 -0 0.000303052 -0 -7.5819e-06)
(-0.000327839 -3.42585 -0 0.000335961 -0 -8.12263e-06)
(-0.000364534 -3.43277 -0 0.000373337 -0 -8.80373e-06)
(-0.000403262 -3.43996 -0 0.000412543 -0 -9.28101e-06)
(-0.000447608 -3.44753 -0 0.000457476 -0 -9.86808e-06)
(-0.000494754 -3.45542 -0 0.00050496 -0 -1.02057e-05)
(-0.000550972 -3.46372 -0 0.000561516 -0 -1.05441e-05)
(-0.000609162 -3.47238 -0 0.000619959 -0 -1.07967e-05)
(-0.000686211 -3.48152 -0 0.000696177 -0 -9.96602e-06)
(-0.000758146 -3.49114 -0 0.000768747 -0 -1.0601e-05)
(-0.000874028 -3.50118 -0 0.000879159 -0 -5.13075e-06)
(-0.00096166 -3.51221 -0 0.000970279 -0 -8.61949e-06)
(-0.00115849 -3.52318 -0 0.00114847 -0 1.00197e-05)
(-0.00124502 -3.53666 -0 0.00125322 -0 -8.20287e-06)
(-0.00166175 -3.54776 -0 0.00161559 -0 4.61588e-05)
(-0.00162682 -3.56718 -0 0.00165964 -0 -3.28212e-05)
(-0.00269966 -3.57207 -0 0.00257406 -0 0.000125598)
(-0.00259651 -3.60974 -0 0.00270307 -0 -0.000106558)
(-0.00712186 -3.60028 -0 0.00685801 -0 0.000263845)
(0.00144494 -3.68685 -0 -0.000438058 -0 -0.00100689)
(-0.0905067 -3.69629 -7.89739e-21 0.0806852 -0 0.00982149)
(0.0116504 -11.5118 -0 -0.0122796 -0 0.000629147)
(0.00575549 -6.36174 -0 -0.00581138 -0 5.58888e-05)
(0.00190553 -5.5057 -0 -0.00192368 -0 1.81539e-05)
(0.00122238 -5.03161 -0 -0.00123388 -0 1.15085e-05)
(0.000824293 -4.73729 -0 -0.000832053 -0 7.76012e-06)
(0.000579356 -4.5449 -0 -0.000584899 -0 5.54228e-06)
(0.000432921 -4.41084 -0 -0.000437062 -0 4.14088e-06)
(0.000335468 -4.31255 -0 -0.00033866 -0 3.19177e-06)
(0.000266179 -4.2383 -0 -0.000268711 -0 2.53143e-06)
(0.000215965 -4.18086 -0 -0.00021802 -0 2.05513e-06)
(0.000178401 -4.13552 -0 -0.000180097 -0 1.69603e-06)
(0.000149418 -4.09917 -0 -0.000150838 -0 1.41994e-06)
(0.000126574 -4.06965 -0 -0.000127776 -0 1.20267e-06)
(0.000108272 -4.04543 -0 -0.0001093 -0 1.02879e-06)
(9.35166e-05 -4.02539 -0 -9.44053e-05 -0 8.88651e-07)
(8.11629e-05 -4.00861 -0 -8.19348e-05 -0 7.71912e-07)
(7.08214e-05 -3.99462 -0 -7.14953e-05 -0 6.73869e-07)
(6.23847e-05 -3.98276 -0 -6.29786e-05 -0 5.93977e-07)
(5.5052e-05 -3.97268 -0 -5.55772e-05 -0 5.25146e-07)
(4.87648e-05 -3.96413 -0 -4.92306e-05 -0 4.65799e-07)
(4.35452e-05 -3.95678 -0 -4.39619e-05 -0 4.16626e-07)
(3.89208e-05 -3.95045 -0 -3.92942e-05 -0 3.7346e-07)
(3.48896e-05 -3.94501 -0 -3.52254e-05 -0 3.35732e-07)
(3.14077e-05 -3.94029 -0 -3.17108e-05 -0 3.03098e-07)
(2.84638e-05 -3.9362 -0 -2.87394e-05 -0 2.7561e-07)
(2.57258e-05 -3.93259 -0 -2.59763e-05 -0 2.50558e-07)
(2.33747e-05 -3.92951 -0 -2.36029e-05 -0 2.28214e-07)
(2.13791e-05 -3.92674 -0 -2.15888e-05 -0 2.09669e-07)
(1.95019e-05 -3.92434 -0 -1.96947e-05 -0 1.9273e-07)
(1.78648e-05 -3.9222 -0 -1.8042e-05 -0 1.77109e-07)
(1.64274e-05 -3.92033 -0 -1.65907e-05 -0 1.63276e-07)
(1.51572e-05 -3.91865 -0 -1.53088e-05 -0 1.51583e-07)
(1.37488e-05 -3.91717 -0 -1.38874e-05 -0 1.38594e-07)
(1.26355e-05 -3.91589 -0 -1.27626e-05 -0 1.27033e-07)
(1.17468e-05 -3.91472 -0 -1.18642e-05 -0 1.1737e-07)
(1.07509e-05 -3.91368 -0 -1.08584e-05 -0 1.07529e-07)
(9.73902e-06 -3.91276 -0 -9.83591e-06 -0 9.68911e-08)
(8.73537e-06 -3.91195 -0 -8.8208e-06 -0 8.54357e-08)
(7.69064e-06 -3.91125 -0 -7.76432e-06 -0 7.36713e-08)
(6.58401e-06 -3.91063 -0 -6.64422e-06 -0 6.02162e-08)
(5.29268e-06 -3.91011 -0 -5.33755e-06 -0 4.48753e-08)
(3.85473e-06 -3.90969 -0 -3.88226e-06 -0 2.75247e-08)
(2.22498e-06 -3.90935 -0 -2.23181e-06 -0 6.82794e-09)
(1.80107e-07 -3.90911 -0 -1.61378e-07 -0 -1.87292e-08)
(-2.33818e-06 -3.90898 -0 2.38762e-06 -0 -4.94381e-08)
(-5.49734e-06 -3.90896 -0 5.58442e-06 -0 -8.70804e-08)
(-9.25189e-06 -3.9091 -0 9.38572e-06 -0 -1.33836e-07)
(-1.38815e-05 -3.90936 -0 1.4073e-05 -0 -1.91441e-07)
(-1.93921e-05 -3.9098 -0 1.96527e-05 -0 -2.60546e-07)
(-2.61464e-05 -3.91041 -0 2.64889e-05 -0 -3.42511e-07)
(-3.43575e-05 -3.91126 -0 3.4806e-05 -0 -4.48564e-07)
(-4.43418e-05 -3.91233 -0 4.49178e-05 -0 -5.76084e-07)
(-5.64599e-05 -3.91371 -0 5.72001e-05 -0 -7.40194e-07)
(-7.06379e-05 -3.9154 -0 7.15777e-05 -0 -9.39807e-07)
(-8.77004e-05 -3.91745 -0 8.88937e-05 -0 -1.19338e-06)
(-0.000107817 -3.91992 -0 0.000109295 -0 -1.47818e-06)
(-0.000131644 -3.92283 -0 0.00013349 -0 -1.84659e-06)
(-0.000159504 -3.92627 -0 0.000161708 -0 -2.20478e-06)
(-0.000192242 -3.93024 -0 0.000194931 -0 -2.68915e-06)
(-0.000230592 -3.93489 -0 0.000233695 -0 -3.10304e-06)
(-0.000275462 -3.94016 -0 0.00027918 -0 -3.71848e-06)
(-0.000327883 -3.94628 -0 0.00033206 -0 -4.17721e-06)
(-0.000389183 -3.9532 -0 0.000394117 -0 -4.93435e-06)
(-0.000449956 -3.95982 -0 0.000456468 -0 -6.51193e-06)
(-0.000504922 -3.96543 -0 0.000512339 -0 -7.4166e-06)
(-0.000563883 -3.97148 -0 0.000572084 -0 -8.20146e-06)
(-0.000630132 -3.9777 -0 0.000638705 -0 -8.57327e-06)
(-0.00070154 -3.98439 -0 0.000710772 -0 -9.23173e-06)
(-0.000777806 -3.99124 -0 0.000787205 -0 -9.39925e-06)
(-0.000864687 -3.99855 -0 0.000874488 -0 -9.80156e-06)
(-0.000955832 -4.00606 -0 0.000965368 -0 -9.53664e-06)
(-0.00106213 -4.01397 -0 0.00107138 -0 -9.25648e-06)
(-0.00117156 -4.02212 -0 0.00118006 -0 -8.49773e-06)
(-0.0013076 -4.03071 -0 0.00131491 -0 -7.30815e-06)
(-0.00143853 -4.03951 -0 0.00144484 -0 -6.30783e-06)
(-0.00162652 -4.04885 -0 0.00162897 -0 -2.45252e-06)
(-0.00177899 -4.05835 -0 0.00178118 -0 -2.18951e-06)
(-0.00206538 -4.06837 -0 0.00205373 -0 1.16509e-05)
(-0.00223071 -4.07872 -0 0.00222363 -0 7.08415e-06)
(-0.00272204 -4.08938 -0 0.00267411 -0 4.79255e-05)
(-0.00285102 -4.10109 -0 0.00283173 -0 1.92922e-05)
(-0.00384885 -4.11163 -0 0.00372218 -0 0.000126673)
(-0.00373232 -4.12725 -0 0.00372219 -0 1.01318e-05)
(-0.00616413 -4.12997 -0 0.00589216 -0 0.000271969)
(-0.00546194 -4.16018 -0 0.00548965 -0 -2.77108e-05)
(-0.014938 -4.14596 -0 0.0145047 -0 0.000433282)
(-0.00520716 -4.1875 -0 0.00568553 -0 -0.000478371)
(-0.0920781 -4.22457 -0 0.0972745 -0 -0.00519644)
(0.00550266 -11.7037 -0 -0.0055279 -0 2.52375e-05)
(0.00768005 -6.49104 -0 -0.00763517 -0 -4.48845e-05)
(0.00306011 -5.64515 -0 -0.00305284 -0 -7.27024e-06)
(0.00215917 -5.18393 -0 -0.00215738 -0 -1.78764e-06)
(0.00151821 -4.89762 -0 -0.00151792 -0 -2.966e-07)
(0.0010891 -4.70967 -0 -0.00108935 -0 2.54431e-07)
(0.00082504 -4.57853 -0 -0.000825363 -0 3.23339e-07)
(0.000645039 -4.48224 -0 -0.000645338 -0 2.98787e-07)
(0.0005147 -4.40937 -0 -0.000514981 -0 2.8158e-07)
(0.000419313 -4.35295 -0 -0.000419571 -0 2.58104e-07)
(0.00034747 -4.30838 -0 -0.000347698 -0 2.28407e-07)
(0.00029172 -4.27262 -0 -0.000291923 -0 2.02911e-07)
(0.000247591 -4.24357 -0 -0.000247771 -0 1.79957e-07)
(0.000212121 -4.21973 -0 -0.000212281 -0 1.6003e-07)
(0.000183444 -4.19998 -0 -0.000183587 -0 1.42409e-07)
(0.000159424 -4.18345 -0 -0.000159552 -0 1.27411e-07)
(0.000139258 -4.16967 -0 -0.000139372 -0 1.13899e-07)
(0.000122744 -4.15798 -0 -0.000122847 -0 1.02677e-07)
(0.000108431 -4.14804 -0 -0.000108524 -0 9.29739e-08)
(9.61213e-05 -4.13961 -0 -9.62056e-05 -0 8.42478e-08)
(8.58635e-05 -4.13237 -0 -8.59405e-05 -0 7.7035e-08)
(7.68068e-05 -4.12612 -0 -7.68776e-05 -0 7.08415e-08)
(6.88964e-05 -4.12076 -0 -6.89617e-05 -0 6.52179e-08)
(6.20472e-05 -4.1161 -0 -6.21075e-05 -0 6.03173e-08)
(5.62351e-05 -4.11207 -0 -5.62916e-05 -0 5.65185e-08)
(5.08741e-05 -4.1085 -0 -5.09268e-05 -0 5.26998e-08)
(4.62334e-05 -4.10546 -0 -4.6283e-05 -0 4.95108e-08)
(4.2276e-05 -4.10272 -0 -4.23228e-05 -0 4.6841e-08)
(3.85882e-05 -4.10036 -0 -3.86323e-05 -0 4.41607e-08)
(3.53568e-05 -4.09824 -0 -3.53985e-05 -0 4.16984e-08)
(3.25078e-05 -4.0964 -0 -3.25474e-05 -0 3.95191e-08)
(2.99932e-05 -4.09473 -0 -3.00305e-05 -0 3.73009e-08)
(2.72629e-05 -4.09327 -0 -2.72976e-05 -0 3.46822e-08)
(2.50239e-05 -4.09201 -0 -2.50565e-05 -0 3.25951e-08)
(2.32141e-05 -4.09085 -0 -2.32442e-05 -0 3.00145e-08)
(2.12459e-05 -4.08982 -0 -2.12736e-05 -0 2.77225e-08)
(1.92296e-05 -4.08891 -0 -1.92547e-05 -0 2.505e-08)
(1.72082e-05 -4.0881 -0 -1.72298e-05 -0 2.16646e-08)
(1.50917e-05 -4.0874 -0 -1.51102e-05 -0 1.85794e-08)
(1.28304e-05 -4.08679 -0 -1.28449e-05 -0 1.45222e-08)
(1.01934e-05 -4.08626 -0 -1.02036e-05 -0 1.01668e-08)
(7.21252e-06 -4.08583 -0 -7.21839e-06 -0 5.87191e-09)
(3.80516e-06 -4.08548 -0 -3.80541e-06 -0 2.44506e-10)
(-4.42e-07 -4.08521 -0 4.48294e-07 -0 -6.29453e-09)
(-5.72448e-06 -4.08505 -0 5.73717e-06 -0 -1.26964e-08)
(-1.22161e-05 -4.085 -0 1.22387e-05 -0 -2.26467e-08)
(-2.00349e-05 -4.08509 -0 2.00661e-05 -0 -3.1117e-08)
(-2.98576e-05 -4.08529 -0 2.98998e-05 -0 -4.22192e-08)
(-4.14515e-05 -4.08565 -0 4.15123e-05 -0 -6.07186e-08)
(-5.55984e-05 -4.08616 -0 5.56738e-05 -0 -7.54077e-08)
(-7.28495e-05 -4.08689 -0 7.29533e-05 -0 -1.03729e-07)
(-9.37495e-05 -4.08781 -0 9.38865e-05 -0 -1.36983e-07)
(-0.0001191 -4.08902 -0 0.000119292 -0 -1.91843e-07)
(-0.0001489 -4.0905 -0 0.000149165 -0 -2.64911e-07)
(-0.000184605 -4.09229 -0 0.000184979 -0 -3.746e-07)
(-0.000226779 -4.09447 -0 0.000227258 -0 -4.78962e-07)
(-0.000276591 -4.09703 -0 0.00027724 -0 -6.49027e-07)
(-0.000335037 -4.10007 -0 0.000335774 -0 -7.36895e-07)
(-0.000403472 -4.10357 -0 0.000404412 -0 -9.39443e-07)
(-0.000483958 -4.10766 -0 0.000484905 -0 -9.46726e-07)
(-0.000577718 -4.11228 -0 0.000578881 -0 -1.16215e-06)
(-0.000687714 -4.11766 -0 0.000688751 -0 -1.03717e-06)
(-0.000816189 -4.12371 -0 0.000817501 -0 -1.31216e-06)
(-0.000942954 -4.12951 -0 0.000945634 -0 -2.67998e-06)
(-0.00105644 -4.13441 -0 0.00105952 -0 -3.07995e-06)
(-0.00117775 -4.13969 -0 0.001181 -0 -3.2558e-06)
(-0.00131472 -4.14507 -0 0.00131748 -0 -2.76042e-06)
(-0.00146365 -4.15086 -0 0.00146627 -0 -2.61815e-06)
(-0.00162206 -4.15674 -0 0.00162387 -0 -1.81145e-06)
(-0.00180233 -4.16301 -0 0.0018034 -0 -1.06956e-06)
(-0.00199104 -4.16939 -0 0.0019905 -0 5.40547e-07)
(-0.00221323 -4.1761 -0 0.00221074 -0 2.49052e-06)
(-0.00243749 -4.18293 -0 0.00243256 -0 4.93349e-06)
(-0.00272288 -4.19015 -0 0.0027143 -0 8.57653e-06)
(-0.00298521 -4.19738 -0 0.00297377 -0 1.14367e-05)
(-0.00338003 -4.20515 -0 0.00336011 -0 1.99181e-05)
(-0.00367301 -4.21275 -0 0.00365136 -0 2.16575e-05)
(-0.00427663 -4.22096 -0 0.00423012 -0 4.65122e-05)
(-0.00456814 -4.22886 -0 0.00452791 -0 4.02259e-05)
(-0.00560404 -4.23741 -0 0.00549554 -0 0.0001085)
(-0.0057841 -4.24552 -0 0.00572135 -0 6.27412e-05)
(-0.00781303 -4.25394 -0 0.00757376 -0 0.000239261)
(-0.00753905 -4.2634 -0 0.00748805 -0 5.09999e-05)
(-0.0123016 -4.26496 -0 0.0117931 -0 0.000508443)
(-0.0105192 -4.28284 -0 0.0105882 -0 -6.89543e-05)
(-0.0272554 -4.27262 -0 0.0260106 -0 0.00124477)
(-0.0163966 -4.27498 -0 0.0193369 -0 -0.0029403)
(-0.0928961 -4.20107 -0 0.0871492 -0 0.00574688)
(-0.0137134 -11.6146 -0 0.01375 -0 -3.65959e-05)
(0.00889962 -6.43461 -0 -0.00885359 -0 -4.60363e-05)
(0.00416594 -5.57767 -0 -0.00414975 -0 -1.61847e-05)
(0.00331423 -5.12356 -0 -0.00330417 -0 -1.00586e-05)
(0.00244541 -4.84446 -0 -0.002439 -0 -6.41287e-06)
(0.00179466 -4.66113 -0 -0.00179038 -0 -4.28173e-06)
(0.00137897 -4.53331 -0 -0.00137571 -0 -3.25373e-06)
(0.00108812 -4.43949 -0 -0.00108552 -0 -2.60307e-06)
(0.000873444 -4.36844 -0 -0.000871351 -0 -2.09329e-06)
(0.000714591 -4.3134 -0 -0.000712878 -0 -1.71211e-06)
(0.000594056 -4.26991 -0 -0.000592627 -0 -1.42948e-06)
(0.000499976 -4.235 -0 -0.00049877 -0 -1.20539e-06)
(0.000425176 -4.20664 -0 -0.00042415 -0 -1.02673e-06)
(0.000364847 -4.18336 -0 -0.000363965 -0 -8.81379e-07)
(0.000315927 -4.16408 -0 -0.000315163 -0 -7.63872e-07)
(0.00027492 -4.14794 -0 -0.000274256 -0 -6.63814e-07)
(0.000240401 -4.13449 -0 -0.000239821 -0 -5.7988e-07)
(0.000212034 -4.12306 -0 -0.000211524 -0 -5.10776e-07)
(0.000187495 -4.11336 -0 -0.000187045 -0 -4.49969e-07)
(0.000166338 -4.10512 -0 -0.00016594 -0 -3.97729e-07)
(0.000148649 -4.09805 -0 -0.000148295 -0 -3.54006e-07)
(0.000133069 -4.09195 -0 -0.000132754 -0 -3.14716e-07)
(0.000119441 -4.08671 -0 -0.000119161 -0 -2.80446e-07)
(0.000107617 -4.08216 -0 -0.000107367 -0 -2.50661e-07)
(9.75512e-05 -4.07822 -0 -9.7326e-05 -0 -2.25118e-07)
(8.83247e-05 -4.07474 -0 -8.81233e-05 -0 -2.01367e-07)
(8.02914e-05 -4.07177 -0 -8.01105e-05 -0 -1.80859e-07)
(7.34126e-05 -4.0691 -0 -7.3249e-05 -0 -1.63535e-07)
(6.70473e-05 -4.06678 -0 -6.69001e-05 -0 -1.47176e-07)
(6.14511e-05 -4.06472 -0 -6.1318e-05 -0 -1.33065e-07)
(5.65005e-05 -4.06292 -0 -5.63798e-05 -0 -1.20642e-07)
(5.2133e-05 -4.06128 -0 -5.20227e-05 -0 -1.10358e-07)
(4.74747e-05 -4.05986 -0 -4.73757e-05 -0 -9.89795e-08)
(4.35522e-05 -4.05862 -0 -4.34624e-05 -0 -8.98179e-08)
(4.0348e-05 -4.05748 -0 -4.02637e-05 -0 -8.42956e-08)
(3.69427e-05 -4.05647 -0 -3.68652e-05 -0 -7.75397e-08)
(3.34435e-05 -4.05558 -0 -3.33725e-05 -0 -7.1055e-08)
(2.99138e-05 -4.05479 -0 -2.9848e-05 -0 -6.58e-08)
(2.621e-05 -4.05409 -0 -2.615e-05 -0 -6.00311e-08)
(2.22376e-05 -4.05348 -0 -2.21821e-05 -0 -5.54784e-08)
(1.76192e-05 -4.05295 -0 -1.75693e-05 -0 -4.98474e-08)
(1.23576e-05 -4.0525 -0 -1.23146e-05 -0 -4.30368e-08)
(6.31492e-06 -4.05213 -0 -6.27788e-06 -0 -3.70422e-08)
(-1.16832e-06 -4.05183 -0 1.19777e-06 -0 -2.94557e-08)
(-1.05302e-05 -4.05163 -0 1.05468e-05 -0 -1.66686e-08)
(-2.19205e-05 -4.05152 -0 2.19275e-05 -0 -6.98465e-09)
(-3.5662e-05 -4.05153 -0 3.56504e-05 -0 1.16064e-08)
(-5.31118e-05 -4.05163 -0 5.30747e-05 -0 3.7135e-08)
(-7.36811e-05 -4.05187 -0 7.36276e-05 -0 5.34963e-08)
(-9.86943e-05 -4.05223 -0 9.86108e-05 -0 8.3475e-08)
(-0.000129216 -4.05277 -0 0.000129108 -0 1.0782e-07)
(-0.000166097 -4.05346 -0 0.000165957 -0 1.39474e-07)
(-0.000210805 -4.0544 -0 0.00021065 -0 1.54679e-07)
(-0.000263505 -4.05555 -0 0.000263348 -0 1.57143e-07)
(-0.000326483 -4.05696 -0 0.000326355 -0 1.28312e-07)
(-0.000400933 -4.05868 -0 0.000400806 -0 1.27121e-07)
(-0.000488689 -4.06071 -0 0.000488629 -0 6.03698e-08)
(-0.000591814 -4.06312 -0 0.000591676 -0 1.38416e-07)
(-0.000712256 -4.06588 -0 0.000712167 -0 8.9153e-08)
(-0.000854116 -4.06913 -0 0.000853759 -0 3.57131e-07)
(-0.00101888 -4.07277 -0 0.0010185 -0 3.749e-07)
(-0.00121251 -4.07702 -0 0.00121158 -0 9.31985e-07)
(-0.00143796 -4.08176 -0 0.00143702 -0 9.41194e-07)
(-0.00166026 -4.08633 -0 0.00166099 -0 -7.26587e-07)
(-0.00185892 -4.09015 -0 0.00185981 -0 -8.95378e-07)
(-0.00206957 -4.0943 -0 0.0020704 -0 -8.38862e-07)
(-0.00230667 -4.09845 -0 0.00230637 -0 3.01353e-07)
(-0.00256618 -4.10296 -0 0.00256529 -0 8.89786e-07)
(-0.00284132 -4.10743 -0 0.00283878 -0 2.53996e-06)
(-0.0031541 -4.11226 -0 0.00315009 -0 4.00854e-06)
(-0.00347982 -4.11704 -0 0.00347297 -0 6.84581e-06)
(-0.0038656 -4.12211 -0 0.00385554 -0 1.00658e-05)
(-0.00424921 -4.12711 -0 0.00423514 -0 1.40668e-05)
(-0.00474388 -4.1325 -0 0.00472411 -0 1.97759e-05)
(-0.00518548 -4.13762 -0 0.00516127 -0 2.42113e-05)
(-0.00586693 -4.14335 -0 0.00582988 -0 3.70431e-05)
(-0.00634752 -4.14847 -0 0.00630805 -0 3.94643e-05)
(-0.00738197 -4.15448 -0 0.00730575 -0 7.6224e-05)
(-0.00783574 -4.15929 -0 0.00776991 -0 6.58311e-05)
(-0.00959308 -4.16555 -0 0.00942769 -0 0.000165383)