/*--------------------------------*- C++ -*----------------------------------*\
| =========                 |                                                 |
| \\      /  F ield         | OpenFOAM: The Open Source CFD Toolbox           |
|  \\    /   O peration     | Version:  2306                                  |
|   \\  /    A nd           | Website:  www.openfoam.com                      |
|    \\/     M anipulation  |                                                 |
\*---------------------------------------------------------------------------*/
FoamFile
{
    version     2.0;
    format      ascii;
    arch        "LSB;label=32;scalar=64";
    class       volVectorField;
    location    "1900";
    object      U;
}
// * * * * * * * * * * * * * * * * * * * * * * * * * * * * * * * * * * * * * //

dimensions      [0 1 -1 0 0 0 0];

internalField   nonuniform List<vector> 
20540
(
(31.8969 0.00129669 0)
(20.2091 0.00169206 0)
(31.9261 0.00442368 0)
(20.2268 0.00517487 0)
(31.9773 0.00863971 0)
(20.2555 0.00785974 0)
(32.0498 0.0132459 0)
(20.2951 0.00925387 0)
(32.1463 0.0187813 0)
(20.3476 0.0102172 0)
(32.2712 0.0255328 0)
(20.416 0.0109789 0)
(32.43 0.0336951 0)
(20.5041 0.0114999 0)
(32.6286 0.0435119 0)
(20.6162 0.0117276 0)
(32.8738 0.055299 0)
(20.7574 0.0116353 0)
(33.173 0.0694314 0)
(20.9341 0.0112028 0)
(33.5346 0.0863397 0)
(21.1539 0.0104147 0)
(33.9675 0.106514 0)
(21.4259 0.0092756 0)
(34.4813 0.130506 0)
(21.7615 0.00783175 0)
(35.0863 0.15892 0)
(22.1744 0.0062011 0)
(35.7933 0.192398 0)
(22.6813 0.00461563 0)
(36.6134 0.231588 0)
(23.3027 0.00348192 0)
(37.5576 0.277086 0)
(24.0637 0.00346537 0)
(38.6361 0.329358 0)
(24.9947 0.00560193 0)
(39.8553 0.388579 0)
(26.1331 0.0114392 0)
(41.2144 0.454345 0)
(27.524 0.0232051 0)
(42.6994 0.525357 0)
(29.2209 0.0439837 0)
(44.2731 0.599229 0)
(31.2823 0.0777994 0)
(45.84 0.672322 0)
(33.7637 0.129225 0)
(47.1686 0.737726 0)
(36.6951 0.201561 0)
(47.8953 0.777962 0)
(40.0427 0.293222 0)
(47.9938 0.784911 0)
(43.6687 0.397347 0)
(47.6515 0.754389 0)
(47.2007 0.498922 0)
(46.8383 0.659647 0)
(49.4844 0.526571 0)
(46.0472 0.521026 0)
(49.8937 0.460888 0)
(45.549 0.364234 0)
(49.7607 0.356378 0)
(45.3314 0.210543 0)
(49.563 0.217527 0)
(45.2529 0.0625516 0)
(49.4535 0.0790114 0)
(45.2537 -0.0861528 0)
(49.4517 -0.056728 0)
(45.3332 -0.234165 0)
(49.5565 -0.194906 0)
(45.545 -0.385462 0)
(49.7427 -0.331734 0)
(46.0019 -0.536641 0)
(49.8646 -0.433943 0)
(46.7124 -0.67064 0)
(49.5163 -0.501645 0)
(47.4584 -0.765417 0)
(47.4644 -0.487364 0)
(47.8014 -0.799907 0)
(44.1077 -0.395346 0)
(47.7295 -0.797033 0)
(40.5784 -0.295904 0)
(47.0678 -0.762146 0)
(37.2687 -0.205932 0)
(45.7953 -0.700608 0)
(34.3296 -0.132979 0)
(44.2558 -0.629693 0)
(31.8123 -0.0798954 0)
(42.6888 -0.55675 0)
(29.6992 -0.0442299 0)
(41.1964 -0.485612 0)
(27.9432 -0.0218338 0)
(39.8196 -0.418872 0)
(26.4907 -0.00884698 0)
(38.5753 -0.358082 0)
(25.2913 -0.0022123 0)
(37.4662 -0.303857 0)
(24.3019 0.000338904 0)
(36.4869 -0.256186 0)
(23.4865 0.000424229 0)
(35.6289 -0.214736 0)
(22.8152 -0.000843019 0)
(34.8823 -0.17901 0)
(22.2632 -0.00272562 0)
(34.2372 -0.148426 0)
(21.81 -0.00475631 0)
(33.6836 -0.122387 0)
(21.4386 -0.0066554 0)
(33.212 -0.100314 0)
(21.1348 -0.00826963 0)
(32.8135 -0.0816679 0)
(20.8871 -0.00952811 0)
(32.4794 -0.0659631 0)
(20.6858 -0.0104113 0)
(32.202 -0.0527671 0)
(20.523 -0.0109288 0)
(31.9737 -0.0416996 0)
(20.3922 -0.0111028 0)
(31.7881 -0.0324291 0)
(20.2878 -0.0109566 0)
(31.6391 -0.0246754 0)
(20.2053 -0.0105169 0)
(31.5214 -0.0182221 0)
(20.1409 -0.00983193 0)
(31.43 -0.0128971 0)
(20.0912 -0.00893365 0)
(31.3612 -0.00843983 0)
(20.0536 -0.00760028 0)
(31.3124 -0.00434474 0)
(20.0261 -0.0050211 0)
(31.2842 -0.00127766 0)
(20.0091 -0.00164759 0)
(9.35042 0.00265322 0)
(5.29359 0.000475315 0)
(4.59984 9.15227e-05 0)
(4.21706 4.68691e-05 0)
(3.98115 2.78146e-05 0)
(3.82809 1.82845e-05 0)
(3.72126 1.29595e-05 0)
(3.64288 9.68632e-06 0)
(3.58374 7.51477e-06 0)
(3.53799 5.9934e-06 0)
(3.50186 4.88398e-06 0)
(3.47289 4.04771e-06 0)
(3.44937 3.40049e-06 0)
(3.43007 2.88855e-06 0)
(3.41409 2.48141e-06 0)
(3.40072 2.14042e-06 0)
(3.38956 1.859e-06 0)
(3.38011 1.63386e-06 0)
(3.37206 1.4348e-06 0)
(3.36524 1.2672e-06 0)
(3.35938 1.1304e-06 0)
(3.35433 1.00686e-06 0)
(3.35 9.00667e-07 0)
(3.34623 8.09972e-07 0)
(3.34297 7.34491e-07 0)
(3.3401 6.62091e-07 0)
(3.33763 6.00931e-07 0)
(3.33543 5.51832e-07 0)
(3.33352 5.0342e-07 0)
(3.33181 4.60476e-07 0)
(3.33032 4.24355e-07 0)
(3.32898 3.93678e-07 0)
(3.32781 3.54491e-07 0)
(3.32679 3.2814e-07 0)
(3.32586 3.08936e-07 0)
(3.32504 2.83807e-07 0)
(3.32432 2.59623e-07 0)
(3.32369 2.3696e-07 0)
(3.32314 2.14656e-07 0)
(3.32268 1.92368e-07 0)
(3.32229 1.67177e-07 0)
(3.322 1.42643e-07 0)
(3.32178 1.17245e-07 0)
(3.32165 8.40308e-08 0)
(3.32163 4.6315e-08 0)
(3.32173 -9.58201e-09 0)
(3.32198 -6.54545e-08 0)
(3.32237 -1.22003e-07 0)
(3.32294 -1.97484e-07 0)
(3.32369 -2.95695e-07 0)
(3.32469 -4.09488e-07 0)
(3.32593 -5.52867e-07 0)
(3.3275 -7.30814e-07 0)
(3.32941 -9.32902e-07 0)
(3.33171 -1.18992e-06 0)
(3.33446 -1.49271e-06 0)
(3.3377 -1.85632e-06 0)
(3.34152 -2.25693e-06 0)
(3.34594 -2.73607e-06 0)
(3.35111 -3.23576e-06 0)
(3.35703 -3.8555e-06 0)
(3.36388 -4.45297e-06 0)
(3.37168 -5.11115e-06 0)
(3.37915 -6.54072e-06 0)
(3.38551 -7.50239e-06 0)
(3.39234 -8.74228e-06 0)
(3.39957 -9.34642e-06 0)
(3.40733 -1.03869e-05 0)
(3.41544 -1.0758e-05 0)
(3.4241 -1.20402e-05 0)
(3.43319 -1.22203e-05 0)
(3.44282 -1.32592e-05 0)
(3.453 -1.34837e-05 0)
(3.46372 -1.41213e-05 0)
(3.47514 -1.49496e-05 0)
(3.4871 -1.46589e-05 0)
(3.50019 -1.71127e-05 0)
(3.51361 -1.26568e-05 0)
(3.52936 -1.93103e-05 0)
(3.54453 -3.58931e-06 0)
(3.56521 -2.18481e-05 0)
(3.5816 1.18273e-05 0)
(3.61361 -2.70105e-05 0)
(3.6259 1.04681e-05 0)
(3.68782 -0.000108216 0)
(3.69364 -0.000306684 0)
(3.87603 0.00134852 0)
(3.46684 -0.0718941 0)
(16.1392 0.00483068 0)
(11.0072 0.00208898 0)
(9.87513 0.00052808 0)
(9.20856 0.00031171 0)
(8.7817 0.00020234 0)
(8.49939 0.000140095 0)
(8.29962 0.000103435 0)
(8.15165 7.95837e-05 0)
(8.03928 6.29496e-05 0)
(7.95196 5.09651e-05 0)
(7.88277 4.20308e-05 0)
(7.82712 3.51652e-05 0)
(7.78183 2.97643e-05 0)
(7.74461 2.54445e-05 0)
(7.71374 2.19655e-05 0)
(7.68788 1.90453e-05 0)
(7.66627 1.66075e-05 0)
(7.64795 1.46293e-05 0)
(7.63235 1.28952e-05 0)
(7.6191 1.14156e-05 0)
(7.60773 1.01948e-05 0)
(7.59791 9.1034e-06 0)
(7.58948 8.15434e-06 0)
(7.58215 7.33894e-06 0)
(7.5758 6.6531e-06 0)
(7.57021 6.00323e-06 0)
(7.56541 5.45637e-06 0)
(7.56111 4.99354e-06 0)
(7.55738 4.55024e-06 0)
(7.55406 4.16948e-06 0)
(7.55116 3.83591e-06 0)
(7.54854 3.5382e-06 0)
(7.54625 3.19721e-06 0)
(7.54427 2.95008e-06 0)
(7.54246 2.75713e-06 0)
(7.54085 2.52529e-06 0)
(7.53945 2.29563e-06 0)
(7.53822 2.07454e-06 0)
(7.53716 1.84884e-06 0)
(7.53626 1.61598e-06 0)
(7.53552 1.34566e-06 0)
(7.53496 1.05855e-06 0)
(7.53456 7.41285e-07 0)
(7.53434 3.37595e-07 0)
(7.53434 -1.44313e-07 0)
(7.53458 -7.94174e-07 0)
(7.53512 -1.52127e-06 0)
(7.53595 -2.36384e-06 0)
(7.53715 -3.41093e-06 0)
(7.53873 -4.7046e-06 0)
(7.54082 -6.2633e-06 0)
(7.54341 -8.18105e-06 0)
(7.54667 -1.0516e-05 0)
(7.55063 -1.32058e-05 0)
(7.55539 -1.64972e-05 0)
(7.56109 -2.03449e-05 0)
(7.5678 -2.49437e-05 0)
(7.57571 -3.02345e-05 0)
(7.58488 -3.65457e-05 0)
(7.59556 -4.37737e-05 0)
(7.60783 -5.24315e-05 0)
(7.622 -6.2284e-05 0)
(7.63818 -7.41482e-05 0)
(7.65364 -8.63812e-05 0)
(7.66689 -9.72067e-05 0)
(7.68108 -0.000109142 0)
(7.69611 -0.000121736 0)
(7.71218 -0.00013543 0)
(7.72903 -0.00014978 0)
(7.74695 -0.000166628 0)
(7.76584 -0.000183557 0)
(7.78573 -0.000203352 0)
(7.80682 -0.000224069 0)
(7.82889 -0.00024801 0)
(7.85259 -0.000274542 0)
(7.87713 -0.000304544 0)
(7.90441 -0.000340449 0)
(7.9317 -0.000377603 0)
(7.96461 -0.000431521 0)
(7.99477 -0.000477793 0)
(8.03775 -0.000565562 0)
(8.06911 -0.000648269 0)
(8.13414 -0.000778408 0)
(8.15666 -0.000989726 0)
(8.27756 -0.00153763 0)
(8.28211 -0.0028026 0)
(8.61565 0.0005125 0)
(8.19123 -0.0993518 0)
(20.1467 0.00731708 0)
(16.0644 0.00420645 0)
(14.8927 0.00125553 0)
(14.1211 0.000789084 0)
(13.5974 0.000530437 0)
(13.242 0.000374379 0)
(12.9856 0.000280358 0)
(12.7932 0.000217794 0)
(12.6459 0.000173362 0)
(12.5309 0.000141034 0)
(12.4392 0.000116752 0)
(12.3653 9.79667e-05 0)
(12.305 8.31171e-05 0)
(12.2553 7.11905e-05 0)
(12.214 6.15555e-05 0)
(12.1794 5.34569e-05 0)
(12.1504 4.6673e-05 0)
(12.1258 4.11467e-05 0)
(12.1048 3.6314e-05 0)
(12.0869 3.21753e-05 0)
(12.0716 2.87478e-05 0)
(12.0584 2.56935e-05 0)
(12.047 2.30324e-05 0)
(12.0371 2.07385e-05 0)
(12.0286 1.88038e-05 0)
(12.021 1.69861e-05 0)
(12.0145 1.54391e-05 0)
(12.0087 1.41298e-05 0)
(12.0036 1.2886e-05 0)
(11.9992 1.18073e-05 0)
(11.9952 1.08619e-05 0)
(11.9917 1.00239e-05 0)
(11.9886 9.07584e-06 0)
(11.9859 8.3578e-06 0)
(11.9835 7.79132e-06 0)
(11.9813 7.13391e-06 0)
(11.9794 6.47359e-06 0)
(11.9777 5.82715e-06 0)
(11.9763 5.16059e-06 0)
(11.9751 4.46219e-06 0)
(11.9742 3.64924e-06 0)
(11.9735 2.76382e-06 0)
(11.973 1.77099e-06 0)
(11.9728 5.1662e-07 0)
(11.9729 -1.00513e-06 0)
(11.9734 -2.97797e-06 0)
(11.9744 -5.26276e-06 0)
(11.9757 -8.0003e-06 0)
(11.9777 -1.13192e-05 0)
(11.9802 -1.54043e-05 0)
(11.9835 -2.0354e-05 0)
(11.9876 -2.64038e-05 0)
(11.9927 -3.37652e-05 0)
(11.9989 -4.23253e-05 0)
(12.0063 -5.27171e-05 0)
(12.0152 -6.49129e-05 0)
(12.0256 -7.94497e-05 0)
(12.0379 -9.6259e-05 0)
(12.0521 -0.000116201 0)
(12.0686 -0.000139192 0)
(12.0876 -0.000166476 0)
(12.1095 -0.000197752 0)
(12.1346 -0.000234847 0)
(12.1586 -0.000273164 0)
(12.1792 -0.000307287 0)
(12.201 -0.00034401 0)
(12.2242 -0.000383735 0)
(12.249 -0.000426784 0)
(12.2751 -0.000471952 0)
(12.3026 -0.000524268 0)
(12.3318 -0.000577597 0)
(12.3624 -0.000639695 0)
(12.3951 -0.000703975 0)
(12.429 -0.000781011 0)
(12.4659 -0.000860471 0)
(12.5032 -0.000961585 0)
(12.5458 -0.00106205 0)
(12.5866 -0.00119891 0)
(12.6383 -0.00133187 0)
(12.682 -0.00153123 0)
(12.7497 -0.00171302 0)
(12.7932 -0.00209538 0)
(12.8939 -0.00229588 0)
(12.9258 -0.00329271 0)
(13.1045 -0.00384774 0)
(13.103 -0.00928149 0)
(13.5584 0.000700495 0)
(13.2594 -0.169382 0)
(22.3265 0.00824951 0)
(19.4543 0.00602921 0)
(18.4235 0.00206857 0)
(17.6415 0.00138273 0)
(17.0778 0.000958406 0)
(16.6856 0.000687315 0)
(16.3981 0.000520514 0)
(16.18 0.000407379 0)
(16.012 0.000325828 0)
(15.8802 0.000266016 0)
(15.7749 0.000220829 0)
(15.6897 0.000185694 0)
(15.6201 0.000157816 0)
(15.5627 0.00013536 0)
(15.5149 0.000117173 0)
(15.4748 0.000101877 0)
(15.4411 8.90297e-05 0)
(15.4126 7.85322e-05 0)
(15.3882 6.93712e-05 0)
(15.3675 6.15042e-05 0)
(15.3497 5.49699e-05 0)
(15.3343 4.91624e-05 0)
(15.321 4.40943e-05 0)
(15.3095 3.97157e-05 0)
(15.2995 3.60136e-05 0)
(15.2907 3.25569e-05 0)
(15.2831 2.95948e-05 0)
(15.2764 2.70812e-05 0)
(15.2705 2.47086e-05 0)
(15.2652 2.26425e-05 0)
(15.2606 2.08276e-05 0)
(15.2565 1.92215e-05 0)
(15.2529 1.74296e-05 0)
(15.2497 1.60308e-05 0)
(15.2469 1.49169e-05 0)
(15.2444 1.36558e-05 0)
(15.2422 1.23782e-05 0)
(15.2402 1.11149e-05 0)
(15.2386 9.80383e-06 0)
(15.2372 8.41839e-06 0)
(15.2361 6.80335e-06 0)
(15.2353 5.01664e-06 0)
(15.2348 2.99658e-06 0)
(15.2347 4.57531e-07 0)
(15.2349 -2.65443e-06 0)
(15.2356 -6.59822e-06 0)
(15.2368 -1.12478e-05 0)
(15.2385 -1.6933e-05 0)
(15.241 -2.37424e-05 0)
(15.2442 -3.20921e-05 0)
(15.2484 -4.22438e-05 0)
(15.2535 -5.46063e-05 0)
(15.2599 -6.9637e-05 0)
(15.2676 -8.72011e-05 0)
(15.2768 -0.000108417 0)
(15.2878 -0.000133372 0)
(15.3008 -0.000163033 0)
(15.316 -0.000197492 0)
(15.3337 -0.000238208 0)
(15.3542 -0.000285444 0)
(15.3779 -0.000341182 0)
(15.405 -0.000405538 0)
(15.4362 -0.000481623 0)
(15.4659 -0.000559143 0)
(15.4914 -0.000627953 0)
(15.5185 -0.00070171 0)
(15.5472 -0.000782848 0)
(15.5777 -0.000870971 0)
(15.61 -0.000963831 0)
(15.644 -0.00107049 0)
(15.6801 -0.00118043 0)
(15.7177 -0.00130876 0)
(15.7581 -0.00144042 0)
(15.7996 -0.0016018 0)
(15.8451 -0.00176106 0)
(15.8906 -0.00197667 0)
(15.9432 -0.00216924 0)
(15.9923 -0.00247334 0)
(16.056 -0.00270763 0)
(16.1075 -0.0031775 0)
(16.1907 -0.0034593 0)
(16.2405 -0.00435079 0)
(16.3619 -0.0046091 0)
(16.3983 -0.00679497 0)
(16.6075 -0.00724802 0)
(16.5983 -0.0172725 0)
(17.0995 -0.00652914 0)
(16.8456 -0.202312 0)
(23.6535 0.00806193 0)
(21.7955 0.0075907 0)
(20.9959 0.00293112 0)
(20.2523 0.00209285 0)
(19.6743 0.0014953 0)
(19.2597 0.0010884 0)
(18.9503 0.000832359 0)
(18.713 0.000655546 0)
(18.5291 0.000526374 0)
(18.384 0.000430958 0)
(18.2678 0.000358518 0)
(18.1736 0.000301965 0)
(18.0965 0.00025696 0)
(18.0327 0.000220625 0)
(17.9796 0.000191142 0)
(17.935 0.000166336 0)
(17.8975 0.000145462 0)
(17.8657 0.000128361 0)
(17.8386 0.000113467 0)
(17.8154 0.00010065 0)
(17.7955 8.99767e-05 0)
(17.7783 8.05137e-05 0)
(17.7635 7.22448e-05 0)
(17.7506 6.50887e-05 0)
(17.7395 5.90233e-05 0)
(17.7296 5.33921e-05 0)
(17.7211 4.85397e-05 0)
(17.7136 4.44099e-05 0)
(17.707 4.05359e-05 0)
(17.7011 3.71509e-05 0)
(17.6959 3.41704e-05 0)
(17.6913 3.15353e-05 0)
(17.6873 2.86356e-05 0)
(17.6837 2.63144e-05 0)
(17.6805 2.44502e-05 0)
(17.6777 2.23829e-05 0)
(17.6752 2.02768e-05 0)
(17.6731 1.81789e-05 0)
(17.6713 1.59924e-05 0)
(17.6697 1.36681e-05 0)
(17.6685 1.09593e-05 0)
(17.6676 7.93011e-06 0)
(17.6671 4.48459e-06 0)
(17.6669 1.74141e-07 0)
(17.6672 -5.14812e-06 0)
(17.668 -1.17917e-05 0)
(17.6693 -1.96992e-05 0)
(17.6714 -2.95068e-05 0)
(17.6742 -4.11778e-05 0)
(17.6779 -5.54418e-05 0)
(17.6826 -7.28211e-05 0)
(17.6884 -9.39283e-05 0)
(17.6957 -0.000119575 0)
(17.7045 -0.00014965 0)
(17.715 -0.000185852 0)
(17.7276 -0.000228506 0)
(17.7423 -0.000279089 0)
(17.7596 -0.000338048 0)
(17.7798 -0.000407496 0)
(17.8031 -0.000488405 0)
(17.83 -0.000583483 0)
(17.8608 -0.000693789 0)
(17.8962 -0.000823855 0)
(17.9299 -0.000955503 0)
(17.9589 -0.00107204 0)
(17.9896 -0.00119649 0)
(18.0221 -0.00133435 0)
(18.0566 -0.00148474 0)
(18.0931 -0.00164327 0)
(18.1315 -0.00182485 0)
(18.1722 -0.00201248 0)
(18.2146 -0.00223268 0)
(18.2601 -0.00245609 0)
(18.3067 -0.00273481 0)
(18.3579 -0.00300086 0)
(18.4086 -0.00337621 0)
(18.4676 -0.00368791 0)
(18.522 -0.00422701 0)
(18.593 -0.00458328 0)
(18.6493 -0.00543579 0)
(18.7413 -0.00582066 0)
(18.7949 -0.00741954 0)
(18.927 -0.00770705 0)
(18.9654 -0.0115116 0)
(19.1889 -0.0116181 0)
(19.173 -0.0273225 0)
(19.6816 -0.0156493 0)
(19.4441 -0.229484 0)
(24.5737 0.00678998 0)
(23.512 0.00881482 0)
(23.0012 0.00378384 0)
(22.3414 0.0029207 0)
(21.7732 0.00216139 0)
(21.3487 0.00160006 0)
(21.0249 0.00123652 0)
(20.773 0.000980311 0)
(20.5762 0.00079039 0)
(20.4201 0.000648972 0)
(20.2946 0.000541039 0)
(20.1926 0.000456427 0)
(20.1088 0.000388889 0)
(20.0395 0.000334234 0)
(19.9817 0.000289802 0)
(19.933 0.000252405 0)
(19.8921 0.000220878 0)
(19.8574 0.000194987 0)
(19.8277 0.000172474 0)
(19.8024 0.000153067 0)
(19.7807 0.000136867 0)
(19.7618 0.000122533 0)
(19.7456 0.000109995 0)
(19.7315 9.91279e-05 0)
(19.7192 8.98956e-05 0)
(19.7084 8.13669e-05 0)
(19.6991 7.39832e-05 0)
(19.6908 6.76814e-05 0)
(19.6835 6.18015e-05 0)
(19.6771 5.66499e-05 0)
(19.6714 5.21035e-05 0)
(19.6664 4.80865e-05 0)
(19.6619 4.37234e-05 0)
(19.658 4.01561e-05 0)
(19.6545 3.72679e-05 0)
(19.6514 3.4123e-05 0)
(19.6486 3.09082e-05 0)
(19.6463 2.76883e-05 0)
(19.6442 2.43238e-05 0)
(19.6426 2.07334e-05 0)
(19.6412 1.65551e-05 0)
(19.6402 1.18473e-05 0)
(19.6396 6.46931e-06 0)
(19.6394 -2.27347e-07 0)
(19.6397 -8.5386e-06 0)
(19.6406 -1.8814e-05 0)
(19.6421 -3.10945e-05 0)
(19.6443 -4.64719e-05 0)
(19.6474 -6.47242e-05 0)
(19.6514 -8.69785e-05 0)
(19.6565 -0.000114113 0)
(19.6629 -0.000146995 0)
(19.6709 -0.00018693 0)
(19.6805 -0.000233878 0)
(19.692 -0.000290251 0)
(19.7057 -0.000356745 0)
(19.7218 -0.000435456 0)
(19.7407 -0.000527408 0)
(19.7627 -0.00063546 0)
(19.7881 -0.000761685 0)
(19.8175 -0.00090956 0)
(19.8511 -0.00108167 0)
(19.8897 -0.00128404 0)
(19.9264 -0.00148802 0)
(19.958 -0.00166849 0)
(19.9913 -0.0018604 0)
(20.0267 -0.00207344 0)
(20.0641 -0.00230675 0)
(20.1037 -0.00255263 0)
(20.1453 -0.0028337 0)
(20.1894 -0.00312413 0)
(20.2351 -0.00346639 0)
(20.2843 -0.00381037 0)
(20.3344 -0.00424462 0)
(20.3896 -0.00464928 0)
(20.444 -0.00523535 0)
(20.5073 -0.00569903 0)
(20.5652 -0.00654595 0)
(20.6409 -0.00705322 0)
(20.7005 -0.00840289 0)
(20.7975 -0.00890477 0)
(20.8537 -0.0114113 0)
(20.9911 -0.0116992 0)
(21.0308 -0.0175563 0)
(21.2596 -0.0170682 0)
(21.2403 -0.0394434 0)
(21.735 -0.0266718 0)
(21.5282 -0.25282 0)
(25.2799 0.0042917 0)
(24.8282 0.00957946 0)
(24.6298 0.00451217 0)
(24.0969 0.00382746 0)
(23.5649 0.00295582 0)
(23.1447 0.00223387 0)
(22.8145 0.00174784 0)
(22.5529 0.00139646 0)
(22.3462 0.00113139 0)
(22.1811 0.000932043 0)
(22.0477 0.00077892 0)
(21.9388 0.000658301 0)
(21.8492 0.000561683 0)
(21.7748 0.000483287 0)
(21.7127 0.000419413 0)
(21.6604 0.00036562 0)
(21.6163 0.000320189 0)
(21.5789 0.000282785 0)
(21.5469 0.000250305 0)
(21.5195 0.00022226 0)
(21.496 0.000198792 0)
(21.4756 0.000178065 0)
(21.458 0.000159917 0)
(21.4427 0.000144165 0)
(21.4294 0.000130752 0)
(21.4177 0.000118416 0)
(21.4076 0.000107693 0)
(21.3986 9.85169e-05 0)
(21.3907 8.99938e-05 0)
(21.3837 8.25084e-05 0)
(21.3776 7.58903e-05 0)
(21.3721 7.00441e-05 0)
(21.3672 6.37722e-05 0)
(21.3629 5.85506e-05 0)
(21.3591 5.42891e-05 0)
(21.3557 4.97246e-05 0)
(21.3528 4.5051e-05 0)
(21.3502 4.03512e-05 0)
(21.348 3.54331e-05 0)
(21.3461 3.01721e-05 0)
(21.3446 2.40641e-05 0)
(21.3435 1.71449e-05 0)
(21.3429 9.21554e-06 0)
(21.3426 -6.11517e-07 0)
(21.3429 -1.28472e-05 0)
(21.3438 -2.78905e-05 0)
(21.3454 -4.5888e-05 0)
(21.3477 -6.85445e-05 0)
(21.351 -9.54405e-05 0)
(21.3552 -0.000128195 0)
(21.3607 -0.000168111 0)
(21.3675 -0.000216394 0)
(21.376 -0.000275002 0)
(21.3862 -0.000344033 0)
(21.3985 -0.000426772 0)
(21.413 -0.000524431 0)
(21.4302 -0.000639862 0)
(21.4503 -0.000774915 0)
(21.4738 -0.000933312 0)
(21.5008 -0.00111866 0)
(21.5321 -0.00133529 0)
(21.5678 -0.00158793 0)
(21.6089 -0.0018842 0)
(21.6478 -0.00218182 0)
(21.6814 -0.00244541 0)
(21.7167 -0.00272457 0)
(21.7543 -0.00303418 0)
(21.7939 -0.00337423 0)
(21.8358 -0.00373256 0)
(21.8797 -0.00414135 0)
(21.9262 -0.00456338 0)
(21.9745 -0.00506193 0)
(22.0262 -0.00555935 0)
(22.0789 -0.00619157 0)
(22.1368 -0.00677145 0)
(22.1938 -0.00762308 0)
(22.2599 -0.00827811 0)
(22.3204 -0.00950733 0)
(22.3987 -0.0102045 0)
(22.4609 -0.0121632 0)
(22.56 -0.01281 0)
(22.6187 -0.0164181 0)
(22.7575 -0.0166912 0)
(22.7987 -0.0249947 0)
(23.0263 -0.0237802 0)
(23.009 -0.0533412 0)
(23.4728 -0.0404859 0)
(23.3126 -0.271514 0)
(25.8626 0.000373932 0)
(25.875 0.00976882 0)
(25.9799 0.00497547 0)
(25.6088 0.00474036 0)
(25.1414 0.00385735 0)
(24.7421 0.00299172 0)
(24.415 0.00237712 0)
(24.1495 0.00191756 0)
(23.9364 0.00156302 0)
(23.7645 0.00129291 0)
(23.6247 0.00108371 0)
(23.51 0.000917926 0)
(23.4152 0.000784545 0)
(23.3364 0.000675956 0)
(23.2704 0.000587248 0)
(23.2146 0.000512465 0)
(23.1676 0.000449179 0)
(23.1276 0.000396932 0)
(23.0934 0.000351605 0)
(23.0641 0.00031241 0)
(23.0389 0.000279525 0)
(23.017 0.000250522 0)
(22.9981 0.000225108 0)
(22.9817 0.000203017 0)
(22.9674 0.00018416 0)
(22.9548 0.000166887 0)
(22.9439 0.000151819 0)
(22.9342 0.000138891 0)
(22.9257 0.000126929 0)
(22.9181 0.0001164 0)
(22.9115 0.000107077 0)
(22.9056 9.8841e-05 0)
(22.9003 9.01092e-05 0)
(22.8957 8.27249e-05 0)
(22.8916 7.66478e-05 0)
(22.8879 7.02363e-05 0)
(22.8847 6.36711e-05 0)
(22.8819 5.70497e-05 0)
(22.8795 5.01162e-05 0)
(22.8775 4.2689e-05 0)
(22.8758 3.40933e-05 0)
(22.8746 2.43187e-05 0)
(22.8738 1.30893e-05 0)
(22.8735 -7.62402e-07 0)
(22.8738 -1.80327e-05 0)
(22.8747 -3.92078e-05 0)
(22.8763 -6.45364e-05 0)
(22.8787 -9.64756e-05 0)
(22.8821 -0.000134458 0)
(22.8865 -0.000180703 0)
(22.8922 -0.000236987 0)
(22.8994 -0.000304976 0)
(22.9082 -0.000387435 0)
(22.9189 -0.000484705 0)
(22.9317 -0.000601137 0)
(22.9469 -0.000738606 0)
(22.9649 -0.000900886 0)
(22.986 -0.00109094 0)
(23.0105 -0.00131351 0)
(23.0387 -0.0015742 0)
(23.0714 -0.0018783 0)
(23.1087 -0.0022334 0)
(23.1516 -0.00264879 0)
(23.1922 -0.00306481 0)
(23.2272 -0.00343393 0)
(23.2641 -0.00382347 0)
(23.3032 -0.00425444 0)
(23.3444 -0.00472855 0)
(23.3879 -0.00522828 0)
(23.4335 -0.0057969 0)
(23.4817 -0.0063837 0)
(23.5317 -0.00707698 0)
(23.5852 -0.00776567 0)
(23.6397 -0.00864251 0)
(23.6993 -0.00944055 0)
(23.758 -0.0106157 0)
(23.8256 -0.0115106 0)
(23.888 -0.0131979 0)
(23.9673 -0.0141365 0)
(24.0315 -0.0168136 0)
(24.1308 -0.0176528 0)
(24.1917 -0.0225463 0)
(24.3291 -0.022827 0)
(24.3726 -0.0338968 0)
(24.5936 -0.0320542 0)
(24.584 -0.0687203 0)
(25.0056 -0.0577425 0)
(24.8899 -0.285987 0)
(26.3694 -0.0051971 0)
(26.7367 0.0092667 0)
(27.1129 0.00502182 0)
(26.9242 0.00555438 0)
(26.5486 0.00481928 0)
(26.1893 0.00386151 0)
(25.8771 0.00312887 0)
(25.6147 0.00255517 0)
(25.3996 0.0020991 0)
(25.2238 0.00174554 0)
(25.0794 0.00146866 0)
(24.9601 0.00124751 0)
(24.861 0.00106856 0)
(24.7783 0.000922242 0)
(24.7088 0.000802302 0)
(24.65 0.000701026 0)
(24.6002 0.00061512 0)
(24.5578 0.000543973 0)
(24.5215 0.000482283 0)
(24.4903 0.000428857 0)
(24.4635 0.0003839 0)
(24.4402 0.000344296 0)
(24.42 0.000309564 0)
(24.4025 0.000279326 0)
(24.3872 0.000253448 0)
(24.3737 0.00022983 0)
(24.362 0.000209162 0)
(24.3516 0.000191383 0)
(24.3425 0.000174984 0)
(24.3344 0.000160518 0)
(24.3273 0.000147694 0)
(24.3209 0.00013636 0)
(24.3152 0.000124482 0)
(24.3103 0.000114299 0)
(24.3058 0.000105844 0)
(24.3019 9.70478e-05 0)
(24.2984 8.80522e-05 0)
(24.2954 7.89616e-05 0)
(24.2928 6.94419e-05 0)
(24.2906 5.92382e-05 0)
(24.2888 4.74753e-05 0)
(24.2874 3.40651e-05 0)
(24.2865 1.86271e-05 0)
(24.2862 -3.29359e-07 0)
(24.2863 -2.39553e-05 0)
(24.2872 -5.28924e-05 0)
(24.2888 -8.74984e-05 0)
(24.2912 -0.000131086 0)
(24.2947 -0.000183049 0)
(24.2992 -0.000246339 0)
(24.3051 -0.000323248 0)
(24.3124 -0.000416049 0)
(24.3215 -0.000528479 0)
(24.3325 -0.000661291 0)
(24.3457 -0.000820084 0)
(24.3614 -0.00100757 0)
(24.38 -0.00122866 0)
(24.4017 -0.00148774 0)
(24.4269 -0.00179078 0)
(24.456 -0.00214585 0)
(24.4897 -0.00255944 0)
(24.5281 -0.00304265 0)
(24.5723 -0.00360687 0)
(24.614 -0.00417005 0)
(24.65 -0.00467082 0)
(24.6879 -0.00519779 0)
(24.728 -0.00577904 0)
(24.7703 -0.00641866 0)
(24.8149 -0.00709332 0)
(24.8616 -0.00785847 0)
(24.9109 -0.00864867 0)
(24.962 -0.00957992 0)
(25.0165 -0.0105041 0)
(25.072 -0.0116771 0)
(25.1325 -0.012744 0)
(25.1924 -0.0143051 0)
(25.2604 -0.0154984 0)
(25.324 -0.017723 0)
(25.4033 -0.0189705 0)
(25.4689 -0.0224736 0)
(25.5669 -0.0235806 0)
(25.6296 -0.0299251 0)
(25.7634 -0.0303061 0)
(25.8101 -0.0443434 0)
(26.0204 -0.0422832 0)
(26.0219 -0.0854229 0)
(26.3981 -0.0784738 0)
(26.3125 -0.297813 0)
(26.8281 -0.0127109 0)
(27.4702 0.00794441 0)
(28.0746 0.00449361 0)
(28.0727 0.0061344 0)
(27.8112 0.00576162 0)
(27.5115 0.004808 0)
(27.2279 0.00399447 0)
(26.9777 0.00331433 0)
(26.7663 0.00275083 0)
(26.5903 0.00230345 0)
(26.4437 0.00194778 0)
(26.3215 0.00166063 0)
(26.2192 0.00142648 0)
(26.1334 0.00123391 0)
(26.0609 0.00107535 0)
(25.9994 0.000941117 0)
(25.9472 0.000826934 0)
(25.9026 0.000732015 0)
(25.8643 0.000649703 0)
(25.8314 0.000578301 0)
(25.803 0.00051802 0)
(25.7783 0.000464951 0)
(25.7569 0.000418371 0)
(25.7382 0.000377751 0)
(25.722 0.000342888 0)
(25.7076 0.000311172 0)
(25.6951 0.000283335 0)
(25.6841 0.000259328 0)
(25.6743 0.000237241 0)
(25.6657 0.000217714 0)
(25.658 0.000200386 0)
(25.6512 0.000185057 0)
(25.6451 0.000169178 0)
(25.6398 0.000155401 0)
(25.635 0.000143852 0)
(25.6308 0.000131991 0)
(25.627 0.000119892 0)
(25.6237 0.000107652 0)
(25.6209 9.48395e-05 0)
(25.6185 8.11063e-05 0)
(25.6165 6.53478e-05 0)
(25.6151 4.73565e-05 0)
(25.614 2.66081e-05 0)
(25.6135 1.24065e-06 0)
(25.6136 -3.03168e-05 0)
(25.6144 -6.89494e-05 0)
(25.616 -0.000115168 0)
(25.6184 -0.000173212 0)
(25.6218 -0.000242585 0)
(25.6264 -0.000327122 0)
(25.6323 -0.000429692 0)
(25.6398 -0.000553355 0)
(25.649 -0.000702972 0)
(25.6602 -0.000879963 0)
(25.6737 -0.00109133 0)
(25.6897 -0.00134085 0)
(25.7085 -0.00163486 0)
(25.7306 -0.00197942 0)
(25.7563 -0.00238213 0)
(25.786 -0.00285387 0)
(25.8202 -0.00340281 0)
(25.8593 -0.00404407 0)
(25.9042 -0.00479202 0)
(25.9467 -0.00553583 0)
(25.9832 -0.00619848 0)
(26.0217 -0.00689443 0)
(26.0624 -0.00765969 0)
(26.1053 -0.00850108 0)
(26.1504 -0.00938943 0)
(26.1977 -0.0103932 0)
(26.2474 -0.0114314 0)
(26.2991 -0.0126498 0)
(26.3539 -0.0138608 0)
(26.4101 -0.0153876 0)
(26.4707 -0.0167831 0)
(26.531 -0.0187983 0)
(26.5989 -0.0203607 0)
(26.663 -0.023206 0)
(26.7413 -0.0248484 0)
(26.8076 -0.0292838 0)
(26.9036 -0.0307701 0)
(26.9675 -0.0387009 0)
(27.0965 -0.0393771 0)
(27.1466 -0.0564421 0)
(27.3437 -0.0548681 0)
(27.3567 -0.103478 0)
(27.6906 -0.102313 0)
(27.6207 -0.308241 0)
(27.2572 -0.022521 0)
(28.1155 0.00565327 0)
(28.9033 0.00322902 0)
(29.0776 0.0063221 0)
(28.9437 0.00656721 0)
(28.7219 0.005763 0)
(28.482 0.00494252 0)
(28.2546 0.00418621 0)
(28.0543 0.00352168 0)
(27.8829 0.0029763 0)
(27.7374 0.00253349 0)
(27.6145 0.0021707 0)
(27.5107 0.00187172 0)
(27.4228 0.00162388 0)
(27.3482 0.00141856 0)
(27.2845 0.00124408 0)
(27.2303 0.00109511 0)
(27.1837 0.000970715 0)
(27.1437 0.000862738 0)
(27.1091 0.000768892 0)
(27.0792 0.000689364 0)
(27.0533 0.000619356 0)
(27.0307 0.000557846 0)
(27.011 0.000504108 0)
(26.9937 0.000457836 0)
(26.9785 0.000415857 0)
(26.9653 0.000378911 0)
(26.9535 0.000346962 0)
(26.9431 0.000317627 0)
(26.9339 0.000291634 0)
(26.9257 0.000268545 0)
(26.9184 0.00024809 0)
(26.912 0.000227143 0)
(26.9062 0.000208783 0)
(26.9011 0.000193233 0)
(26.8966 0.000177448 0)
(26.8925 0.000161407 0)
(26.889 0.000145173 0)
(26.8859 0.000128197 0)
(26.8833 0.000110007 0)
(26.8812 8.92446e-05 0)
(26.8795 6.55316e-05 0)
(26.8783 3.81409e-05 0)
(26.8777 4.7866e-06 0)
(26.8777 -3.65803e-05 0)
(26.8784 -8.71866e-05 0)
(26.8798 -0.000147792 0)
(26.8822 -0.000223622 0)
(26.8856 -0.000314456 0)
(26.8901 -0.000425174 0)
(26.896 -0.000559336 0)
(26.9035 -0.000720987 0)
(26.9128 -0.000916249 0)
(26.924 -0.00114758 0)
(26.9376 -0.00142349 0)
(26.9537 -0.00174911 0)
(26.9727 -0.00213257 0)
(26.9949 -0.00258186 0)
(27.0208 -0.00310665 0)
(27.0507 -0.00372108 0)
(27.0852 -0.00443547 0)
(27.1245 -0.00526966 0)
(27.1698 -0.00624204 0)
(27.2125 -0.00720553 0)
(27.2491 -0.00806474 0)
(27.2879 -0.00896625 0)
(27.3287 -0.00995445 0)
(27.3718 -0.0110396 0)
(27.417 -0.0121863 0)
(27.4644 -0.0134769 0)
(27.5142 -0.0148148 0)
(27.5659 -0.0163758 0)
(27.6206 -0.0179333 0)
(27.6766 -0.0198786 0)
(27.7369 -0.0216725 0)
(27.7971 -0.024217 0)
(27.8642 -0.0262328 0)
(27.9282 -0.0297873 0)
(28.0051 -0.0319327 0)
(28.0716 -0.0374038 0)
(28.1646 -0.0394261 0)
(28.2295 -0.0490427 0)
(28.3525 -0.0503283 0)
(28.4061 -0.0703337 0)
(28.5889 -0.0701627 0)
(28.6117 -0.123043 0)
(28.9078 -0.12885 0)
(28.8451 -0.317789 0)
(27.6702 -0.0350454 0)
(28.7008 0.00221798 0)
(29.6317 0.00105994 0)
(29.9614 0.00594523 0)
(29.958 0.00708482 0)
(29.8276 0.00661876 0)
(29.646 0.00590849 0)
(29.4534 0.00513835 0)
(29.2729 0.00439961 0)
(29.1124 0.0037641 0)
(28.9725 0.00323262 0)
(28.852 0.00278811 0)
(28.7487 0.00241636 0)
(28.6604 0.00210482 0)
(28.5848 0.00184454 0)
(28.5198 0.00162211 0)
(28.4641 0.00143127 0)
(28.4161 0.00127102 0)
(28.3746 0.00113161 0)
(28.3387 0.00101017 0)
(28.3076 0.000906794 0)
(28.2804 0.000815729 0)
(28.2568 0.000735612 0)
(28.2361 0.000665474 0)
(28.2179 0.000604857 0)
(28.2019 0.000549982 0)
(28.1878 0.000501559 0)
(28.1754 0.000459562 0)
(28.1644 0.000421057 0)
(28.1546 0.000386863 0)
(28.1459 0.00035645 0)
(28.1382 0.00032945 0)
(28.1313 0.00030212 0)
(28.1251 0.000277959 0)
(28.1197 0.000257269 0)
(28.1148 0.000236479 0)
(28.1105 0.000215455 0)
(28.1067 0.000194186 0)
(28.1033 0.000171976 0)
(28.1005 0.000148191 0)
(28.0982 0.000121203 0)
(28.0963 9.03968e-05 0)
(28.095 5.47613e-05 0)
(28.0942 1.15263e-05 0)
(28.094 -4.18824e-05 0)
(28.0946 -0.000107131 0)
(28.0959 -0.000185387 0)
(28.0981 -0.000282923 0)
(28.1014 -0.000399976 0)
(28.1059 -0.000542658 0)
(28.1117 -0.000715352 0)
(28.1191 -0.000923334 0)
(28.1283 -0.00117411 0)
(28.1395 -0.00147164 0)
(28.153 -0.00182601 0)
(28.1691 -0.00224415 0)
(28.1881 -0.00273626 0)
(28.2102 -0.0033127 0)
(28.2361 -0.00398555 0)
(28.2659 -0.00477289 0)
(28.3004 -0.00568759 0)
(28.3396 -0.00675507 0)
(28.3847 -0.00799917 0)
(28.4273 -0.00922764 0)
(28.4638 -0.0103231 0)
(28.5024 -0.0114723 0)
(28.543 -0.0127282 0)
(28.5859 -0.0141053 0)
(28.6308 -0.0155618 0)
(28.6779 -0.0171944 0)
(28.7273 -0.0188914 0)
(28.7786 -0.0208583 0)
(28.8327 -0.0228311 0)
(28.8883 -0.0252681 0)
(28.9477 -0.0275419 0)
(29.0074 -0.0306997 0)
(29.0733 -0.0332688 0)
(29.1367 -0.0376271 0)
(29.2117 -0.0404097 0)
(29.2778 -0.0470156 0)
(29.3675 -0.0497848 0)
(29.4329 -0.0611448 0)
(29.5494 -0.0634734 0)
(29.606 -0.0862058 0)
(29.7743 -0.0884624 0)
(29.8041 -0.144279 0)
(30.0664 -0.157792 0)
(30.0078 -0.326811 0)
(28.0783 -0.0507638 0)
(29.2471 -0.00257064 0)
(30.2869 -0.00219297 0)
(30.7467 0.00482453 0)
(30.8669 0.00713826 0)
(30.8345 0.00722767 0)
(30.7229 0.00678665 0)
(30.5769 0.00610377 0)
(30.4262 0.00534678 0)
(30.284 0.00464869 0)
(30.1553 0.00403961 0)
(30.0413 0.00351512 0)
(29.9417 0.00306732 0)
(29.8552 0.00268629 0)
(29.7802 0.00236424 0)
(29.7152 0.00208671 0)
(29.659 0.00184702 0)
(29.6102 0.0016443 0)
(29.5678 0.0014673 0)
(29.531 0.00131261 0)
(29.4989 0.00118024 0)
(29.4708 0.00106343 0)
(29.4462 0.000960475 0)
(29.4247 0.000870127 0)
(29.4057 0.000791702 0)
(29.389 0.00072081 0)
(29.3742 0.000658091 0)
(29.3611 0.000603509 0)
(29.3495 0.000553514 0)
(29.3392 0.000509016 0)
(29.33 0.000469372 0)
(29.3218 0.000434076 0)
(29.3145 0.00039876 0)
(29.308 0.000367318 0)
(29.3022 0.000340073 0)
(29.2969 0.000312938 0)
(29.2923 0.00028565 0)
(29.2882 0.000258074 0)
(29.2847 0.000229323 0)
(29.2816 0.000198559 0)
(29.279 0.00016387 0)
(29.277 0.000124328 0)
(29.2754 7.85291e-05 0)
(29.2745 2.31501e-05 0)
(29.2741 -4.49405e-05 0)
(29.2745 -0.000127942 0)
(29.2757 -0.000227671 0)
(29.2778 -0.000351499 0)