/*--------------------------------*- C++ -*----------------------------------*\
| =========                 |                                                 |
| \\      /  F ield         | OpenFOAM: The Open Source CFD Toolbox           |
|  \\    /   O peration     | Version:  2306                                  |
|   \\  /    A nd           | Website:  www.openfoam.com                      |
|    \\/     M anipulation  |                                                 |
\*---------------------------------------------------------------------------*/
FoamFile
{
    version     2.0;
    format      ascii;
    arch        "LSB;label=32;scalar=64";
    class       volVectorField;
    location    "1900";
    object      wallShearStress;
}
// * * * * * * * * * * * * * * * * * * * * * * * * * * * * * * * * * * * * * //

dimensions      [0 2 -2 0 0 0 0];

internalField   uniform (0 0 0);

boundaryField
{
    inlet
    {
        type            calculated;
        value           uniform (0 0 0);
    }
    outlet
    {
        type            calculated;
        value           uniform (0 0 0);
    }
    lowerWallStartup
    {
        type            symmetryPlane;
    }
    upperWallStartup
    {
        type            symmetryPlane;
    }
    upperWall
    {
        type            calculated;
        value           nonuniform List<vector> 
218
(
(-10.921 0.00558516 0)
(-6.19105 0.0011433 0)
(-5.3799 0.000241125 0)
(-4.93076 0.000132309 0)
(-4.6561 8.16758e-05 0)
(-4.47903 5.48635e-05 0)
(-4.356 3.95936e-05 0)
(-4.26605 2.99851e-05 0)
(-4.19832 2.34649e-05 0)
(-4.14604 1.8842e-05 0)
(-4.1048 1.54311e-05 0)
(-4.0718 1.28446e-05 0)
(-4.045 1.08104e-05 0)
(-4.02312 9.21947e-06 0)
(-4.0049 7.90871e-06 0)
(-3.98987 6.83049e-06 0)
(-3.97718 5.9601e-06 0)
(-3.96652 5.20083e-06 0)
(-3.95752 4.59072e-06 0)
(-3.94977 4.05971e-06 0)
(-3.94324 3.58834e-06 0)
(-3.93759 3.21311e-06 0)
(-3.93274 2.87422e-06 0)
(-3.92852 2.57962e-06 0)
(-3.9249 2.32129e-06 0)
(-3.92171 2.09778e-06 0)
(-3.91897 1.90815e-06 0)
(-3.91653 1.74089e-06 0)
(-3.91441 1.57988e-06 0)
(-3.91254 1.45295e-06 0)
(-3.91086 1.34919e-06 0)
(-3.9094 1.21872e-06 0)
(-3.9081 1.13799e-06 0)
(-3.90694 1.04051e-06 0)
(-3.90589 9.91109e-07 0)
(-3.90495 8.96176e-07 0)
(-3.9041 8.81632e-07 0)
(-3.9033 8.07691e-07 0)
(-3.90257 8.11209e-07 0)
(-3.90187 7.68604e-07 0)
(-3.90118 8.14607e-07 0)
(-3.90052 7.72707e-07 0)
(-3.89983 8.6262e-07 0)
(-3.89913 8.72211e-07 0)
(-3.89836 1.00735e-06 0)
(-3.89755 1.07009e-06 0)
(-3.89662 1.28239e-06 0)
(-3.8956 1.4378e-06 0)
(-3.89441 1.73736e-06 0)
(-3.89305 2.03639e-06 0)
(-3.89147 2.45356e-06 0)
(-3.88964 2.94075e-06 0)
(-3.8875 3.52895e-06 0)
(-3.88504 4.25327e-06 0)
(-3.88216 5.01814e-06 0)
(-3.8789 5.99229e-06 0)
(-3.87514 7.01903e-06 0)
(-3.87092 8.23306e-06 0)
(-3.86613 9.56926e-06 0)
(-3.86083 1.10466e-05 0)
(-3.85486 1.27131e-05 0)
(-3.84838 1.4477e-05 0)
(-3.84114 1.65109e-05 0)
(-3.83465 1.79387e-05 0)
(-3.82926 1.90015e-05 0)
(-3.82386 2.04596e-05 0)
(-3.81829 2.17821e-05 0)
(-3.81271 2.32565e-05 0)
(-3.80702 2.44232e-05 0)
(-3.80136 2.6097e-05 0)
(-3.79564 2.69615e-05 0)
(-3.78999 2.87744e-05 0)
(-3.78433 2.95219e-05 0)
(-3.77876 3.10745e-05 0)
(-3.77321 3.21247e-05 0)
(-3.76778 3.29456e-05 0)
(-3.76241 3.46951e-05 0)
(-3.75713 3.44805e-05 0)
(-3.75202 3.69253e-05 0)
(-3.74694 3.63512e-05 0)
(-3.74204 3.90211e-05 0)
(-3.73727 3.78843e-05 0)
(-3.73249 4.11236e-05 0)
(-3.72826 3.84864e-05 0)
(-3.72327 4.2625e-05 0)
(-3.72027 4.16082e-05 0)
(-3.71371 4.17191e-05 0)
(-3.71395 8.85183e-05 0)
(-3.70587 0.00012001 -1.55497e-20)
(-3.7007 0.000126313 0)
(-3.6949 0.000129134 1.54415e-20)
(-3.69121 0.000134836 -1.53868e-20)
(-3.68474 0.000134297 0)
(-3.68109 0.000132519 -1.52752e-20)
(-3.67465 0.000133481 0)
(-3.67101 0.000133463 0)
(-3.6644 0.000134446 0)
(-3.66073 0.000133979 0)
(-3.65398 0.00013475 1.49747e-20)
(-3.65026 0.00013468 0)
(-3.64337 0.000134779 -1.48449e-20)
(-3.63959 0.000135177 0)
(-3.63256 0.000134984 -1.47098e-20)
(-3.62874 0.000135294 1.4639e-20)
(-3.62157 0.000135157 0)
(-3.6177 0.000135106 1.44961e-20)
(-3.61044 0.000135407 0)
(-3.60652 0.000134791 -1.43481e-20)
(-3.59915 0.000135526 0)
(-3.59518 0.000134877 0)
(-3.58769 0.000135553 0)
(-3.58365 0.000134919 0)
(-3.57605 0.000135416 0)
(-3.57196 0.000134663 0)
(-3.56427 0.000135033 0)
(-3.56012 0.00013497 1.37055e-20)
(-3.55234 0.000134478 -1.3621e-20)
(-3.54814 0.000134891 1.35326e-20)
(-3.54026 0.000134147 -1.34458e-20)
(-3.53603 0.000134394 0)
(-3.52808 0.0001335 -1.32659e-20)
(-3.52382 0.000133811 0)
(-3.51581 0.000132936 -1.30816e-20)
(-3.51153 0.000133096 0)
(-3.50346 0.000132679 0)
(-3.49917 0.000131979 -1.27955e-20)
(-3.49105 0.000131979 0)
(-3.48675 0.000131036 -1.26006e-20)
(-3.47859 0.000131022 0)
(-3.47429 0.000130132 -1.24018e-20)
(-3.46609 0.000130154 0)
(-3.46179 0.000129228 -1.21993e-20)
(-3.45355 0.000129049 0)
(-3.44926 0.000128661 0)
(-3.44099 0.000127511 -1.18903e-20)
(-3.43671 0.000127569 0)
(-3.42843 0.000126276 -1.16794e-20)
(-3.42417 0.000126309 0)
(-3.4159 0.000124928 -1.14655e-20)
(-3.41168 0.000124978 0)
(-3.40341 0.00012367 -1.12489e-20)
(-3.39924 0.000123507 0)
(-3.39099 0.000122812 0)
(-3.38686 0.00012175 -1.09181e-20)
(-3.37862 0.000121607 0)
(-3.37456 0.000120264 -1.06958e-20)
(-3.36635 0.000120069 0)
(-3.36234 0.000118623 -1.04717e-20)
(-3.35417 0.000118459 0)
(-3.35023 0.000117035 0)
(-3.3421 0.000116684 -1.01337e-20)
(-3.33823 0.000115861 -1.00188e-20)
(-3.33015 0.000114542 0)
(-3.32636 0.000114226 -9.7907e-21)
(-3.31833 0.00011282 0)
(-3.31463 0.000112423 -9.56175e-21)
(-3.30666 0.000110977 0)
(-3.30306 0.000110566 -9.33226e-21)
(-3.29516 0.000109197 0)
(-3.29167 0.000108518 -9.10245e-21)
(-3.28385 0.000107694 -8.98853e-21)
(-3.28046 0.000106161 0)
(-3.27273 0.000105906 -8.75875e-21)
(-3.26944 0.000104298 0)
(-3.26179 0.000104098 -8.52933e-21)
(-3.25861 0.00010242 0)
(-3.25105 0.000102144 0)
(-3.24798 0.000100863 -8.18544e-21)
(-3.24051 9.96973e-05 8.07246e-21)
(-3.23756 9.8918e-05 -7.95794e-21)
(-3.2302 9.76926e-05 7.84548e-21)
(-3.22737 9.68926e-05 0)
(-3.22012 9.57667e-05 0)
(-3.21741 9.48574e-05 0)
(-3.21027 9.37323e-05 7.39551e-21)
(-3.20769 9.27403e-05 0)
(-3.20065 9.23026e-05 0)
(-3.19821 9.01837e-05 0)
(-3.19125 9.05658e-05 0)
(-3.18899 8.80002e-05 0)
(-3.18206 8.89385e-05 0)
(-3.18006 8.52934e-05 0)
(-3.17304 8.81491e-05 -6.51753e-21)
(-3.17149 8.54299e-05 6.40838e-21)
(-3.1635 6.46202e-05 0)
(-3.16267 6.19085e-05 0)
(-3.15999 6.12067e-05 -1.61552e-21)
(-3.15624 5.74717e-05 1.38477e-21)
(-3.15216 5.7354e-05 2.36707e-21)
(-3.14747 5.84706e-05 2.0163e-21)
(-3.1421 5.88378e-05 3.42138e-21)
(-3.13611 5.92232e-05 2.88927e-21)
(-3.12938 6.04719e-05 2.4265e-21)
(-3.12196 6.18101e-05 0)
(-3.11375 6.33389e-05 3.35187e-21)
(-3.10485 6.66409e-05 0)
(-3.09519 6.95605e-05 -4.4562e-21)
(-3.08503 7.49671e-05 0)
(-3.07421 8.01886e-05 0)
(-3.06322 8.72713e-05 0)
(-3.05218 9.61644e-05 0)
(-3.04122 0.000106749 0)
(-3.03121 0.000116757 0)
(-3.02209 0.000128436 3.87234e-21)
(-3.01448 0.000138052 0)
(-3.00858 0.000146038 -1.35758e-21)
(-3.00536 0.000148758 -5.87675e-22)
(-3.00319 0.000148777 1.80248e-21)
(-3.00506 0.000133916 0)
(-3.00606 0.000120624 5.53009e-21)
(-3.01275 7.14408e-05 0)
(-3.01518 5.89296e-05 0)
(-3.02829 -8.90587e-05 0)
(-3.02846 -2.37684e-05 0)
(-3.05401 -0.000560144 0)
(-3.04223 4.99712e-05 0)
(-3.11878 -0.002885 -2.92092e-20)
(-2.89522 -0.000946857 0)
)
;
    }
    lowerWall
    {
        type            calculated;
        value           nonuniform List<vector> 
266
(
(-11.0455 -0.00557973 0)
(-6.24086 -0.00121379 0)
(-5.42142 -0.000254402 0)
(-4.96952 -0.00013965 0)
(-4.69108 -8.67837e-05 0)
(-4.51048 -5.86183e-05 0)
(-4.38443 -4.24776e-05 0)
(-4.29196 -3.22658e-05 0)
(-4.22218 -2.53041e-05 0)
(-4.16821 -2.03517e-05 0)
(-4.1256 -1.66973e-05 0)
(-4.09143 -1.39128e-05 0)
(-4.06368 -1.17383e-05 0)
(-4.04091 -1.00073e-05 0)
(-4.02206 -8.62106e-06 0)
(-4.00629 -7.45859e-06 0)
(-3.99313 -6.49295e-06 0)
(-3.98198 -5.71393e-06 0)
(-3.97249 -5.02881e-06 0)
(-3.96445 -4.4474e-06 0)
(-3.95754 -3.96977e-06 0)
(-3.95158 -3.54103e-06 0)
(-3.94647 -3.1701e-06 0)
(-3.94203 -2.85206e-06 0)
(-3.93818 -2.58564e-06 0)
(-3.93479 -2.33233e-06 0)
(-3.93189 -2.11821e-06 0)
(-3.92928 -1.94125e-06 0)
(-3.92703 -1.76999e-06 0)
(-3.92502 -1.62035e-06 0)
(-3.92326 -1.49152e-06 0)
(-3.92168 -1.37941e-06 0)
(-3.9203 -1.24496e-06 0)
(-3.9191 -1.14976e-06 0)
(-3.918 -1.07761e-06 0)
(-3.91703 -9.88399e-07 0)
(-3.91618 -9.00979e-07 0)
(-3.91544 -8.17583e-07 0)
(-3.91479 -7.33663e-07 0)
(-3.91425 -6.48111e-07 0)
(-3.91379 -5.4991e-07 0)
(-3.91344 -4.48655e-07 0)
(-3.91319 -3.39256e-07 0)
(-3.91304 -1.9906e-07 0)
(-3.91302 -3.38114e-08 0)
(-3.91313 1.94924e-07 0)
(-3.91343 4.41431e-07 0)
(-3.91388 7.16548e-07 0)
(-3.91455 1.06447e-06 0)
(-3.91544 1.50243e-06 0)
(-3.91662 2.02202e-06 0)
(-3.91808 2.66592e-06 0)
(-3.91994 3.45315e-06 0)
(-3.92219 4.35513e-06 0)
(-3.9249 5.46945e-06 0)
(-3.92814 6.77753e-06 0)
(-3.93196 8.3381e-06 0)
(-3.93647 1.01168e-05 0)
(-3.94169 1.22279e-05 0)
(-3.94778 1.45967e-05 0)
(-3.95476 1.74354e-05 0)
(-3.96284 2.05438e-05 0)
(-3.97205 2.4092e-05 0)
(-3.98085 2.87472e-05 0)
(-3.98835 3.2558e-05 0)
(-3.99641 3.70224e-05 0)
(-4.00494 4.07878e-05 0)
(-4.0141 4.53528e-05 0)
(-4.02366 4.91611e-05 0)
(-4.03387 5.48346e-05 0)
(-4.0446 5.90403e-05 0)
(-4.05595 6.51314e-05 0)
(-4.06796 7.03306e-05 0)
(-4.0806 7.69518e-05 0)
(-4.09407 8.42926e-05 0)
(-4.10819 9.15605e-05 0)
(-4.12363 0.000103071 0)
(-4.13946 0.000108169 0)
(-4.15803 0.000128472 0)
(-4.17592 0.000125821 0)
(-4.20032 0.000164132 0)
(-4.21966 0.000161577 0)
(-4.25742 0.000212507 0)
(-4.27192 0.000291558 0)
(-4.34497 0.000454684 0)
(-4.35185 0.00135112 0)
(-4.56651 -0.00326522 0)
(-4.08146 0.145163 0)
(1357.2 -40602.4 0)
(-0.00982526 -0.000772048 0)
(-0.00741164 1.1858e-05 1.18656e-23)
(-0.0049661 0.000664471 -9.93815e-24)
(-0.00251396 0.000964814 -0)
(-0.00357272 0.0011794 0)
(-0.00416605 0.00132385 0)
(-0.00423847 0.0014241 0)
(-0.00398639 0.00147064 0)
(-0.00369788 0.00148074 -1.70556e-22)
(-0.00341198 0.00147211 1.89225e-22)
(-0.00311396 0.00145757 -4.27539e-22)
(-0.00278922 0.00144409 5.34512e-22)
(-0.00243366 0.00143426 -0)
(-0.00205122 0.00142788 1.84154e-21)
(-0.00165078 0.00142345 -2.58119e-21)
(-0.00124245 0.00141916 -0)
(-0.000830316 0.00141231 0)
(-0.000398999 0.00139362 -0)
(0.0001063 0.00132906 5.45156e-20)
(0.000796109 0.0011172 -9.17449e-20)
(0.0018295 0.000530749 3.28095e-19)
(0.00338366 -0.000834519 -6.28659e-19)
(0.00595714 -0.00390399 0)
(0.00837539 -0.0101491 2.32428e-18)
(0.00865117 -0.0162111 -1.85196e-18)
(0.00798189 -0.0213295 0)
(0.00684957 -0.0257413 0)
(0.00541537 -0.0291094 0)
(0.00425405 -0.0312575 0)
(0.00370869 -0.0328046 0)
(0.00370134 -0.0320428 0)
(0.00956297 -0.0266279 -1.32883e-18)
(0.017644 -0.0340622 -2.12484e-21)
(0.0143129 -0.0435076 1.11817e-18)
(0.012737 -0.0448387 0)
(0.0113312 -0.0424129 0)
(0.0111134 -0.0388669 0)
(0.0109508 -0.0369399 0)
(0.00895824 -0.0398881 0)
(0.00408619 -0.0572342 4.27344e-19)
(-0.00865423 -0.110594 -3.88701e-19)
(-0.0366646 -0.222719 0)
(-0.0894071 -0.412777 0)
(-0.16716 -0.621279 0)
(-0.257627 -0.768785 -1.16101e-19)
(-0.339781 -0.842258 1.17641e-19)
(-0.40344 -0.919569 0)
(-0.274474 -0.0521858 0)
(0.212747 -0.00236229 -1.13626e-22)
(-0.0289161 0.00451239 -0)
(-0.00299719 -0.000321261 -8.38117e-22)
(-0.00912133 -2.38843e-05 -0)
(-0.0094419 2.48123e-05 0)
(-0.00175005 6.15483e-05 0)
(0.00779682 7.72186e-05 0)
(0.0177788 8.8484e-05 0)
(0.0302525 0.000103653 -3.55858e-22)
(0.0451765 0.000118942 0)
(0.0625821 0.000135483 0)
(0.0822135 0.000157629 0)
(0.103914 0.000171743 0)
(0.125133 -0.00131153 0)
(3.15484 -0.0476439 0)
(0.181981 -0.000878653 0)
(0.215503 -0.000204452 0)
(0.253629 -0.000229616 0)
(0.295668 -0.000248762 0)
(0.341682 -0.000269194 2.3836e-22)
(0.392454 -0.00029516 0)
(0.448209 -0.000322126 2.38431e-22)
(0.509206 -0.000350905 0)
(0.575342 -0.000374128 2.3856e-22)
(0.646553 -0.000396856 0)
(0.722727 -0.000417529 2.38636e-22)
(0.803846 -0.00044397 0)
(0.889703 -0.000474267 0)
(0.979892 -0.000509965 0)
(1.07359 -0.000544704 2.3779e-22)
(1.16974 -0.000574171 2.37144e-22)
(1.26715 -0.000595225 2.36244e-22)
(1.36468 -0.000604883 2.35068e-22)
(1.46141 -0.000606386 2.33603e-22)
(1.55656 -0.000600481 0)
(1.64963 -0.000590859 0)
(1.74015 -0.000580738 2.27499e-22)
(1.82776 -0.000570097 2.24911e-22)
(1.91208 -0.00056347 2.22044e-22)
(1.99264 -0.000557414 2.1889e-22)
(2.06884 -0.000554007 2.15436e-22)
(2.13962 -0.000550823 2.11668e-22)
(2.20458 -0.000552432 0)
(2.26373 -0.000556737 2.0312e-22)
(2.3164 -0.000557229 1.98315e-22)
(2.36197 -0.000555909 1.93156e-22)
(2.3999 -0.000546292 1.87656e-22)
(2.42971 -0.000533303 1.81837e-22)
(2.45102 -0.000510642 1.75731e-22)
(2.46358 -0.000484608 0)
(2.46721 -0.000451176 1.62816e-22)
(2.46186 -0.000415466 1.56094e-22)
(2.4475 -0.000376582 1.49253e-22)
(2.42423 -0.000336751 1.42338e-22)
(2.39211 -0.000297443 1.35381e-22)
(2.3512 -0.000257911 1.28417e-22)
(2.30162 -0.000221003 0)
(2.24336 -0.000183307 1.14557e-22)
(2.17647 -0.000147415 0)
(2.10087 -0.00010911 0)
(2.0165 -6.91317e-05 0)
(1.92325 -2.36046e-05 -8.75278e-23)
(1.82089 2.91812e-05 -0)
(1.70937 9.19437e-05 0)
(1.58795 0.000170264 0)
(1.4569 0.000263073 0)
(1.31454 0.000380815 0)
(1.16255 0.000520751 0)
(0.994802 0.000708395 -4.39901e-23)
(0.816673 0.00424638 -0)
(0.786465 0.00792779 0)
(0.546642 -0.00578343 0)
(0.279962 -0.00605404 -4.5515e-23)
(-8.88816e-05 2.58264e-05 -0)
(-0.207149 0.00143551 0)
(-0.397274 0.00120648 0)
(-0.577298 0.00101274 0)
(-0.745039 0.000846387 0)
(-0.902971 0.000706169 -0)
(-1.05095 0.000589627 9.67416e-25)
(-1.19029 0.000492318 0)
(-1.32118 0.000412802 -0)
(-1.44461 0.000346806 9.52275e-24)
(-1.56058 0.000293087 -0)
(-1.67023 0.000249021 1.44355e-23)
(-1.77288 0.000211702 0)
(-1.87056 0.000183582 0)
(-1.96105 0.00015503 -2.05873e-23)
(-2.04856 0.000140389 -0)
(-2.12739 0.000112755 2.39446e-23)
(-2.20694 0.000114216 0)
(-2.27367 7.64715e-05 -0)
(-2.34846 0.000103203 0)
(-2.40101 4.00786e-05 0)
(-2.47596 9.96622e-05 -0)
(-2.51202 2.98248e-06 3.08705e-23)
(-2.56271 0.000207729 0)
(-2.62085 7.72285e-05 -0)
(-2.65933 0.000129675 3.97455e-21)
(-2.71799 8.86949e-05 7.03065e-21)
(-2.76825 8.77911e-05 0)
(-2.82748 7.20847e-05 0)
(-2.88447 6.27583e-05 0)
(-2.94432 5.23338e-05 -0)
(-3.00235 4.41396e-05 0)
(-3.05913 3.83425e-05 -1.35748e-20)
(-3.11172 3.56694e-05 0)
(-3.15934 3.67628e-05 -2.04843e-20)
(-3.19913 4.20377e-05 1.75592e-20)
(-3.23091 5.11644e-05 0)
(-3.25133 6.41827e-05 0)
(-3.26283 7.94601e-05 -0)
(-3.26071 9.65988e-05 3.37343e-20)
(-3.25243 0.000113382 -2.7238e-20)
(-3.23025 0.000129051 0)
(-3.20954 0.000142405 3.42653e-20)
(-3.17564 0.000151313 0)
(-3.15512 0.000159811 4.17428e-20)
(-3.12094 0.000159874 0)
(-3.11425 0.000170035 0)
(-3.08926 0.000162888 0)
(-3.10393 0.000191457 0)
(-3.0905 0.000175902 0)
(-3.12427 0.000245816 8.20249e-20)
(-3.11691 0.000201576 -4.12738e-20)
(-3.15651 0.00034323 0)
(-3.15743 0.000228978 9.14308e-21)
(-3.15892 0.000458636 0)
(-3.22987 8.9214e-05 0)
)
;
    }
    front
    {
        type            empty;
    }
    back
    {
        type            empty;
    }
}


// ************************************************************************* //
