/*--------------------------------*- C++ -*----------------------------------*\
| =========                 |                                                 |
| \\      /  F ield         | OpenFOAM: The Open Source CFD Toolbox           |
|  \\    /   O peration     | Version:  2306                                  |
|   \\  /    A nd           | Website:  www.openfoam.com                      |
|    \\/     M anipulation  |                                                 |
\*---------------------------------------------------------------------------*/
FoamFile
{
    version     2.0;
    format      ascii;
    arch        "LSB;label=32;scalar=64";
    class       volScalarField;
    location    "1700";
    object      cp;
}
// * * * * * * * * * * * * * * * * * * * * * * * * * * * * * * * * * * * * * //

dimensions      [0 0 0 0 0 0 0];

internalField   nonuniform List<scalar> 
20540
(
1.5086
0.0875502
1.50858
0.0184298
1.50855
-0.0214278
1.50851
-0.034732
1.50847
-0.0398461
1.5084
-0.0436646
1.50832
-0.0469697
1.50822
-0.0496891
1.50808
-0.0519382
1.50792
-0.0538651
1.50771
-0.0555603
1.50746
-0.0570714
1.50714
-0.0584261
1.50675
-0.0596398
1.50627
-0.0607189
1.50569
-0.0616603
1.50497
-0.0624515
1.5041
-0.063069
1.50304
-0.0634762
1.50176
-0.0636189
1.50024
-0.0634217
1.49845
-0.0627811
1.49636
-0.0615603
1.49401
-0.0595841
1.49143
-0.056638
1.48879
-0.0524722
1.48636
-0.0468132
1.48467
-0.0394227
1.48454
-0.0303818
1.48665
-0.0207853
1.49013
-0.0138358
1.49255
-0.0103615
1.49241
-0.0107622
1.48982
-0.0149741
1.48644
-0.0224845
1.48456
-0.032184
1.48482
-0.0412331
1.48657
-0.0486802
1.48902
-0.054456
1.49168
-0.0587738
1.49428
-0.0618852
1.49668
-0.0640259
1.4988
-0.0654028
1.50065
-0.0661879
1.50222
-0.0665176
1.50354
-0.0664969
1.50464
-0.0662043
1.50556
-0.0656969
1.50632
-0.0650148
1.50694
-0.0641852
1.50745
-0.0632245
1.50787
-0.0621405
1.50821
-0.0609325
1.50849
-0.0595921
1.50872
-0.0581019
1.5089
-0.0564334
1.50905
-0.0545378
1.50916
-0.0523242
1.50926
-0.0496454
1.50933
-0.0463886
1.50939
-0.0426156
1.50944
-0.0374843
1.50947
-0.0240351
1.5095
0.0157675
1.50952
0.0839383
-0.0289975
-0.00086115
-0.0425352
-0.0331658
-0.0483113
-0.0495102
-0.0565433
-0.0604443
-0.065174
-0.0692226
-0.0731718
-0.0768679
-0.0803747
-0.0837005
-0.0868568
-0.089859
-0.0927139
-0.0954352
-0.0980274
-0.100502
-0.102863
-0.105119
-0.107276
-0.109339
-0.111312
-0.113203
-0.115013
-0.116749
-0.118413
-0.12001
-0.121543
-0.123014
-0.124427
-0.125786
-0.127092
-0.128348
-0.129557
-0.130721
-0.131843
-0.132926
-0.133972
-0.134983
-0.135963
-0.136915
-0.137843
-0.13875
-0.13964
-0.140519
-0.141393
-0.142267
-0.143149
-0.144046
-0.144968
-0.145924
-0.146928
-0.147992
-0.14913
-0.150362
-0.151702
-0.153176
-0.154797
-0.156602
-0.158606
-0.160503
-0.162135
-0.163857
-0.165669
-0.167585
-0.169602
-0.171734
-0.173976
-0.176342
-0.178826
-0.181452
-0.184211
-0.187142
-0.190229
-0.193543
-0.197031
-0.200837
-0.204813
-0.209285
-0.213898
-0.219424
-0.225064
-0.232822
-0.241257
-0.256506
-0.0290401
-0.000861066
-0.0425347
-0.0331654
-0.048311
-0.0495099
-0.0565431
-0.0604441
-0.0651739
-0.0692224
-0.0731717
-0.0768678
-0.0803746
-0.0837004
-0.0868567
-0.0898589
-0.0927138
-0.0954352
-0.0980273
-0.100502
-0.102863
-0.105119
-0.107275
-0.109339
-0.111312
-0.113203
-0.115013
-0.116749
-0.118413
-0.12001
-0.121542
-0.123014
-0.124427
-0.125786
-0.127092
-0.128348
-0.129557
-0.130721
-0.131843
-0.132926
-0.133972
-0.134983
-0.135963
-0.136915
-0.137843
-0.138749
-0.13964
-0.140519
-0.141393
-0.142267
-0.143149
-0.144046
-0.144968
-0.145924
-0.146928
-0.147992
-0.14913
-0.150362
-0.151702
-0.153176
-0.154797
-0.156602
-0.158606
-0.160503
-0.162135
-0.163857
-0.165669
-0.167585
-0.169602
-0.171734
-0.173976
-0.176342
-0.178827
-0.181452
-0.184211
-0.187142
-0.19023
-0.193543
-0.197032
-0.200837
-0.204814
-0.209286
-0.213899
-0.219425
-0.225065
-0.232828
-0.241238
-0.256423
-0.0291199
-0.000862422
-0.042534
-0.0331647
-0.0483105
-0.0495095
-0.0565428
-0.0604438
-0.0651736
-0.0692222
-0.0731715
-0.0768676
-0.0803744
-0.0837003
-0.0868565
-0.0898588
-0.0927137
-0.095435
-0.0980272
-0.100502
-0.102863
-0.105119
-0.107275
-0.109338
-0.111312
-0.113203
-0.115013
-0.116749
-0.118413
-0.12001
-0.121542
-0.123014
-0.124427
-0.125786
-0.127092
-0.128348
-0.129557
-0.130721
-0.131843
-0.132926
-0.133971
-0.134983
-0.135963
-0.136915
-0.137843
-0.138749
-0.13964
-0.140519
-0.141393
-0.142267
-0.143149
-0.144046
-0.144968
-0.145924
-0.146928
-0.147992
-0.14913
-0.150362
-0.151702
-0.153176
-0.154797
-0.156602
-0.158606
-0.160503
-0.162135
-0.163858
-0.16567
-0.167585
-0.169603
-0.171734
-0.173976
-0.176343
-0.178827
-0.181453
-0.184212
-0.187143
-0.190231
-0.193544
-0.197033
-0.200839
-0.204815
-0.209288
-0.213901
-0.219429
-0.225064
-0.232842
-0.241186
-0.256205
-0.029238
-0.000866804
-0.0425337
-0.0331637
-0.0483096
-0.0495087
-0.0565421
-0.0604432
-0.0651731
-0.0692217
-0.0731711
-0.0768672
-0.0803741
-0.0836999
-0.0868562
-0.0898585
-0.0927134
-0.0954348
-0.098027
-0.100501
-0.102862
-0.105119
-0.107275
-0.109338
-0.111312
-0.113203
-0.115013
-0.116749
-0.118413
-0.12001
-0.121542
-0.123014
-0.124427
-0.125785
-0.127091
-0.128348
-0.129557
-0.130721
-0.131843
-0.132926
-0.133971
-0.134983
-0.135963
-0.136915
-0.137842
-0.138749
-0.13964
-0.140519
-0.141393
-0.142267
-0.143149
-0.144046
-0.144968
-0.145924
-0.146928
-0.147992
-0.14913
-0.150362
-0.151702
-0.153176
-0.154797
-0.156603
-0.158606
-0.160504
-0.162136
-0.163858
-0.16567
-0.167586
-0.169603
-0.171735
-0.173977
-0.176344
-0.178828
-0.181454
-0.184213
-0.187144
-0.190232
-0.193546
-0.197035
-0.200841
-0.204818
-0.209292
-0.213902
-0.219435
-0.22506
-0.232866
-0.24107
-0.255937
-0.0294067
-0.000876939
-0.0425347
-0.0331626
-0.0483084
-0.0495075
-0.0565411
-0.0604423
-0.0651723
-0.069221
-0.0731704
-0.0768666
-0.0803735
-0.0836994
-0.0868557
-0.089858
-0.092713
-0.0954344
-0.0980266
-0.100501
-0.102862
-0.105119
-0.107275
-0.109338
-0.111312
-0.113202
-0.115013
-0.116749
-0.118413
-0.12001
-0.121542
-0.123014
-0.124427
-0.125785
-0.127091
-0.128347
-0.129556
-0.130721
-0.131843
-0.132926
-0.133971
-0.134983
-0.135963
-0.136915
-0.137842
-0.138749
-0.13964
-0.140519
-0.141393
-0.142267
-0.143149
-0.144046
-0.144968
-0.145924
-0.146928
-0.147992
-0.14913
-0.150362
-0.151703
-0.153176
-0.154798
-0.156603
-0.158606
-0.160504
-0.162136
-0.163859
-0.165671
-0.167586
-0.169604
-0.171736
-0.173978
-0.176345
-0.17883
-0.181456
-0.184215
-0.187147
-0.190235
-0.193549
-0.197038
-0.200845
-0.204821
-0.209297
-0.213904
-0.219444
-0.225049
-0.232892
-0.240891
-0.255544
-0.0296384
-0.000895991
-0.0425383
-0.0331622
-0.0483073
-0.0495061
-0.0565398
-0.0604411
-0.0651712
-0.06922
-0.0731695
-0.0768657
-0.0803727
-0.0836987
-0.086855
-0.0898574
-0.0927123
-0.0954338
-0.098026
-0.1005
-0.102862
-0.105118
-0.107274
-0.109338
-0.111311
-0.113202
-0.115012
-0.116748
-0.118412
-0.120009
-0.121542
-0.123013
-0.124427
-0.125785
-0.127091
-0.128347
-0.129556
-0.13072
-0.131843
-0.132925
-0.133971
-0.134982
-0.135962
-0.136915
-0.137842
-0.138749
-0.13964
-0.140519
-0.141393
-0.142267
-0.143148
-0.144046
-0.144967
-0.145924
-0.146928
-0.147992
-0.14913
-0.150363
-0.151703
-0.153176
-0.154798
-0.156603
-0.158607
-0.160505
-0.162137
-0.16386
-0.165672
-0.167587
-0.169605
-0.171738
-0.17398
-0.176347
-0.178832
-0.181458
-0.184218
-0.187149
-0.190238
-0.193552
-0.197041
-0.200849
-0.204824
-0.209302
-0.213903
-0.219451
-0.225029
-0.232904
-0.240646
-0.254979
-0.0299458
-0.000926819
-0.0425459
-0.0331629
-0.0483066
-0.0495048
-0.0565384
-0.0604396
-0.0651698
-0.0692187
-0.0731683
-0.0768646
-0.0803717
-0.0836977
-0.0868541
-0.0898565
-0.0927115
-0.095433
-0.0980253
-0.1005
-0.102861
-0.105118
-0.107274
-0.109337
-0.111311
-0.113201
-0.115012
-0.116748
-0.118412
-0.120009
-0.121541
-0.123013
-0.124426
-0.125784
-0.12709
-0.128347
-0.129556
-0.13072
-0.131842
-0.132925
-0.133971
-0.134982
-0.135962
-0.136914
-0.137842
-0.138749
-0.139639
-0.140519
-0.141392
-0.142266
-0.143148
-0.144045
-0.144967
-0.145924
-0.146927
-0.147992
-0.14913
-0.150363
-0.151703
-0.153176
-0.154798
-0.156604
-0.158608
-0.160506
-0.162138
-0.163861
-0.165673
-0.167589
-0.169607
-0.171739
-0.173982
-0.176349
-0.178834
-0.18146
-0.18422
-0.187152
-0.190241
-0.193556
-0.197044
-0.200853
-0.204825
-0.209305
-0.213898
-0.219455
-0.224993
-0.232891
-0.240323
-0.25421
-0.0303447
-0.000972066
-0.042559
-0.0331655
-0.0483067
-0.0495036
-0.056537
-0.0604381
-0.0651683
-0.0692173
-0.0731669
-0.0768633
-0.0803704
-0.0836965
-0.086853
-0.0898555
-0.0927105
-0.0954321
-0.0980244
-0.100499
-0.10286
-0.105117
-0.107273
-0.109336
-0.11131
-0.113201
-0.115011
-0.116747
-0.118411
-0.120008
-0.121541
-0.123012
-0.124426
-0.125784
-0.12709
-0.128346
-0.129555
-0.130719
-0.131842
-0.132924
-0.13397
-0.134981
-0.135962
-0.136914
-0.137841
-0.138748
-0.139639
-0.140518
-0.141392
-0.142266
-0.143148
-0.144045
-0.144967
-0.145924
-0.146927
-0.147991
-0.14913
-0.150363
-0.151703
-0.153176
-0.154798
-0.156604
-0.158608
-0.160506
-0.162139
-0.163862
-0.165674
-0.16759
-0.169608
-0.171741
-0.173984
-0.176351
-0.178836
-0.181463
-0.184223
-0.187155
-0.190243
-0.193559
-0.197046
-0.200855
-0.204824
-0.209306
-0.213886
-0.21945
-0.224935
-0.232839
-0.239908
-0.253208
-0.0308554
-0.00103479
-0.0425792
-0.0331708
-0.0483081
-0.049503
-0.0565358
-0.0604366
-0.0651667
-0.0692156
-0.0731653
-0.0768618
-0.080369
-0.0836951
-0.0868517
-0.0898542
-0.0927093
-0.0954309
-0.0980233
-0.100498
-0.102859
-0.105116
-0.107272
-0.109335
-0.111309
-0.1132
-0.11501
-0.116746
-0.118411
-0.120007
-0.12154
-0.123011
-0.124425
-0.125783
-0.127089
-0.128345
-0.129554
-0.130719
-0.131841
-0.132924
-0.133969
-0.134981
-0.135961
-0.136913
-0.137841
-0.138748
-0.139638
-0.140518
-0.141391
-0.142266
-0.143147
-0.144045
-0.144967
-0.145923
-0.146927
-0.147991
-0.14913
-0.150362
-0.151703
-0.153177
-0.154799
-0.156605
-0.158609
-0.160507
-0.162139
-0.163863
-0.165675
-0.167591
-0.16961
-0.171743
-0.173985
-0.176353
-0.178838
-0.181465
-0.184225
-0.187157
-0.190245
-0.19356
-0.197046
-0.200854
-0.204819
-0.2093
-0.213863
-0.219431
-0.224847
-0.232729
-0.239387
-0.251936
-0.0315027
-0.00111892
-0.0426082
-0.0331798
-0.0483115
-0.0495033
-0.0565351
-0.0604352
-0.0651652
-0.0692139
-0.0731636
-0.0768601
-0.0803673
-0.0836935
-0.0868501
-0.0898527
-0.0927079
-0.0954295
-0.0980219
-0.100497
-0.102858
-0.105115
-0.107271
-0.109334
-0.111308
-0.113199
-0.115009
-0.116745
-0.11841
-0.120006
-0.121539
-0.12301
-0.124424
-0.125782
-0.127088
-0.128345
-0.129554
-0.130718
-0.13184
-0.132923
-0.133969
-0.13498
-0.13596
-0.136912
-0.13784
-0.138747
-0.139638
-0.140517
-0.141391
-0.142265
-0.143147
-0.144044
-0.144966
-0.145923
-0.146926
-0.147991
-0.14913
-0.150362
-0.151703
-0.153177
-0.154799
-0.156605
-0.158609
-0.160508
-0.16214
-0.163864
-0.165676
-0.167593
-0.169611
-0.171744
-0.173987
-0.176354
-0.178839
-0.181466
-0.184225
-0.187157
-0.190244
-0.193558
-0.197042
-0.200848
-0.204806
-0.209285
-0.213824
-0.219389
-0.224718
-0.232534
-0.238741
-0.25036
-0.0323166
-0.00122948
-0.0426482
-0.0331933
-0.0483175
-0.0495049
-0.0565352
-0.0604343
-0.0651638
-0.0692123
-0.0731619
-0.0768583
-0.0803655
-0.0836917
-0.0868484
-0.089851
-0.0927062
-0.0954279
-0.0980204
-0.100495
-0.102856
-0.105113
-0.10727
-0.109333
-0.111307
-0.113197
-0.115008
-0.116744
-0.118408
-0.120005
-0.121538
-0.123009
-0.124423
-0.125781
-0.127087
-0.128344
-0.129553
-0.130717
-0.131839
-0.132922
-0.133968
-0.134979
-0.135959
-0.136912
-0.137839
-0.138746
-0.139637
-0.140516
-0.14139
-0.142264
-0.143146
-0.144043
-0.144965
-0.145922
-0.146926
-0.14799
-0.149129
-0.150362
-0.151702
-0.153176
-0.154799
-0.156605
-0.158609
-0.160508
-0.162141
-0.163864
-0.165677
-0.167593
-0.169612
-0.171744
-0.173987
-0.176354
-0.178839
-0.181465
-0.184224
-0.187155
-0.19024
-0.193552
-0.197032
-0.200834
-0.204781
-0.209254
-0.213762
-0.219311
-0.224531
-0.232218
-0.237954
-0.24846
-0.0333326
-0.00137274
-0.0427017
-0.0332126
-0.0483269
-0.0495082
-0.0565364
-0.060434
-0.0651629
-0.069211
-0.0731603
-0.0768566
-0.0803637
-0.0836899
-0.0868465
-0.0898492
-0.0927044
-0.0954261
-0.0980186
-0.100493
-0.102855
-0.105112
-0.107268
-0.109331
-0.111305
-0.113196
-0.115007
-0.116743
-0.118407
-0.120004
-0.121536
-0.123008
-0.124422
-0.12578
-0.127086
-0.128342
-0.129551
-0.130716
-0.131838
-0.132921
-0.133967
-0.134978
-0.135958
-0.13691
-0.137838
-0.138745
-0.139636
-0.140515
-0.141389
-0.142263
-0.143145
-0.144042
-0.144964
-0.145921
-0.146925
-0.14799
-0.149129
-0.150361
-0.151702
-0.153176
-0.154798
-0.156604
-0.158609
-0.160508
-0.16214
-0.163864
-0.165676
-0.167592
-0.169611
-0.171743
-0.173985
-0.176352
-0.178836
-0.18146
-0.184218
-0.187147
-0.19023
-0.193538
-0.197011
-0.200807
-0.204739
-0.209198
-0.213666
-0.219178
-0.224268
-0.231739
-0.237001
-0.246243
-0.034592
-0.00155649
-0.0427714
-0.0332389
-0.0483404
-0.0495139
-0.0565391
-0.0604348
-0.0651626
-0.0692101
-0.073159
-0.076855
-0.080362
-0.0836881
-0.0868447
-0.0898473
-0.0927025
-0.0954242
-0.0980167
-0.100491
-0.102853
-0.10511
-0.107266
-0.109329
-0.111303
-0.113194
-0.115005
-0.116741
-0.118405
-0.120002
-0.121535
-0.123007
-0.12442
-0.125779
-0.127085
-0.128341
-0.12955
-0.130715
-0.131837
-0.13292
-0.133965
-0.134977
-0.135957
-0.136909
-0.137837
-0.138744
-0.139635
-0.140514
-0.141388
-0.142262
-0.143144
-0.144041
-0.144963
-0.14592
-0.146924
-0.147989
-0.149128
-0.15036
-0.151701
-0.153175
-0.154797
-0.156603
-0.158608
-0.160507
-0.162139
-0.163862
-0.165674
-0.16759
-0.169608
-0.171739
-0.17398
-0.176346
-0.178828
-0.181451
-0.184206
-0.187132
-0.19021
-0.193512
-0.196976
-0.20076
-0.204671
-0.209105
-0.213521
-0.218963
-0.223905
-0.231047
-0.235854
-0.243737
-0.0361421
-0.00179034
-0.0428612
-0.0332739
-0.048359
-0.0495224
-0.0565438
-0.0604368
-0.0651633
-0.0692099
-0.0731583
-0.0768539
-0.0803606
-0.0836866
-0.086843
-0.0898455
-0.0927007
-0.0954224
-0.0980148
-0.10049
-0.102851
-0.105108
-0.107264
-0.109328
-0.111302
-0.113192
-0.115003
-0.116739
-0.118404
-0.120001
-0.121533
-0.123005
-0.124418
-0.125777
-0.127083
-0.128339
-0.129548
-0.130713
-0.131835
-0.132918
-0.133964
-0.134975
-0.135956
-0.136908
-0.137835
-0.138742
-0.139633
-0.140513
-0.141386
-0.142261
-0.143143
-0.14404
-0.144962
-0.145919
-0.146923
-0.147987
-0.149126
-0.150359
-0.151699
-0.153173
-0.154795
-0.156601
-0.158605
-0.160504
-0.162136
-0.163858
-0.16567
-0.167585
-0.169601
-0.171732
-0.173971
-0.176334
-0.178814
-0.181433
-0.184184
-0.187104
-0.190175
-0.193468
-0.196918
-0.200682
-0.204565
-0.208957
-0.213309
-0.218634
-0.223409
-0.230099
-0.234477
-0.240996
-0.038035
-0.00208596
-0.0429751
-0.0333194
-0.0483838
-0.0495344
-0.056551
-0.0604406
-0.0651653
-0.0692107
-0.0731583
-0.0768535
-0.0803598
-0.0836855
-0.0868417
-0.0898441
-0.0926991
-0.0954207
-0.0980131
-0.100488
-0.102849
-0.105106
-0.107262
-0.109326
-0.1113
-0.11319
-0.115001
-0.116737
-0.118402
-0.119999
-0.121531
-0.123003
-0.124417
-0.125775
-0.127081
-0.128338
-0.129547
-0.130711
-0.131834
-0.132916
-0.133962
-0.134974
-0.135954
-0.136906
-0.137834
-0.138741
-0.139631
-0.140511
-0.141385
-0.142259
-0.143141
-0.144038
-0.14496
-0.145917
-0.146921
-0.147985
-0.149124
-0.150356
-0.151697
-0.15317
-0.154792
-0.156598
-0.158601
-0.160499
-0.16213
-0.163851
-0.165662
-0.167575
-0.16959
-0.171718
-0.173954
-0.176313
-0.178789
-0.181403
-0.184147
-0.187059
-0.190118
-0.193395
-0.196825
-0.200559
-0.204403
-0.208729
-0.213
-0.218148
-0.222737
-0.228857
-0.232831
-0.238088
-0.0403257
-0.00245748
-0.0431181
-0.0333776
-0.0484159
-0.0495507
-0.056561
-0.0604464
-0.0651689
-0.0692127
-0.0731594
-0.0768539
-0.0803597
-0.083685
-0.086841
-0.0898431
-0.092698
-0.0954195
-0.0980117
-0.100486
-0.102848
-0.105104
-0.107261
-0.109324
-0.111298
-0.113189
-0.115
-0.116736
-0.1184
-0.119997
-0.12153
-0.123001
-0.124415
-0.125773
-0.127079
-0.128336
-0.129545
-0.130709
-0.131832
-0.132915
-0.13396
-0.134972
-0.135952
-0.136904
-0.137832
-0.138739
-0.13963
-0.140509
-0.141383
-0.142257
-0.143139
-0.144036
-0.144958
-0.145915
-0.146918
-0.147983
-0.149121
-0.150353
-0.151693
-0.153166
-0.154787
-0.156591
-0.158594
-0.16049
-0.16212
-0.16384
-0.165648
-0.167559
-0.16957
-0.171694
-0.173926
-0.176279
-0.178748
-0.181354
-0.184088
-0.186986
-0.190029
-0.193283
-0.196683
-0.200371
-0.204162
-0.20839
-0.21256
-0.217462
-0.221835
-0.227301
-0.230887
-0.235074
-0.0430683
-0.0029217
-0.043296
-0.0334508
-0.0484566
-0.0495721
-0.0565746
-0.0604547
-0.0651744
-0.0692163
-0.0731618
-0.0768554
-0.0803606
-0.0836855
-0.086841
-0.0898429
-0.0926976
-0.0954188
-0.098011
-0.100485
-0.102846
-0.105103
-0.10726
-0.109323
-0.111297
-0.113187
-0.114998
-0.116734
-0.118398
-0.119995
-0.121528
-0.123
-0.124413
-0.125772
-0.127078
-0.128334
-0.129543
-0.130708
-0.13183
-0.132913
-0.133959
-0.13497
-0.13595
-0.136902
-0.13783
-0.138737
-0.139628
-0.140507
-0.141381
-0.142255
-0.143137
-0.144034
-0.144955
-0.145912
-0.146915
-0.147979
-0.149117
-0.150349
-0.151688
-0.15316
-0.15478
-0.156582
-0.158582
-0.160477
-0.162104
-0.163821
-0.165626
-0.167533
-0.169539
-0.171657
-0.173882
-0.176226
-0.178685
-0.181277
-0.183996
-0.186874
-0.189893
-0.193111
-0.19647
-0.200092
-0.20381
-0.2079
-0.211938
-0.216528
-0.220645
-0.225425
-0.22863
-0.231995
-0.0463087
-0.0034983
-0.0435151
-0.033542
-0.0485073
-0.0495995
-0.0565922
-0.060466
-0.0651822
-0.0692219
-0.0731658
-0.0768584
-0.0803628
-0.0836871
-0.0868422
-0.0898437
-0.0926981
-0.0954191
-0.098011
-0.100485
-0.102846
-0.105103
-0.107259
-0.109322
-0.111296
-0.113186
-0.114997
-0.116733
-0.118397
-0.119994
-0.121527
-0.122998
-0.124412
-0.12577
-0.127076
-0.128333
-0.129542
-0.130706
-0.131829
-0.132911
-0.133957
-0.134968
-0.135949
-0.136901
-0.137828
-0.138735
-0.139626
-0.140505
-0.141379
-0.142253
-0.143134
-0.144031
-0.144952
-0.145909
-0.146911
-0.147974
-0.149112
-0.150342
-0.15168
-0.15315
-0.154768
-0.156568
-0.158565
-0.160456
-0.162079
-0.163792
-0.165592
-0.167492
-0.169491
-0.171599
-0.173813
-0.176144
-0.178588
-0.181161
-0.183857
-0.186705
-0.189688
-0.192855
-0.196156
-0.199684
-0.203303
-0.207212
-0.211075
-0.215298
-0.219111
-0.223227
-0.226066
-0.228854
-0.0500748
-0.00420973
-0.0437824
-0.0336541
-0.0485693
-0.0496338
-0.0566145
-0.0604809
-0.0651927
-0.0692297
-0.0731718
-0.0768631
-0.0803665
-0.0836901
-0.0868447
-0.0898458
-0.0926998
-0.0954204
-0.0980121
-0.100486
-0.102847
-0.105103
-0.107259
-0.109322
-0.111296
-0.113186
-0.114997
-0.116733
-0.118397
-0.119994
-0.121526
-0.122998
-0.124411
-0.12577
-0.127076
-0.128332
-0.129541
-0.130705
-0.131828
-0.13291
-0.133956
-0.134967
-0.135948
-0.1369
-0.137827
-0.138734
-0.139624
-0.140503
-0.141377
-0.14225
-0.143132
-0.144028
-0.144949
-0.145904
-0.146906
-0.147968
-0.149104
-0.150333
-0.151669
-0.153137
-0.154751
-0.156546
-0.158539
-0.160424
-0.162042
-0.163747
-0.16554
-0.16743
-0.169418
-0.171512
-0.17371
-0.176021
-0.178442
-0.180987
-0.18365
-0.186455
-0.189387
-0.192482
-0.1957
-0.199103
-0.202585
-0.206269
-0.209907
-0.213726
-0.217193
-0.220706
-0.22321
-0.225614
-0.054361
-0.00508056
-0.0441051
-0.0337902
-0.0486439
-0.049676
-0.056642
-0.0604997
-0.0652063
-0.0692402
-0.07318
-0.0768698
-0.0803722
-0.0836949
-0.0868488
-0.0898494
-0.092703
-0.0954232
-0.0980146
-0.100488
-0.102849
-0.105105
-0.107261
-0.109324
-0.111297
-0.113187
-0.114998
-0.116734
-0.118398
-0.119994
-0.121527
-0.122998
-0.124412
-0.12577
-0.127076
-0.128332
-0.129541
-0.130705
-0.131827
-0.13291
-0.133956
-0.134967
-0.135947
-0.136899
-0.137826
-0.138733
-0.139623
-0.140502
-0.141375
-0.142248
-0.143129
-0.144025
-0.144945
-0.145899
-0.1469
-0.14796
-0.149094
-0.150321
-0.151653
-0.153117
-0.154726
-0.156515
-0.1585
-0.160377
-0.161986
-0.163681
-0.165461
-0.167337
-0.169309
-0.171383
-0.173557
-0.17584
-0.178228
-0.180731
-0.183347
-0.18609
-0.188949
-0.191946
-0.195049
-0.198291
-0.201593
-0.205009
-0.208369
-0.211769
-0.214861
-0.217854
-0.220067
-0.222205
-0.0591094
-0.00613556
-0.0444904
-0.0339533
-0.0487318
-0.049727
-0.056675
-0.0605231
-0.0652234
-0.0692537
-0.0731909
-0.0768789
-0.08038
-0.0837018
-0.0868549
-0.0898549
-0.092708
-0.0954278
-0.0980188
-0.100492
-0.102852
-0.105108
-0.107264
-0.109327
-0.1113
-0.11319
-0.115
-0.116736
-0.1184
-0.119996
-0.121529
-0.123
-0.124413
-0.125771
-0.127077
-0.128333
-0.129542
-0.130706
-0.131828
-0.132911
-0.133956
-0.134968
-0.135948
-0.136899
-0.137826
-0.138733
-0.139623
-0.140501
-0.141374
-0.142246
-0.143126
-0.144021
-0.14494
-0.145893
-0.146891
-0.147949
-0.14908
-0.150303
-0.151631
-0.153088
-0.15469
-0.156469
-0.158443
-0.160306
-0.161903
-0.163582
-0.165345
-0.1672
-0.169147
-0.171191
-0.173332
-0.175573
-0.177914
-0.180359
-0.182907
-0.185565
-0.188323
-0.19119
-0.19414
-0.197179
-0.200252
-0.203364
-0.206401
-0.209383
-0.212097
-0.214646
-0.216613
-0.218536
-0.0641861
-0.00739559
-0.0449453
-0.0341464
-0.0488334
-0.0497876
-0.0567138
-0.0605514
-0.0652443
-0.0692706
-0.0732047
-0.0768908
-0.0803903
-0.083711
-0.0868632
-0.0898625
-0.092715
-0.0954343
-0.0980249
-0.100498
-0.102858
-0.105114
-0.107269
-0.109331
-0.111304
-0.113194
-0.115004
-0.11674
-0.118403
-0.12
-0.121532
-0.123003
-0.124416
-0.125774
-0.12708
-0.128336
-0.129545
-0.130709
-0.131831
-0.132913
-0.133959
-0.13497
-0.135949
-0.136901
-0.137828
-0.138734
-0.139623
-0.140501
-0.141373
-0.142244
-0.143123
-0.144016
-0.144933
-0.145884
-0.146879
-0.147934
-0.14906
-0.150277
-0.151598
-0.153046
-0.154637
-0.156401
-0.158358
-0.160202
-0.161779
-0.163436
-0.165173
-0.166997
-0.168909
-0.170911
-0.173003
-0.175186
-0.17746
-0.179825
-0.182278
-0.18482
-0.187442
-0.19014
-0.192893
-0.19569
-0.198487
-0.201265
-0.20395
-0.206528
-0.208875
-0.211043
-0.212789
-0.214506
-0.0693594
-0.00887154
-0.0454744
-0.0343711
-0.048948
-0.0498582
-0.0567581
-0.060585
-0.065269
-0.0692911
-0.0732217
-0.0769057
-0.0804035
-0.0837229
-0.0868741
-0.0898726
-0.0927244
-0.0954432
-0.0980333
-0.100506
-0.102865
-0.105121
-0.107276
-0.109338
-0.111311
-0.1132
-0.11501
-0.116745
-0.118409
-0.120005
-0.121537
-0.123008
-0.124421
-0.125779
-0.127085
-0.128341
-0.129549
-0.130713
-0.131835
-0.132917
-0.133962
-0.134973
-0.135953
-0.136904
-0.13783
-0.138736
-0.139624
-0.140501
-0.141372
-0.142242
-0.143119
-0.14401
-0.144924
-0.145871
-0.146862
-0.147911
-0.149031
-0.150238
-0.151549
-0.152983
-0.154557
-0.1563
-0.158231
-0.160047
-0.161596
-0.16322
-0.16492
-0.1667
-0.168561
-0.170504
-0.172527
-0.174629
-0.176809
-0.179064
-0.181389
-0.183779
-0.186223
-0.188711
-0.191221
-0.193735
-0.196218
-0.198643
-0.200963
-0.203155
-0.205154
-0.206984
-0.208515
-0.210013
-0.0742874
-0.0105561
-0.0460779
-0.0346283
-0.0490733
-0.0499387
-0.0568075
-0.060624
-0.0652977
-0.0693156
-0.0732422
-0.0769238
-0.0804197
-0.0837378
-0.0868878
-0.0898854
-0.0927365
-0.0954546
-0.0980441
-0.100516
-0.102875
-0.10513
-0.107285
-0.109347
-0.111319
-0.113209
-0.115018
-0.116753
-0.118417
-0.120013
-0.121545
-0.123015
-0.124428
-0.125786
-0.127091
-0.128347
-0.129556
-0.130719
-0.131841
-0.132923
-0.133968
-0.134979
-0.135958
-0.136908
-0.137834
-0.138739
-0.139626
-0.140502
-0.141371
-0.142239
-0.143113
-0.144
-0.14491
-0.145852
-0.146836
-0.147877
-0.148986
-0.150181
-0.151475
-0.152889
-0.154439
-0.15615
-0.158043
-0.159817
-0.161325
-0.162903
-0.164549
-0.166267
-0.168056
-0.169916
-0.171843
-0.173836
-0.175889
-0.177998
-0.180154
-0.18235
-0.184571
-0.186805
-0.18903
-0.191227
-0.193369
-0.19543
-0.197383
-0.199208
-0.200873
-0.20239
-0.203695
-0.204954
-0.0785247
-0.012413
-0.046746
-0.034916
-0.0492052
-0.0500287
-0.0568604
-0.0606681
-0.06533
-0.069344
-0.0732661
-0.0769453
-0.0804392
-0.0837557
-0.0869046
-0.0899011
-0.0927514
-0.0954688
-0.0980577
-0.100529
-0.102888
-0.105143
-0.107297
-0.109358
-0.11133
-0.11322
-0.115029
-0.116764
-0.118427
-0.120023
-0.121554
-0.123025
-0.124438
-0.125795
-0.1271
-0.128356
-0.129564
-0.130728
-0.131849
-0.132931
-0.133976
-0.134986
-0.135964
-0.136914
-0.137839
-0.138742
-0.139628
-0.140502
-0.141368
-0.142233
-0.143103
-0.143985
-0.144888
-0.145822
-0.146797
-0.147825
-0.148919
-0.150095
-0.151366
-0.15275
-0.154264
-0.155929
-0.157766
-0.159478
-0.160928
-0.16244
-0.164009
-0.16564
-0.167331
-0.169077
-0.170875
-0.172721
-0.174607
-0.176527
-0.17847
-0.180426
-0.182381
-0.184319
-0.186225
-0.188079
-0.189863
-0.191558
-0.193146
-0.194617
-0.195957
-0.197174
-0.198239
-0.199242
-0.0815643
-0.0143648
-0.0474525
-0.0352291
-0.0493365
-0.0501263
-0.0569148
-0.0607168
-0.0653653
-0.0693759
-0.0732933
-0.0769702
-0.0804618
-0.0837768
-0.0869243
-0.0899198
-0.0927692
-0.0954858
-0.0980741
-0.100545
-0.102903
-0.105157
-0.107311
-0.109372
-0.111344
-0.113233
-0.115042
-0.116776
-0.118439
-0.120035
-0.121566
-0.123037
-0.124449
-0.125806
-0.127112
-0.128367
-0.129575
-0.130738
-0.131859
-0.132941
-0.133985
-0.134994
-0.135972
-0.136921
-0.137844
-0.138746
-0.13963
-0.140501
-0.141363
-0.142223
-0.143087
-0.143961
-0.144855
-0.145777
-0.146737
-0.147747
-0.148819
-0.149966
-0.151202
-0.152543
-0.154004
-0.155603
-0.157359
-0.158984
-0.160352
-0.161771
-0.163236
-0.164748
-0.166304
-0.167899
-0.169527
-0.171182
-0.172857
-0.174541
-0.176226
-0.177898
-0.179547
-0.181158
-0.182718
-0.184213
-0.185633
-0.186971
-0.188211
-0.189347
-0.190377
-0.191301
-0.19211
-0.192848
-0.0829329
-0.0162811
-0.0481443
-0.0355578
-0.0494565
-0.050229
-0.0569673
-0.0607688
-0.0654023
-0.0694109
-0.0733232
-0.076998
-0.0804873
-0.0838008
-0.0869469
-0.0899413
-0.0927898
-0.0955055
-0.0980931
-0.100564
-0.102921
-0.105175
-0.107328
-0.109389
-0.11136
-0.113248
-0.115057
-0.116791
-0.118454
-0.120049
-0.12158
-0.123051
-0.124463
-0.12582
-0.127125
-0.12838
-0.129588
-0.130751
-0.131871
-0.132952
-0.133996
-0.135004
-0.135981
-0.136928
-0.13785
-0.138749
-0.139629
-0.140496
-0.141352
-0.142205
-0.14306
-0.143924
-0.144803
-0.145708
-0.146646
-0.147629
-0.148668
-0.149774
-0.15096
-0.152239
-0.153624
-0.155129
-0.15677
-0.158274
-0.159528
-0.16082
-0.162144
-0.163498
-0.164878
-0.166277
-0.16769
-0.169109
-0.170525
-0.17193
-0.173314
-0.174666
-0.175979
-0.177245
-0.178453
-0.179591
-0.180651
-0.181631
-0.182528
-0.183335
-0.18405
-0.184672
-0.1852
-0.185658
-0.0823492
-0.0179706
-0.0487335
-0.035886
-0.0495505
-0.0503326
-0.0570136
-0.0608222
-0.0654393
-0.0694477
-0.0733549
-0.0770278
-0.080515
-0.0838269
-0.0869718
-0.089965
-0.0928125
-0.0955274
-0.0981142
-0.100584
-0.102941
-0.105194
-0.107347
-0.109407
-0.111378
-0.113266
-0.115074
-0.116808
-0.11847
-0.120066
-0.121596
-0.123066
-0.124478
-0.125835
-0.12714
-0.128395
-0.129602
-0.130765
-0.131885
-0.132965
-0.134008
-0.135015
-0.13599
-0.136935
-0.137854
-0.138749
-0.139625
-0.140485
-0.141333
-0.142176
-0.143018
-0.143865
-0.144724
-0.145603
-0.14651
-0.147455
-0.148445
-0.149493
-0.150607
-0.151798
-0.153076
-0.15445
-0.155933
-0.157272
-0.158376
-0.1595
-0.160639
-0.16179
-0.162948
-0.164105
-0.165256
-0.166393
-0.167509
-0.168597
-0.169652
-0.170663
-0.171621
-0.172521
-0.173363
-0.17414
-0.174846
-0.175475
-0.176027
-0.1765
-0.176893
-0.17721
-0.177455
-0.177637
-0.0798981
-0.0191944
-0.0491143
-0.0361865
-0.0496047
-0.0504303
-0.0570493
-0.0608738
-0.0654739
-0.0694841
-0.0733865
-0.0770581
-0.0805434
-0.0838539
-0.0869974
-0.0899897
-0.0928362
-0.0955503
-0.0981363
-0.100605
-0.102962
-0.105214
-0.107366
-0.109426
-0.111397
-0.113284
-0.115092
-0.116826
-0.118488
-0.120083
-0.121613
-0.123083
-0.124495
-0.125851
-0.127156
-0.12841
-0.129617
-0.130779
-0.131899
-0.132978
-0.134019
-0.135025
-0.135998
-0.13694
-0.137855
-0.138744
-0.139613
-0.140464
-0.141301
-0.142128
-0.142951
-0.143775
-0.144605
-0.145448
-0.14631
-0.1472
-0.148123
-0.149088
-0.150103
-0.151172
-0.152304
-0.153502
-0.154773
-0.155896
-0.156805
-0.157718
-0.158626
-0.159528
-0.160417
-0.161289
-0.162137
-0.162957
-0.163741
-0.164482
-0.165179
-0.165829
-0.166427
-0.166968
-0.167447
-0.167863
-0.168213
-0.168497
-0.168715
-0.168869
-0.168961
-0.168997
-0.168982
-0.168917
-0.0760472
-0.0197684
-0.0492507
-0.0364115
-0.0496252
-0.0505089
-0.0570743
-0.0609178
-0.0655036
-0.0695167
-0.0734152
-0.0770861
-0.0805697
-0.0838792
-0.0870216
-0.090013
-0.0928586
-0.0955721
-0.0981573
-0.100626
-0.102981
-0.105234
-0.107385
-0.109445
-0.111415
-0.113302
-0.11511
-0.116843
-0.118505
-0.120099
-0.121629
-0.123099
-0.12451
-0.125867
-0.127171
-0.128425
-0.129631
-0.130793
-0.131911
-0.132989
-0.134029
-0.135032
-0.136002
-0.13694
-0.137849
-0.138731
-0.13959
-0.140428
-0.141248
-0.142055
-0.142852
-0.143643
-0.144432
-0.145224
-0.146025
-0.146838
-0.147669
-0.148522
-0.149402
-0.15031
-0.151248
-0.152216
-0.153216
-0.154068
-0.154739
-0.155394
-0.156029
-0.156639
-0.157221
-0.157771
-0.158282
-0.158753
-0.159185
-0.159572
-0.159913
-0.160203
-0.160441
-0.160626
-0.160756
-0.160831
-0.160852
-0.160821
-0.160741
-0.160615
-0.160448
-0.160245
-0.160012
-0.159743
-0.0720615
-0.0197516
-0.0492618
-0.0364912
-0.0496471
-0.0505445
-0.0570928
-0.0609439
-0.065524
-0.0695384
-0.073435
-0.0771055
-0.0805881
-0.083897
-0.0870387
-0.0900296
-0.0928745
-0.0955875
-0.0981722
-0.100641
-0.102996
-0.105247
-0.107399
-0.109458
-0.111428
-0.113315
-0.115122
-0.116855
-0.118517
-0.120111
-0.121641
-0.12311
-0.124521
-0.125877
-0.127181
-0.128435
-0.129641
-0.130801
-0.131919
-0.132995
-0.134033
-0.135033
-0.135999
-0.136932
-0.137834
-0.138707
-0.139554
-0.140377
-0.141178
-0.14196
-0.142725
-0.143476
-0.144217
-0.144949
-0.145676
-0.1464
-0.147123
-0.147847
-0.148572
-0.149298
-0.150021
-0.150738
-0.151447
-0.152017
-0.152445
-0.152842
-0.153207
-0.153535
-0.153824
-0.154072
-0.15428
-0.154447
-0.154571
-0.154651
-0.154687
-0.154677
-0.154621
-0.15452
-0.154374
-0.154185
-0.153956
-0.153689
-0.15339
-0.153061
-0.152707
-0.152332
-0.151941
-0.151526
-0.0694899
-0.019594
-0.0491932
-0.0364864
-0.0496499
-0.0505492
-0.0570983
-0.060952
-0.0655317
-0.069547
-0.0734433
-0.0771138
-0.0805962
-0.083905
-0.0870463
-0.0900372
-0.0928817
-0.0955948
-0.0981791
-0.100647
-0.103002
-0.105254
-0.107405
-0.109464
-0.111434
-0.113321
-0.115128
-0.116861
-0.118522