/*--------------------------------*- C++ -*----------------------------------*\
| =========                 |                                                 |
| \\      /  F ield         | OpenFOAM: The Open Source CFD Toolbox           |
|  \\    /   O peration     | Version:  2306                                  |
|   \\  /    A nd           | Website:  www.openfoam.com                      |
|    \\/     M anipulation  |                                                 |
\*---------------------------------------------------------------------------*/
FoamFile
{
    version     2.0;
    format      ascii;
    arch        "LSB;label=32;scalar=64";
    class       volScalarField;
    location    "1700";
    object      k;
}
// * * * * * * * * * * * * * * * * * * * * * * * * * * * * * * * * * * * * * //

dimensions      [0 2 -2 0 0 0 0];

internalField   nonuniform List<scalar> 
20540
(
497.619
803.981
497.593
803.96
497.489
803.873
497.298
803.714
497.003
803.468
496.581
803.116
496.006
802.635
495.244
801.998
494.255
801.168
492.99
800.105
491.387
798.753
489.373
797.048
486.854
794.907
483.717
792.226
479.821
788.876
474.992
784.694
469.018
779.473
461.635
772.952
452.524
764.8
441.3
754.599
427.505
741.826
410.605
725.826
389.999
705.795
365.039
680.765
335.073
649.597
299.52
611.005
257.996
563.613
210.51
506.046
157.836
437.055
102.62
355.725
60.9015
273.331
37.7513
222.357
39.117
224.913
64.2719
279.342
106.816
361.333
161.031
439.962
212.546
506.824
259.052
562.709
299.836
608.771
334.874
646.307
364.51
676.625
389.279
700.959
409.795
720.409
426.671
735.918
440.486
748.274
451.757
758.12
460.93
765.973
468.384
772.244
474.434
777.259
479.341
781.275
483.317
784.493
486.535
787.074
489.133
789.141
491.226
790.795
492.905
792.115
494.246
793.163
495.308
793.99
496.141
794.636
496.785
795.135
497.273
795.511
497.632
795.788
497.884
795.982
498.047
796.107
498.136
796.176
498.165
796.198
4.82625
1.57095
1.23407
1.03178
0.924482
0.837229
0.776723
0.726286
0.68621
0.652401
0.623897
0.599313
0.578008
0.559351
0.542842
0.528216
0.515133
0.503367
0.492768
0.483168
0.474429
0.466458
0.45916
0.452465
0.446301
0.44061
0.435351
0.430474
0.425947
0.421735
0.41781
0.414145
0.41072
0.407512
0.404508
0.401686
0.399037
0.396546
0.394203
0.391997
0.389922
0.387967
0.38613
0.384402
0.382783
0.381269
0.379859
0.378554
0.377354
0.376265
0.375287
0.374433
0.373705
0.373119
0.372683
0.372418
0.372336
0.372458
0.37282
0.373433
0.374347
0.375587
0.37723
0.378971
0.380588
0.382396
0.3844
0.386636
0.389087
0.391796
0.394744
0.397982
0.401491
0.405337
0.409543
0.414112
0.419275
0.424704
0.431315
0.437696
0.446774
0.454123
0.468325
0.476078
0.505717
0.509429
0.612268
0.476587
21.6081
4.78324
3.3237
2.651
2.30667
2.04631
1.86622
1.72081
1.60595
1.51054
1.43073
1.36252
1.30385
1.2528
1.2079
1.16835
1.13314
1.10163
1.07336
1.04785
1.02471
1.00368
0.984487
0.966932
0.950808
0.935963
0.922278
0.909614
0.897882
0.88699
0.876858
0.867414
0.858602
0.850362
0.842657
0.835429
0.828651
0.822281
0.816299
0.810668
0.805374
0.800387
0.795698
0.791285
0.787143
0.783259
0.779627
0.776246
0.77311
0.770231
0.767603
0.765251
0.763168
0.761391
0.759921
0.758804
0.758046
0.757693
0.75782
0.758397
0.759542
0.761316
0.763805
0.766521
0.769054
0.771982
0.775207
0.778846
0.782795
0.787198
0.791926
0.797172
0.802728
0.808884
0.815374
0.822504
0.830155
0.838274
0.847568
0.856633
0.868512
0.878694
0.894845
0.908011
0.931522
0.964436
0.979379
0.989847
51.2522
17.8837
13.8817
11.9466
10.8724
10.0209
9.399
8.87836
8.45199
8.08774
7.77506
7.50185
7.26213
7.0499
6.86026
6.69083
6.53804
6.39966
6.27423
6.15996
6.05538
5.95952
5.87138
5.7902
5.71516
5.64566
5.58122
5.52129
5.46549
5.41346
5.36485
5.31936
5.27676
5.23678
5.19927
5.16398
5.13079
5.09951
5.07005
5.04225
5.01605
4.99132
4.96801
4.94602
4.92534
4.90589
4.88766
4.87065
4.85483
4.84025
4.82688
4.81485
4.80413
4.79488
4.78712
4.78105
4.77671
4.77428
4.77416
4.77616
4.78082
4.78848
4.79943
4.81147
4.82273
4.83591
4.85037
4.86671
4.88436
4.90406
4.92506
4.94839
4.97282
4.9999
5.02803
5.05893
5.0914
5.12597
5.16426
5.20228
5.24908
5.2908
5.35125
5.40522
5.47876
5.62594
5.55927
5.47772
76.7282
25.6307
18.9856
16.5031
15.2525
14.3299
13.6616
13.1084
12.6536
12.2644
11.9285
11.6336
11.3735
11.1421
10.9342
10.7476
10.5785
10.4246
10.2846
10.1565
10.0388
9.93055
9.83065
9.73833
9.65271
9.57317
9.49923
9.43026
9.36589
9.30572
9.24937
9.19652
9.14692
9.10028
9.05644
9.01511
8.97617
8.93942
8.90475
8.87197
8.84103
8.81177
8.78415
8.75804
8.73343
8.71024
8.68844
8.66804
8.64897
8.63131
8.61502
8.60023
8.58687
8.57516
8.56505
8.55681
8.5504
8.54607
8.54411
8.54464
8.54766
8.5539
8.5635
8.57442
8.5847
8.59708
8.61061
8.62609
8.64263
8.66131
8.68089
8.70296
8.72549
8.75089
8.7764
8.80504
8.83347
8.86519
8.89663
8.93199
8.96625
9.00697
9.04367
9.10948
9.11886
9.29588
9.0541
8.82352
100.474
33.2112
22.5356
18.8775
17.2208
16.149
15.4104
14.824
14.3501
13.9497
13.6063
13.3061
13.0422
12.8076
12.5971
12.4083
12.2372
12.0816
11.94
11.8104
11.6913
11.5818
11.4807
11.3872
11.3005
11.22
11.1451
11.0752
11.01
10.949
10.8918
10.8382
10.7879
10.7406
10.6961
10.6542
10.6146
10.5773
10.5421
10.5088
10.4773
10.4476
10.4194
10.3929
10.3678
10.3441
10.3218
10.3009
10.2812
10.263
10.246
10.2305
10.2163
10.2037
10.1926
10.1831
10.1753
10.1694
10.1655
10.1638
10.1645
10.1676
10.1737
10.1812
10.1884
10.1976
10.2075
10.2193
10.2316
10.2459
10.2604
10.2774
10.2941
10.3136
10.3322
10.3543
10.3741
10.3987
10.4188
10.4471
10.4653
10.501
10.5126
10.573
10.5247
10.7268
10.4339
10.2476
123.174
41.6353
26.4624
21.0436
18.6516
17.2666
16.3766
15.7156
15.2002
14.7767
14.4196
14.1109
13.8417
13.6038
13.391
13.2009
13.0288
12.8725
12.7306
12.6007
12.4814
12.3717
12.2705
12.177
12.0903
12.0097
11.9348
11.8649
11.7997
11.7387
11.6815
11.6279
11.5776
11.5302
11.4857
11.4438
11.4042
11.3668
11.3316
11.2983
11.2668
11.237
11.2088
11.1821
11.1569
11.1331
11.1107
11.0895
11.0697
11.0511
11.0338
11.0178
11.003
10.9897
10.9777
10.9673
10.9582
10.9508
10.9451
10.9414
10.9395
10.94
10.9424
10.9466
10.9509
10.957
10.9634
10.9715
10.9797
10.9899
10.9997
11.012
11.0232
11.0375
11.0497
11.0659
11.0784
11.0965
11.1077
11.1294
11.1372
11.1635
11.1585
11.212
11.1367
11.3216
11.0775
10.837
145.357
50.8244
31.1847
23.6688
20.2291
18.3219
17.1564
16.347
15.7465
15.2732
14.8857
14.558
14.2769
14.0313
13.8135
13.6203
13.4462
13.2887
13.146
13.0158
12.8964
12.7868
12.6857
12.5925
12.506
12.4257
12.3511
12.2815
12.2166
12.1559
12.099
12.0457
11.9956
11.9486
11.9043
11.8626
11.8233
11.7861
11.7511
11.7179
11.6866
11.6569
11.6289
11.6023
11.5772
11.5534
11.531
11.5098
11.4898
11.4711
11.4535
11.4373
11.422
11.4082
11.3954
11.3841
11.374
11.3653
11.358
11.3524
11.3482
11.346
11.3454
11.3465
11.3482
11.3514
11.3547
11.3596
11.3642
11.3706
11.3764
11.3845
11.3909
11.4005
11.4076
11.4185
11.4252
11.4375
11.4426
11.4568
11.458
11.4749
11.4612
11.5052
11.4281
11.5626
11.4346
11.0767
167.385
60.6869
36.6886
26.9579
22.2641
19.6381
18.0515
16.9931
16.2404
15.673
15.2253
14.8587
14.5519
14.2891
14.0598
13.8588
13.6794
13.5183
13.3734
13.2417
13.1214
13.0113
12.9101
12.8168
12.7305
12.6505
12.5762
12.507
12.4425
12.3822
12.3258
12.2729
12.2233
12.1766
12.1328
12.0914
12.0525
12.0157
11.981
11.9482
11.9172
11.8878
11.86
11.8337
11.8088
11.7852
11.7629
11.7418
11.7218
11.7031
11.6854
11.6689
11.6534
11.6391
11.6258
11.6138
11.6026
11.5929
11.5842
11.577
11.5707
11.5663
11.5627
11.5615
11.5606
11.5613
11.5619
11.5638
11.5653
11.5685
11.5708
11.5751
11.5778
11.5831
11.5861
11.5921
11.5947
11.6013
11.6022
11.6089
11.6063
11.6163
11.5989
11.6296
11.5642
11.6418
11.5938
11.2758
189.49
71.2125
42.8907
30.925
24.8777
21.3937
19.2534
17.8362
16.848
16.125
15.5727
15.1351
14.7795
14.4828
14.2296
14.012
13.8205
13.6509
13.5
13.3639
13.2406
13.1284
13.0258
12.9317
12.8448
12.7645
12.6903
12.6212
12.5569
12.4969
12.4408
12.3883
12.3391
12.2929
12.2495
12.2086
12.1701
12.1337
12.0995
12.067
12.0364
12.0074
11.98
11.954
11.9294
11.906
11.884
11.8631
11.8432
11.8246
11.8068
11.7903
11.7745
11.76
11.7462
11.7337
11.7218
11.7112
11.7013
11.6927
11.6847
11.6783
11.6721
11.6688
11.6657
11.6644
11.6626
11.6621
11.6609
11.6611
11.6607
11.6615
11.6615
11.6627
11.6628
11.6642
11.664
11.6653
11.6636
11.6652
11.6594
11.6641
11.6457
11.6631
11.612
11.6446
11.6094
11.4127
211.81
82.4361
49.7405
35.5267
28.0887
23.6692
20.8801
19.0081
17.6995
16.7504
16.0376
15.4853
15.0474
14.6912
14.3945
14.145
13.93
13.7429
13.5789
13.4332
13.3025
13.1848
13.0781
12.981
12.8919
12.81
12.7346
12.6647
12.6
12.5397
12.4836
12.4311
12.382
12.336
12.2929
12.2523
12.2141
12.1781
12.1442
12.1122
12.0819
12.0533
12.0262
12.0006
11.9763
11.9532
11.9314
11.9108
11.8911
11.8726
11.8549
11.8384
11.8225
11.8078
11.7938
11.7808
11.7683
11.757
11.7461
11.7364
11.727
11.7191
11.7108
11.7057
11.7008
11.6978
11.6938
11.6917
11.6881
11.6865
11.6832
11.6819
11.6791
11.6778
11.6751
11.6737
11.6705
11.669
11.6643
11.663
11.6541
11.6546
11.6362
11.6424
11.603
11.6061
11.5709
11.4478
234.417
94.4102
57.2266
40.7253
31.8757
26.4819
22.9879
20.593
18.8933
17.6513
16.7189
16.0015
15.4396
14.9898
14.6221
14.3187
14.0624
13.8436
13.6552
13.4905
13.345
13.2159
13.1002
12.9961
12.9014
12.8152
12.7364
12.6639
12.597
12.5352
12.4779
12.4245
12.3748
12.3283
12.2849
12.2442
12.2059
12.17
12.1362
12.1042
12.0742
12.0457
12.0189
11.9935
11.9694
11.9466
11.925
11.9046
11.8851
11.8667
11.8491
11.8326
11.8167
11.8019
11.7876
11.7743
11.7614
11.7496
11.7379
11.7274
11.7168
11.7076
11.6976
11.6912
11.6848
11.6805
11.6748
11.6714
11.6657
11.6628
11.6572
11.6545
11.6491
11.6463
11.6409
11.6379
11.6319
11.6287
11.6212
11.6181
11.607
11.6047
11.5863
11.585
11.5536
11.5436
11.4986
11.4183
257.321
107.189
65.3649
46.5049
36.2136
29.8208
25.5903
22.6309
20.4911
18.9036
17.6993
16.768
16.0377
15.4556
14.9836
14.5982
14.2768
14.0066
13.7772
13.5798
13.4081
13.258
13.1252
13.0073
12.9015
12.8061
12.72
12.6414
12.5696
12.5037
12.443
12.3869
12.335
12.2867
12.2419
12.1999
12.1607
12.124
12.0896
12.0572
12.0268
11.9981
11.9711
11.9455
11.9214
11.8985
11.8769
11.8564
11.8369
11.8185
11.8009
11.7844
11.7683
11.7534
11.7389
11.7254
11.712
11.6998
11.6875
11.6763
11.6647
11.6547
11.6433
11.6358
11.6283
11.6231
11.616
11.6115
11.6044
11.6005
11.5931
11.5893
11.582
11.5781
11.5706
11.5665
11.5584
11.554
11.5445
11.5399
11.5274
11.523
11.5048
11.4998
11.4728
11.4574
11.4026
11.3475
280.485
120.821
74.187
52.8709
41.0904
33.6705
28.6809
25.131
22.5206
20.5518
19.0369
17.8515
16.9135
16.1616
15.5508
15.0523
14.6383
14.2924
14.001
13.7528
13.539
13.3544
13.193
13.0513
12.9257
12.8139
12.7138
12.6237
12.5421
12.4679
12.4002
12.3382
12.2813
12.2287
12.1802
12.1351
12.0933
12.0543
12.018
11.9839
11.9521
11.9222
11.8941
11.8677
11.8428
11.8193
11.7971
11.7761
11.7562
11.7374
11.7194
11.7025
11.6861
11.6709
11.6559
11.642
11.6282
11.6155
11.6026
11.5908
11.5784
11.5676
11.5552
11.5468
11.5385
11.5325
11.5245
11.5192
11.5109
11.5062
11.4976
11.493
11.4843
11.4797
11.4707
11.4658
11.4562
11.4509
11.4401
11.4344
11.421
11.4148
11.3968
11.3888
11.3631
11.3449
11.2925
11.2511
303.819
135.338
83.7324
59.844
46.5089
38.0238
32.2497
28.0889
24.9874
22.6139
20.7625
19.2946
18.1188
17.1666
16.3867
15.7459
15.2117
14.7648
14.3882
14.068
13.7935
13.5575
13.3525
13.1739
13.0167
12.878
12.755
12.6452
12.5467
12.458
12.3777
12.3047
12.2383
12.1775
12.1218
12.0705
12.0232
11.9793
11.9388
11.9009
11.8659
11.833
11.8024
11.7736
11.7468
11.7214
11.6976
11.6752
11.6539
11.634
11.6149
11.597
11.5797
11.5636
11.5478
11.5332
11.5185
11.5051
11.4914
11.4789
11.4656
11.4539
11.4406
11.4314
11.4225
11.4157
11.407
11.4009
11.3919
11.3865
11.377
11.3719
11.3622
11.357
11.347
11.3415
11.3309
11.325
11.3133
11.3067
11.2928
11.2851
11.2674
11.2568
11.2319
11.2109
11.1622
11.1281
327.181
150.754
94.0409
67.455
52.4852
42.8847
36.2935
31.4985
27.8872
25.0921
22.8863
21.117
19.6828
18.5082
17.5364
16.7298
16.0522
15.4814
14.9976
14.5847
14.2299
13.9245
13.6593
13.4284
13.2258
13.0475
12.89
12.75
12.6251
12.5133
12.4127
12.3219
12.2398
12.165
12.0969
12.0346
11.9775
11.925
11.8767
11.8319
11.7905
11.7521
11.7164
11.6831
11.6521
11.6231
11.5959
11.5704
11.5464
11.5239
11.5024
11.4824
11.4631
11.4452
11.4277
11.4115
11.3954
11.3806
11.3655
11.3518
11.3372
11.3244
11.31
11.2998
11.2902
11.2826
11.2732
11.2664
11.2568
11.2507
11.2405
11.2349
11.2244
11.2187
11.208
11.202
11.1908
11.1843
11.172
11.1648
11.1506
11.1418
11.1243
11.1117
11.0875
11.0649
11.0179
10.9924
350.378
167.051
105.147
75.7396
59.0449
48.268
40.8179
35.3593
31.2166
27.9827
25.4077
23.323
21.616
20.2041
19.0247
18.0357
17.1975
16.4852
15.8765
15.3533
14.901
14.5096
14.1681
13.8698
13.6073
13.3761
13.1715
12.9897
12.8275
12.6825
12.5522
12.4349
12.329
12.2329
12.1458
12.0663
11.9937
11.9272
11.8662
11.8099
11.7582
11.7102
11.666
11.6248
11.5867
11.551
11.5179
11.4869
11.4578
11.4306
11.4049
11.381
11.3581
11.3367
11.3162
11.297
11.2782
11.2609
11.2435
11.2276
11.211
11.1962
11.1802
11.1684
11.1579
11.1492
11.1391
11.1312
11.1209
11.1138
11.1031
11.0967
11.0856
11.0794
11.068
11.0617
11.0497
11.0429
11.0301
11.0224
11.0079
10.9984
10.9808
10.9673
10.9433
10.9211
10.8767
10.859
373.156
184.174
117.075
84.7337
66.2192
54.1965
45.8374
39.6788
34.9777
31.2846
28.3241
25.9105
23.9187
22.2583
20.8601
19.6771
18.6668
17.8008
17.0545
16.4081
15.8453
15.3545
14.9238
14.5451
14.2102
13.9138
13.6503
13.4154
13.2052
13.0167
12.847
12.694
12.5557
12.4302
12.3162
12.2123
12.1175
12.0305
11.951
11.8777
11.8104
11.7481
11.6908
11.6375
11.5882
11.5423
11.4996
11.4598
11.4226
11.3878
11.3552
11.3247
11.2958
11.2689
11.2432
11.2192
11.1959
11.1744
11.1531
11.1336
11.1138
11.0958
11.0771
11.0629
11.051
11.0407
11.0293
11.0199
11.0087
11.0002
10.9889
10.9812
10.9696
10.9623
10.9505
10.9434
10.9309
10.9238
10.9103
10.9024
10.8875
10.8779
10.86
10.8471
10.8231
10.8043
10.7665
10.7468
395.198
202.019
129.829
94.4687
74.041
60.6984
51.3733
44.4716
39.1791
35.0016
31.6358
28.8778
26.5885
24.6687
23.0421
21.6563
20.4653
19.437
18.5445
17.7662
17.0838
16.4845
15.9551
15.4865
15.0698
14.6987
14.3669
14.0696
13.8022
13.5614
13.3437
13.1467
12.9679
12.8052
12.657
12.5215
12.3976
12.2838
12.1795
12.0832
11.9947
11.9127
11.8371
11.7669
11.7019
11.6413
11.5851
11.5327
11.4837
11.438
11.3952
11.3551
11.3173
11.282
11.2485
11.2172
11.1872
11.1592
11.1322
11.107
11.0823
11.0593
11.0365
11.0188
11.0047
10.9919
10.9788
10.9672
10.9547
10.9442
10.932
10.9225
10.9105
10.9016
10.8896
10.8812
10.8688
10.8606
10.8473
10.8387
10.8243
10.8138
10.7981
10.7829
10.7648
10.7421
10.72
10.6906
416.116
220.418
143.386
104.965
82.5411
67.8037
57.4511
49.7576
43.8352
39.1431
35.3483
32.2267
29.6247
27.4329
25.5677
23.9701
22.5906
21.3929
20.3476
19.431
18.6229
17.9088
17.2745
16.7098
16.2049
15.7525
15.3459
14.9795
14.6484
14.3487
14.0765
13.8289
13.6033
13.3972
13.2086
13.0356
12.8768
12.7305
12.5959
12.4714
12.3566
12.25
12.1514
12.0597
11.9746
11.8951
11.8213
11.7522
11.6878
11.6274
11.571
11.518
11.4683
11.4215
11.3775
11.3361
11.297
11.2601
11.2251
11.192
11.1603
11.1305
11.1017
11.079
11.0617
11.0453
11.0295
11.0148
11.0002
10.9869
10.9733
10.9611
10.9482
10.9369
10.9245
10.9137
10.9016
10.8909
10.8786
10.8675
10.8548
10.8419
10.8283
10.8118
10.7971
10.7746
10.762
10.7202
435.443
239.128
157.685
116.226
91.7423
75.5399
64.0971
55.5595
48.9645
43.7231
39.4711
35.9632
33.03
30.5512
28.4349
26.6154
25.0386
23.6643
22.4598
21.3991
20.4601
19.6264
18.8826
18.2173
17.6197
17.0818
16.5961
16.1564
15.7573
15.3943
15.0632
14.7609
14.4841
14.2301
13.9969
13.7821
13.5842
13.4013
13.2323
13.0756
12.9304
12.7954
12.6701
12.5532
12.4444
12.3426
12.2478
12.1589
12.0758
11.9977
11.9247
11.856
11.7915
11.7307
11.6736
11.6197
11.5689
11.5209
11.4755
11.4326
11.3919
11.3533
11.3167
11.2877
11.2659
11.2452
11.2257
11.2071
11.1896
11.1729
11.1569
11.1418
11.1272
11.1132
11.0997
11.0866
11.0738
11.0612
11.0487
11.036
11.0236
11.01
10.997
10.9815
10.9678
10.9491
10.939
10.9019
452.616
257.815
172.616
128.226
101.653
83.9276
71.3344
61.8992
54.5859
48.7572
44.0165
40.0962
36.8104
34.0266
31.6445
29.5906
27.8063
26.2467
24.8756
23.6645
22.5891
21.631
20.7735
20.0036
19.31
18.6832
18.1153
17.5993
17.1292
16.7002
16.3075
15.9475
15.6169
15.3125
15.0319
14.7726
14.533
14.3108
14.1048
13.9132
13.7352
13.5692
13.4146
13.27
13.1351
13.0086
12.8904
12.7793
12.6753
12.5774
12.4855
12.399
12.3176
12.2409
12.1686
12.1003
12.036
11.9752
11.9177
11.8633
11.812
11.7631
11.7171
11.6807
11.6535
11.6277
11.6036
11.5806
11.5591
11.5387
11.5194
11.5011
11.4838
11.4672
11.4516
11.4363
11.4219
11.4077
11.3941
11.3804
11.3673
11.3537
11.3406
11.3265
11.3136
11.2978
11.2914
11.2469
466.963
276.037
188.005
140.9
112.259
92.9734
79.1776
68.7934
60.7155
54.2596
48.9962
44.6348
40.9723
37.8634
35.1983
32.8959
30.8918
29.1365
27.5901
26.2211
25.0029
23.9148
22.9388
22.0603
21.2668
20.548
19.8949
19.2999
18.7566
18.2592
17.8029
17.3833
16.9969
16.6402
16.3106
16.0053
15.7222
15.4591
15.2146
14.9866
14.7742
14.5758
14.3904
14.2167
14.0542
13.9016
13.7585
13.624
13.4976
13.3786
13.2666
13.1609
13.0614
12.9674
12.8788
12.795
12.7159
12.641
12.5704
12.5034
12.4401
12.3802
12.3235
12.279
12.2457
12.2142
12.1847
12.1569
12.1309
12.1062
12.0831
12.0613
12.0407
12.0212
12.0029
11.9854
11.9687
11.9528
11.9376
11.923
11.9088
11.8951
11.8817
11.8686
11.8561
11.8425
11.8384
11.7874
477.674
293.244
203.587
154.133
123.512
102.661
87.6256
76.2473
67.3609
60.238
54.4173
49.5848
45.52
42.064
39.0972
36.5301
34.2925
32.3298
30.598
29.0625
27.694
26.4695
25.3693
24.3773
23.4797
22.6651
21.9236
21.2468
20.6275
20.0596
19.5375
19.0566
18.6127
18.2023
17.8222
17.4694
17.1418
16.8367
16.5525
16.2872
16.0395
15.8076
15.5905
15.3869
15.196
15.0165
14.8478
14.689
14.5396
14.3986
14.2658
14.1403
14.0219
13.91
13.8044
13.7044
13.6098
13.5204
13.4357
13.3556
13.2798
13.2081
13.1402
13.087
13.047
13.0095
12.9743
12.9413
12.9103
12.8811
12.8538
12.8281
12.8039
12.7812
12.7598
12.7397
12.7206
12.7027
12.6857
12.6697
12.6544
12.6401
12.6262
12.6135
12.6012
12.589
12.5846
12.5326
483.736
308.765
218.993
167.735
135.317
112.942
96.6518
84.2465
74.5137
66.6872
60.2757
54.9426
50.4495
46.624
43.3361
40.4876
38.002
35.8192
33.8911
32.1794
30.6523
29.2842
28.0535
26.9424
25.9358
25.0211
24.1874
23.4255
22.7275
22.0863
21.4962
20.9518
20.4488
19.9829
19.5509
19.1495
18.776
18.4278
18.1031
17.7995
17.5156
17.2496
17.0002
16.766
16.5461
16.3391
16.1443
15.9608
15.7878
15.6245
15.4703
15.3247
15.1871
15.0569
14.9337
14.8172
14.7069
14.6024
14.5035
14.4098
14.3211
14.2372
14.1577
14.0954
14.0487
14.0048
13.9637
13.9251
13.8888
13.8549
13.823
13.7932
13.7652
13.739
13.7144
13.6913
13.6697
13.6495
13.6305
13.6128
13.5961
13.5808
13.5662
13.553
13.5404
13.5287
13.5229
13.4726
484.135
321.808
233.739
181.439
147.516
123.717
106.192
92.7456
82.1397
73.5797
66.5484
60.6877
55.7423
51.526
47.8981
44.7519
42.0038
39.5883
37.4529
35.5554
33.8611
32.3419
30.974
29.7381
28.6174
27.598
26.6681
25.8174
25.0373
24.3202
23.6595
23.0495
22.4852
21.9621
21.4766
21.025
20.6044
20.2121
19.8457
19.5029
19.182
18.8811
18.5987
18.3333
18.0838
17.8488
17.6275
17.4188
17.2218
17.0358
16.8601
16.6939
16.5367
16.388
16.2471
16.1137
15.9874
15.8677
15.7542
15.6468
15.5449
15.4485
15.3571
15.2856
15.2318
15.1814
15.1341
15.0897
15.0481
15.0091
14.9726
14.9383
14.9063
14.8763
14.8483
14.8221
14.7976
14.7748
14.7536
14.7339
14.7155
14.6986
14.6829
14.6686
14.6552
14.643
14.6355
14.5892
477.488
331.463
247.235
194.881
159.875
134.827
116.128
101.652
90.1639
80.8524
73.1804
66.7713
61.354
56.729
52.7451
49.2868
46.2636
43.6042
41.2515
39.1594
37.2902
35.6129
34.1018
32.7355
31.4958
30.3675
29.3375
28.3947
27.5295
26.7336
25.9999
25.322
24.6945
24.1125
23.5718
23.0686
22.5997
22.162
21.7529
21.3701
21.0113
20.6748
20.3587
20.0615
19.7818
19.5184
19.2701
19.0358
18.8145
18.6055
18.4078
18.2209
18.0439
17.8763
17.7175
17.5671
17.4245
17.2893
17.1611
17.0397
16.9245
16.8153
16.7119
16.6308
16.5699
16.5127
16.4591
16.4087
16.3616
16.3173
16.2759
16.2371
16.2008
16.1669
16.1352
16.1056
16.078
16.0524
16.0285
16.0065
15.986
15.9671
15.9497
15.9337
15.9188
15.9062
15.889
15.8549
462.323
336.74
258.818
207.612
172.071
146.025
126.264
110.807
98.4512
88.3877
80.0675
73.0996
67.1992
62.1544
57.804
54.0239
50.7168
47.8056
45.2285
42.9355
40.8856
39.0453
37.3865
35.8858
34.5235
33.283
32.1501
31.1126
30.1601
29.2834
28.4748
27.7274
27.0353
26.393
25.7961
25.2403
24.7221
24.2382
23.7858
23.3621
22.965
22.5922
22.242
21.9126
21.6025
21.3102
21.0346
20.7744
20.5287
20.2964
20.0766
19.8687
19.6718
19.4852
19.3084
19.1407
18.9818
18.831
18.688
18.5523
18.4237
18.3016
18.186
18.0952
18.027
17.9629
17.9028
17.8463
17.7934
17.7438
17.6972
17.6537
17.6129
17.5748
17.5392
17.506
17.475
17.4462
17.4194
17.3945
17.3714
17.35
17.3303
17.3121
17.2953
17.2804
17.2631
17.2314
437.204
336.927
267.849
219.117
183.683
156.962
136.306
119.955
106.777
95.9864
87.0306
79.5098
73.1284
67.664
62.9462
58.8429
55.2502
52.0855
49.2823
46.7868
44.5548
42.5501
40.7424
39.1063
37.6206
36.2672
35.0308
33.898
32.8576
31.8998
31.0161
30.1989
29.4419
28.7392
28.0859
27.4775
26.9101
26.38
25.8842
25.4198
24.9843
24.5755
24.1912
23.8297
23.4893
23.1684
22.8656
22.5798
22.3097
22.0542
21.8126
21.5838
21.367
21.1616
20.9669
20.7822
20.607
20.4407
20.2829
20.1331
19.9911
19.8562
19.7284
19.6278
19.5522
19.4812
19.4144
19.3518
19.293
19.2378
19.1861
19.1376
19.0922
19.0497
19.0099
18.9728
18.9381
18.9057
18.8755
18.8475
18.8214
18.7972
18.7747
18.7538
18.7346
18.7165
18.7
18.6694
401.278
331.679
273.877
228.873
194.192
167.158
145.818
128.702
114.788
103.327
93.7766
85.733
78.8935
73.0275
67.9568
63.5423
59.6741
56.2645
53.2427
50.5513
48.1431
45.9793
44.0273
42.2602
40.6549
39.1922
37.8555
36.6305
35.5052
34.4689
33.5124
32.6279
31.8082
31.0472
30.3395
29.6803
29.0653
28.4907
27.9531
27.4495
26.9772
26.5336
26.1166
25.7243
25.3546
25.0062
24.6774
24.3668
24.0733
23.7957
23.533
23.2842
23.0484
22.8249
22.613
22.4119
22.221
22.0398
21.8678
21.7044
21.5493
21.4019
21.2623
21.1522
21.0693
20.9915
20.9183
20.8495
20.7849
20.7242
20.6672
20.6137
20.5635
20.5165
20.4724
20.4311
20.3925
20.3563
20.3226
20.291
20.2616
20.2341
20.2084
20.1844
20.1622
20.1409
20.1234
20.0934
356.042
321.945
276.967
236.436
202.982
175.962
154.169
136.46
121.937
109.906
99.8393
91.3374
84.0934
77.871
72.4858
67.7933
63.6784
60.0492
56.8311
53.9637
51.3971
49.0901
47.0085
45.1234
43.4105
41.8494
40.4224
39.1145
37.9126
36.8057
35.7839
34.8387
33.9627
33.1493
32.3927
31.6878
31.0301
30.4155
29.8404
29.3016
28.7961
28.3214
27.8751
27.455
27.0593
26.6861
26.3339
26.0012
25.6867
25.3892
25.1076
24.8409
24.5881
24.3483
24.1209
23.905
23.7001
23.5054
23.3205
23.1448
22.9779
22.8192
22.6687
22.5499
22.4604
22.3762
22.297
22.2225
22.1524
22.0865
22.0245
21.9662
21.9115
21.86
21.8118
21.7664
21.7239
21.6839
21.6465
21.6113
21.5783
21.5474
21.5184
21.4911
21.4655
21.4414
21.4195
21.3919
320.204
307.848
277.986
240.927
208.577
181.728
159.72
141.66
126.755
114.355
103.95
95.1446
87.6305
81.1688
75.5719
70.6918
66.41
62.6321
59.281
56.2942
53.62
51.2159
49.046
47.0808
45.2948
43.6668
42.1784
40.8141
39.5603
38.4053
37.3391
36.3527
35.4384
34.5893
33.7995
33.0636
32.3769
31.7351
31.1346
30.5718
30.0439
29.548
29.0817
28.6428
28.2293
27.8394
27.4713
27.1236
26.7949
26.4838
26.1894
25.9105
25.6461
25.3953
25.1573
24.9314
24.7168
24.5129
24.3192
24.135
23.96
23.7934
23.6353
23.5103
23.4162
23.3275
23.2439
23.1652
23.0911
23.0213
22.9556
22.8937
22.8354
22.7806
22.7289
22.6803
22.6345
22.5914
22.5508
22.5125
22.4765
22.4426
22.4106
22.3804
22.3519
22.325
22.2997
22.2731
301.361
298.898
278.58
242.986
211.198
184.461
162.369
144.151
129.069
116.495
105.929
96.9787
89.3353
82.759
77.0604
72.0901
67.7281
63.8787
60.4635
57.4192
54.6932
52.2422
50.0299
48.026
46.2048
44.5446
43.0266
41.6351
40.3563
39.1782
38.0906
37.0843
36.1516
35.2854
34.4795
33.7287
33.028
32.3732
31.7603
31.1861
30.6473
30.1412
29.6654
29.2174
28.7954
28.3973
28.0216
27.6666
27.3309
27.0133
26.7125
26.4275
26.1572
25.9008
25.6573
25.4261
25.2064
24.9974
24.7987
24.6095
24.4296
24.2581
24.0951
23.966
23.8685
23.7766
23.6899
23.608
23.5308
23.4579
23.3892
23.3243
23.263
23.2052
23.1506
23.0991
23.0505
23.0045
22.9611
22.9201
22.8814
22.8447
22.8101
22.7773
22.7462
22.7168
22.689
22.6621
302.454
299.557
278.772
243.108
211.279
184.518
162.41
144.183
129.094
116.515
105.946
96.993
89.3476
82.7697
77.0698
72.0985
67.7357
63.8855
60.4698
57.425
54.6985
52.2472
50.0346
48.0304
46.209
44.5485
43.0304
41.6387
40.3597
39.1815
38.0938
37.0874
36.1545
35.2882
34.4823
33.7314
33.0307
32.3757
31.7629
31.1885
30.6497
30.1436
29.6676
29.2196
28.7975
28.3994
28.0235
27.6684
27.3327
27.0149
26.714
26.4288
26.1584
25.9018
25.6582
25.4267
25.2066
24.9973
24.7983
24.6086
24.4282
24.2561
24.0925
23.9627
23.8647
23.7723
23.6849
23.6025
23.5246
23.4511
23.3816
23.316
23.2539
23.1953
23.1399
23.0876
23.038
22.9912
22.9469
22.9049
22.8653
22.8277
22.792
22.7583
22.7263
22.6959
22.6671
22.6403
323.16
309.552
278.542
241.284
208.815
181.894
159.843
141.754
126.83
114.416
104
95.1869
87.6668
81.2005
75.5998
70.7166
66.4324
62.6524
59.2996
56.3113
53.6359
51.2306
49.0598
47.0938
45.3071
43.6785
42.1895
40.8247
39.5704
38.4151
37.3485
36.3618
35.4472
34.5978
33.8078
33.0716
32.3847
31.7427
31.142
30.579
30.0509
29.5548
29.0884
28.6493
28.2356
27.8454
27.477
27.129
26.7999
26.4885
26.1936
25.914
25.6489
25.3973
25.1583
24.9312
24.7153
24.5099
24.3144
24.1281
23.9507
23.7814
23.6203
23.4925
23.3959
23.3046
23.2184
23.1369
23.0599
22.9871
22.9182
22.8531
22.7914
22.7331
22.678
22.6258
22.5763
22.5295
22.4852
22.4432
22.4034
22.3656
22.3298
22.2959
22.2636
22.233
22.2038
22.1774
359.775
323.763
277.928
237.067
203.442
176.314
154.45
136.691
122.131
110.072
99.9837
91.4648
84.2069
77.9733
72.5787
67.8784
63.7569
60.122
56.8991
54.0275
51.4571
49.1469
47.0623
45.1747
43.4595
41.8964
40.4675
39.1579
37.9545
36.8462
35.8231
34.8768
33.9997
33.1853
32.4277
31.722
31.0635
30.4481
29.8723
29.3328
28.8267
28.3514
27.9044
27.4837
27.0874
26.7136
26.3607
26.0273
25.712
25.4137
25.1311
24.8633
24.6093
24.3681
24.1391
23.9214
23.7144
23.5173
23.3298
23.1509
22.9805
22.8178
22.6628
22.5397
22.4467
22.3587
22.2756
22.1969
22.1225
22.0521
21.9854
21.9223
21.8626
21.806
21.7524
21.7017
21.6536
21.608
21.5648
21.5238
21.4849
21.448
21.413
21.3798
21.3482
21.3182
21.2895
21.264
403.704
333.445
275.206
229.954
195.102
167.933
146.485
129.284
115.3
103.782
94.1838
86.1011
79.2288
73.3352
68.2408
63.8062
59.9203
56.4954
53.4601
50.7569
48.338
46.1649
44.2044
42.4297
40.8176
39.3487
38.0062
36.7761
35.6459
34.6053
33.6448
32.7565
31.9334
31.1692
30.4586
29.7966
29.179
28.6019
28.0621
27.5563
27.0819
26.6364
26.2176
25.8234
25.4521
25.1019
24.7713
24.4591
24.1638
23.8844
23.6198
23.3689
23.131
22.9052
22.6907
22.4867
22.2927
22.108
21.9321
21.7644
21.6045
21.4517
21.3061
21.1904
21.1029
21.0201
20.9418
20.8677
20.7976
20.7312
20.6683
20.6087
20.5522
20.4987
20.448
20.3999
20.3543
20.3111
20.2701
20.2312
20.1943
20.1593
20.126
20.0944
20.0644
20.036
20.0084
19.9852
438.609
338.739
269.592
220.695
185.081
158.188
137.382
120.903
107.62
96.741
87.7113
80.1285
73.6945
68.1853
63.4289
59.2925
55.6707
52.4806
49.6549
47.1396
44.8899
42.8694
41.0473
39.3985
37.901
36.5371
35.2908
34.1493
33.1007
32.1354
31.2447
30.4212
29.6582
28.95
28.2916
27.6784
27.1064
26.5721
26.0724
25.6043
25.1653
24.7531
24.3657
24.0011
23.6578
23.334
23.0285
22.7398
22.467
22.2088
21.9643
21.7325
21.5127
21.3041
21.1059
20.9174
20.7382
20.5675
20.4049
20.2498
20.1019
19.9606
19.8258
19.7186
19.6376
19.5609
19.4884
19.4196
19.3546
19.2929
19.2345
19.1792
19.1267
19.077
19.0298
18.9851
18.9427
18.9024
18.8643
18.828
18.7936
18.761
18.73
18.7006
18.6726
18.6463
18.6201
18.5998
463.21
338.815
261.063
209.714
173.955
147.686
127.728
112.101
99.6031
89.4209
81.0012
73.9493
67.9777
62.8721
58.4693
54.6439
51.2971
48.3512
45.7433
43.4231
41.3487
39.4867
37.808
36.2897
34.9111
33.656
32.5096
31.4598
30.4959
29.6088
28.7905
28.0342
27.3337
26.6838
26.0796
25.5172
24.9927
24.5029
24.0449
23.616
23.2139
22.8365
22.4819
22.1482
21.834
21.5379
21.2585
20.9946
20.7451
20.5091
20.2857
20.074
19.8732
19.6826
19.5016
19.3294
19.1657
19.0098
18.8613
18.7196
18.5845
18.4554
18.3321
18.2342
18.1601
18.0899
18.0236
17.9607
17.9011
17.8447
17.7912
17.7405
17.6925
17.6469
17.6036
17.5626
17.5238
17.4869
17.4518
17.4186
17.3871
17.3571
17.3287
17.3018
17.2759
17.2521
17.2276
17.2098
478.312
334.018
250.049
197.505
162.213
136.881
117.934
103.248
91.5839
82.1259
74.3314
67.819
62.3143
57.6145
53.5661
50.0519
46.9798
44.2776
41.8868
39.761
37.8615
36.1573
34.6216
33.2333
31.9733
30.8268
29.7799
28.8218
27.9423
27.1335
26.3875
25.6985
25.0605
24.4689
23.9191
23.4075
22.9306
22.4856
22.0694
21.68
21.315
20.9726
20.6509
20.3484
20.0637
19.7954
19.5423
19.3033
19.0776
18.8641
18.662
18.4705
18.289
18.1167
17.9531
17.7976
17.6497
17.5089
17.3747
17.2468
17.1247
17.0081
16.8967
16.8083
16.7414
16.6781
16.6181
16.5613
16.5075
16.4565
16.4082
16.3623
16.3189
16.2777
16.2386
16.2016
16.1664
16.133
16.1014
16.0713
16.0428
16.0158
15.99
15.9658
15.9422
15.9212
15.8983
15.8831
485.252
324.998
237.144
184.551
150.256
126.108
108.286
94.5907
83.7796
75.0493
67.8761
61.8959
56.8495
52.5466
48.8443
45.6335
42.8287
40.3636
38.1841
36.2475
34.518
32.9674
31.5709
30.3093
29.1649
28.1243
27.1745
26.306
25.5091
24.7767
24.1016
23.4785
22.9017
22.3674
21.871
21.4095
20.9794
20.5783
20.2035
19.8531
19.5247
19.2168
18.9277
18.6561
18.4004
18.1597
17.9328
17.7187
17.5164
17.3253
17.1444
16.9731
16.8108
16.6568
16.5106
16.3718
16.2397
16.114
15.9943
15.8802
15.7713
15.6674
15.568
15.4892
15.4295
15.3731
15.3197
15.2691
15.2211
15.1757
15.1327
15.0919
15.0532
15.0165
14.9817
14.9487
14.9174
14.8877
14.8595
14.8328
14.8073
14.7834
14.7603
14.7391
14.7177
14.6996
14.6785
14.6658
485.408
312.677
222.97
171.278
138.394
115.606
98.9739
86.2875
76.3248
68.3085
61.7395
56.2738
51.6689
47.7475
44.3771
41.457
38.9085
36.6705
34.6935