/*--------------------------------*- C++ -*----------------------------------*\
| =========                 |                                                 |
| \\      /  F ield         | OpenFOAM: The Open Source CFD Toolbox           |
|  \\    /   O peration     | Version:  2306                                  |
|   \\  /    A nd           | Website:  www.openfoam.com                      |
|    \\/     M anipulation  |                                                 |
\*---------------------------------------------------------------------------*/
FoamFile
{
    version     2.0;
    format      ascii;
    arch        "LSB;label=32;scalar=64";
    class       volScalarField;
    location    "1700";
    object      nut;
}
// * * * * * * * * * * * * * * * * * * * * * * * * * * * * * * * * * * * * * //

dimensions      [0 2 -1 0 0 0 0];

internalField   nonuniform List<scalar> 
20540
(
0.276534
0.320539
0.276531
0.320635
0.27653
0.320763
0.276526
0.320916
0.276518
0.321096
0.276505
0.321308
0.276486
0.321558
0.276459
0.321854
0.276421
0.322207
0.276368
0.32263
0.276294
0.323137
0.276191
0.323746
0.276049
0.324478
0.275851
0.325359
0.275575
0.326415
0.275189
0.327679
0.274648
0.329182
0.273888
0.330957
0.272819
0.333034
0.271313
0.335429
0.269191
0.338141
0.266203
0.341124
0.261997
0.344271
0.256086
0.347356
0.247793
0.349969
0.236187
0.351396
0.220006
0.350417
0.19758
0.344957
0.166891
0.331607
0.12648
0.305703
0.0895169
0.265333
0.0638108
0.235413
0.0654193
0.236654
0.0923946
0.268249
0.12915
0.307423
0.168019
0.331924
0.197593
0.344838
0.219343
0.35032
0.235141
0.351409
0.246536
0.350075
0.254713
0.347502
0.260556
0.344396
0.264713
0.341177
0.267658
0.338081
0.269737
0.335232
0.271198
0.332684
0.272219
0.330449
0.272931
0.328518
0.273424
0.326866
0.273765
0.325464
0.273999
0.32428
0.274158
0.323286
0.274266
0.322452
0.274339
0.321754
0.274387
0.32117
0.274419
0.320681
0.27444
0.32027
0.274453
0.319925
0.274461
0.319633
0.274465
0.319386
0.274468
0.319176
0.274468
0.318997
0.274468
0.318844
0.274467
0.318717
0.274466
0.318622
6.75751e-07
2.20754e-07
1.73479e-07
1.45076e-07
1.30004e-07
1.17746e-07
1.09244e-07
1.02156e-07
9.65233e-08
9.17711e-08
8.77644e-08
8.43084e-08
8.13133e-08
7.86903e-08
7.63691e-08
7.43128e-08
7.24733e-08
7.08188e-08
6.93284e-08
6.79785e-08
6.67497e-08
6.56287e-08
6.46025e-08
6.36611e-08
6.27941e-08
6.19939e-08
6.12543e-08
6.05685e-08
5.99317e-08
5.93394e-08
5.87874e-08
5.82719e-08
5.77902e-08
5.73391e-08
5.69165e-08
5.65198e-08
5.61472e-08
5.57968e-08
5.54673e-08
5.5157e-08
5.48651e-08
5.45902e-08
5.43318e-08
5.40888e-08
5.38611e-08
5.36481e-08
5.34498e-08
5.32663e-08
5.30974e-08
5.29443e-08
5.28068e-08
5.26867e-08
5.25842e-08
5.25019e-08
5.24405e-08
5.24032e-08
5.23916e-08
5.24089e-08
5.24598e-08
5.25461e-08
5.26745e-08
5.2849e-08
5.308e-08
5.33249e-08
5.35524e-08
5.38067e-08
5.40885e-08
5.4403e-08
5.47477e-08
5.51287e-08
5.55433e-08
5.59988e-08
5.64924e-08
5.70333e-08
5.76247e-08
5.82674e-08
5.89935e-08
5.9757e-08
6.06867e-08
6.1584e-08
6.28608e-08
6.38942e-08
6.58914e-08
6.69816e-08
7.11492e-08
7.16715e-08
8.61285e-08
6.70557e-08
1.58004e-05
3.45263e-06
2.42569e-06
1.96635e-06
1.72922e-06
1.54909e-06
1.42313e-06
1.3207e-06
1.23914e-06
1.17096e-06
1.11359e-06
1.0643e-06
1.0217e-06
9.84484e-07
9.51625e-07
9.22583e-07
8.96646e-07
8.73362e-07
8.52424e-07
8.33488e-07
8.16275e-07
8.00595e-07
7.86258e-07
7.73123e-07
7.6104e-07
7.49899e-07
7.39614e-07
7.30084e-07
7.21245e-07
7.1303e-07
7.05379e-07
6.98241e-07
6.91575e-07
6.85335e-07
6.79496e-07
6.74014e-07
6.6887e-07
6.64033e-07
6.59486e-07
6.55204e-07
6.51175e-07
6.47378e-07
6.43806e-07
6.40442e-07
6.37283e-07
6.34318e-07
6.31545e-07
6.28962e-07
6.26564e-07
6.2436e-07
6.22347e-07
6.20542e-07
6.18942e-07
6.17573e-07
6.16436e-07
6.15567e-07
6.14968e-07
6.14674e-07
6.14744e-07
6.1515e-07
6.15985e-07
6.17294e-07
6.1914e-07
6.21157e-07
6.23038e-07
6.25217e-07
6.27617e-07
6.30325e-07
6.33261e-07
6.36535e-07
6.40045e-07
6.43941e-07
6.48058e-07
6.52623e-07
6.57415e-07
6.62691e-07
6.68314e-07
6.74304e-07
6.81099e-07
6.87775e-07
6.96383e-07
7.03956e-07
7.15383e-07
7.25697e-07
7.41423e-07
7.68904e-07
7.74116e-07
7.74176e-07
0.000105065
3.36519e-05
2.5061e-05
2.16329e-05
1.98361e-05
1.84797e-05
1.74918e-05
1.66683e-05
1.59905e-05
1.54088e-05
1.49064e-05
1.44649e-05
1.40753e-05
1.37284e-05
1.34169e-05
1.31373e-05
1.2884e-05
1.26536e-05
1.2444e-05
1.22524e-05
1.20764e-05
1.19146e-05
1.17653e-05
1.16275e-05
1.14998e-05
1.13812e-05
1.12711e-05
1.11684e-05
1.10726e-05
1.09831e-05
1.08993e-05
1.08208e-05
1.07472e-05
1.0678e-05
1.0613e-05
1.05517e-05
1.0494e-05
1.04396e-05
1.03883e-05
1.03398e-05
1.02941e-05
1.02508e-05
1.021e-05
1.01715e-05
1.01353e-05
1.01011e-05
1.00691e-05
1.00391e-05
1.00112e-05
9.98542e-06
9.96172e-06
9.94033e-06
9.92115e-06
9.90452e-06
9.89039e-06
9.87917e-06
9.87085e-06
9.86571e-06
9.86458e-06
9.86688e-06
9.8736e-06
9.88543e-06
9.90273e-06
9.92205e-06
9.94001e-06
9.96125e-06
9.98451e-06
1.0011e-05
1.00394e-05
1.00712e-05
1.0105e-05
1.01428e-05
1.0182e-05
1.0226e-05
1.02707e-05
1.0321e-05
1.03721e-05
1.04284e-05
1.04875e-05
1.05505e-05
1.06195e-05
1.06938e-05
1.0775e-05
1.08937e-05
1.0964e-05
1.13321e-05
1.10818e-05
1.06956e-05
0.000302957
0.000100586
6.8806e-05
5.83618e-05
5.36112e-05
5.05677e-05
4.84816e-05
4.68354e-05
4.55104e-05
4.43922e-05
4.34338e-05
4.25945e-05
4.18554e-05
4.11969e-05
4.06045e-05
4.00719e-05
3.95879e-05
3.91465e-05
3.87438e-05
3.83744e-05
3.8034e-05
3.77202e-05
3.74299e-05
3.7161e-05
3.69111e-05
3.66785e-05
3.64617e-05
3.62592e-05
3.60698e-05
3.58925e-05
3.57261e-05
3.55698e-05
3.54229e-05
3.52846e-05
3.51544e-05
3.50315e-05
3.49155e-05
3.4806e-05
3.47025e-05
3.46045e-05
3.45119e-05
3.44243e-05
3.43414e-05
3.4263e-05
3.4189e-05
3.41191e-05
3.40533e-05
3.39916e-05
3.39337e-05
3.38799e-05
3.38301e-05
3.37846e-05
3.37431e-05
3.37065e-05
3.36742e-05
3.36474e-05
3.36255e-05
3.36092e-05
3.35997e-05
3.35971e-05
3.36006e-05
3.36132e-05
3.3635e-05
3.36615e-05
3.3686e-05
3.37169e-05
3.37501e-05
3.37894e-05
3.38305e-05
3.38785e-05
3.39273e-05
3.39851e-05
3.40412e-05
3.41093e-05
3.41723e-05
3.42512e-05
3.43198e-05
3.44107e-05
3.44823e-05
3.45928e-05
3.46588e-05
3.48109e-05
3.48647e-05
3.51813e-05
3.50902e-05
3.59848e-05
3.51587e-05
3.33992e-05
0.000626132
0.000228206
0.000144351
0.000115565
0.000103063
9.6045e-05
9.16126e-05
8.83969e-05
8.59482e-05
8.3967e-05
8.23209e-05
8.09106e-05
7.96909e-05
7.86179e-05
7.76618e-05
7.68096e-05
7.60394e-05
7.53401e-05
7.47051e-05
7.41241e-05
7.35901e-05
7.30987e-05
7.26449e-05
7.22253e-05
7.18355e-05
7.1473e-05
7.11357e-05
7.08204e-05
7.05259e-05
7.02503e-05
6.99917e-05
6.97489e-05
6.95207e-05
6.93059e-05
6.91038e-05
6.89129e-05
6.87329e-05
6.85627e-05
6.8402e-05
6.82498e-05
6.81061e-05
6.79698e-05
6.7841e-05
6.77189e-05
6.76037e-05
6.74946e-05
6.73918e-05
6.72951e-05
6.7204e-05
6.71192e-05
6.70398e-05
6.6967e-05
6.68997e-05
6.68394e-05
6.6785e-05
6.67384e-05
6.66981e-05
6.66658e-05
6.66414e-05
6.66273e-05
6.66216e-05
6.6626e-05
6.66423e-05
6.66674e-05
6.66909e-05
6.67242e-05
6.67586e-05
6.68032e-05
6.68471e-05
6.69035e-05
6.69564e-05
6.7027e-05
6.70879e-05
6.71739e-05
6.72422e-05
6.73463e-05
6.74176e-05
6.75448e-05
6.76115e-05
6.7778e-05
6.78299e-05
6.80816e-05
6.81022e-05
6.86025e-05
6.83406e-05
6.98547e-05
6.90258e-05
6.53824e-05
0.00109179
0.000440273
0.000271823
0.000206169
0.000176427
0.000160449
0.000150844
0.000144349
0.000139662
0.000136059
0.000133192
0.000130814
0.000128818
0.000127099
0.000125596
0.000124277
0.000123099
0.00012204
0.000121087
0.000120221
0.00011943
0.000118706
0.00011804
0.000117427
0.000116859
0.000116332
0.000115844
0.000115387
0.000114962
0.000114565
0.000114193
0.000113843
0.000113516
0.000113208
0.000112918
0.000112644
0.000112387
0.000112143
0.000111913
0.000111696
0.000111491
0.000111296
0.000111112
0.000110937
0.000110773
0.000110617
0.000110469
0.000110331
0.0001102
0.000110077
0.000109962
0.000109856
0.000109757
0.000109668
0.000109586
0.000109514
0.00010945
0.000109397
0.000109353
0.000109322
0.000109301
0.000109296
0.000109299
0.000109319
0.000109338
0.000109372
0.000109405
0.000109454
0.000109499
0.000109564
0.000109619
0.000109705
0.00010977
0.000109877
0.000109953
0.000110089
0.000110167
0.000110337
0.000110415
0.000110649
0.00011072
0.000111047
0.00011107
0.000111734
0.000111425
0.000113486
0.000113386
0.000106687
0.00172733
0.000757835
0.000474624
0.000349106
0.000287479
0.000253719
0.000233569
0.000220378
0.000211189
0.000204414
0.00019922
0.000195057
0.000191678
0.000188847
0.000186427
0.000184351
0.00018253
0.000180916
0.000179486
0.000178201
0.000177039
0.000175983
0.000175021
0.000174141
0.00017333
0.000172581
0.00017189
0.000171248
0.000170652
0.000170096
0.000169577
0.000169091
0.000168636
0.000168209
0.000167809
0.000167432
0.000167077
0.000166741
0.000166426
0.000166127
0.000165846
0.000165579
0.000165327
0.000165088
0.000164862
0.000164649
0.000164447
0.000164257
0.000164078
0.00016391
0.000163751
0.000163605
0.000163467
0.000163342
0.000163226
0.000163124
0.00016303
0.000162952
0.000162883
0.000162832
0.000162791
0.000162773
0.000162765
0.000162778
0.000162792
0.000162828
0.00016286
0.000162916
0.000162962
0.000163041
0.000163101
0.000163208
0.000163283
0.000163418
0.000163517
0.000163684
0.000163794
0.000164008
0.000164115
0.000164422
0.000164527
0.000164953
0.000164993
0.000165869
0.000165636
0.000167938
0.000169839
0.000158583
0.0025711
0.00120399
0.000777701
0.000567676
0.000455926
0.000391401
0.000351973
0.000326133
0.000308327
0.000295472
0.000285836
0.000278333
0.000272386
0.000267534
0.000263483
0.000260089
0.00025717
0.000254629
0.000252417
0.000250458
0.00024871
0.000247142
0.000245727
0.000244446
0.000243276
0.000242205
0.000241223
0.000240315
0.000239477
0.000238701
0.000237979
0.000237306
0.000236679
0.000236091
0.000235543
0.000235027
0.000234544
0.000234088
0.00023366
0.000233256
0.000232875
0.000232515
0.000232176
0.000231855
0.000231552
0.000231266
0.000230995
0.000230741
0.0002305
0.000230274
0.000230061
0.000229865
0.000229678
0.00022951
0.000229352
0.000229213
0.000229084
0.000228976
0.000228877
0.000228804
0.00022874
0.000228709
0.000228684
0.000228699
0.000228707
0.000228747
0.000228782
0.000228849
0.000228905
0.000229002
0.000229079
0.000229213
0.000229314
0.000229482
0.000229618
0.000229827
0.00022999
0.000230263
0.000230425
0.000230811
0.00023097
0.000231564
0.000231642
0.000232744
0.000232667
0.00023491
0.000239218
0.000224523
0.00367324
0.00180753
0.00120801
0.000888796
0.000706612
0.000595163
0.000524217
0.00047664
0.000443531
0.000419656
0.000401884
0.000388238
0.000377574
0.000369031
0.000362031
0.000356265
0.0003514
0.000347232
0.000343669
0.000340561
0.000337828
0.000335408
0.000333253
0.000331325
0.000329581
0.000328001
0.000326566
0.000325249
0.000324044
0.000322935
0.00032191
0.000320961
0.000320082
0.000319262
0.000318501
0.000317787
0.000317121
0.000316495
0.00031591
0.000315359
0.000314842
0.000314354
0.000313895
0.000313462
0.000313055
0.00031267
0.000312307
0.000311966
0.000311643
0.000311343
0.000311057
0.000310796
0.000310546
0.000310323
0.00031011
0.000309926
0.00030975
0.000309607
0.000309473
0.000309374
0.000309284
0.000309243
0.000309201
0.000309224
0.000309228
0.000309284
0.000309325
0.000309415
0.000309485
0.000309612
0.000309723
0.00030989
0.000310043
0.000310252
0.000310459
0.000310711
0.000310973
0.000311304
0.000311576
0.00031209
0.000312303
0.000313156
0.000313294
0.00031469
0.000314833
0.000316857
0.000322664
0.000306181
0.00509748
0.00260496
0.00179693
0.00134281
0.0010689
0.000892527
0.000775013
0.000693478
0.000635411
0.000592963
0.000561144
0.000536725
0.000517697
0.000502571
0.000490303
0.000480299
0.000471959
0.000464921
0.000458966
0.000453843
0.000449398
0.000445506
0.000442083
0.000439056
0.000436348
0.000433919
0.000431735
0.000429748
0.000427947
0.000426302
0.000424794
0.000423407
0.000422131
0.000420948
0.000419857
0.000418839
0.000417894
0.000417011
0.000416189
0.000415418
0.000414698
0.00041402
0.000413386
0.000412788
0.000412228
0.000411701
0.000411205
0.000410741
0.000410301
0.000409894
0.000409506
0.000409154
0.000408816
0.000408516
0.000408229
0.000407982
0.000407745
0.000407554
0.000407375
0.000407244
0.000407124
0.000407073
0.000407016
0.000407054
0.000407059
0.000407143
0.000407197
0.000407335
0.000407427
0.00040762
0.000407761
0.000408009
0.000408214
0.000408514
0.000408806
0.000409155
0.000409538
0.000409982
0.000410394
0.000411087
0.000411396
0.000412552
0.000412788
0.000414547
0.000414931
0.00041686
0.000423726
0.000404844
0.00692368
0.00364239
0.00258239
0.00196466
0.00157711
0.0013162
0.00113551
0.00100532
0.000909845
0.000838462
0.000784044
0.000741854
0.000708757
0.000682392
0.000661037
0.000643664
0.000629253
0.00061719
0.000607042
0.000598387
0.000590938
0.000584487
0.000578856
0.000573921
0.000569548
0.000565659
0.000562195
0.000559066
0.000556256
0.000553709
0.000551392
0.000549275
0.000547341
0.000545561
0.000543929
0.000542414
0.000541017
0.000539719
0.000538517
0.000537394
0.00053635
0.000535372
0.000534462
0.000533606
0.000532808
0.000532058
0.000531357
0.000530702
0.000530083
0.000529511
0.000528969
0.000528478
0.000528007
0.000527591
0.000527193
0.000526852
0.000526526
0.000526264
0.000526019
0.000525841
0.00052568
0.000525613
0.000525541
0.0005256
0.000525614
0.000525734
0.000525812
0.000526012
0.000526141
0.000526429
0.00052661
0.000526981
0.000527246
0.000527692
0.000528077
0.000528576
0.000529109
0.000529705
0.000530315
0.000531211
0.000531702
0.000533214
0.000533538
0.000535824
0.000536418
0.000538782
0.000546191
0.000525183
0.00925093
0.00497751
0.00361072
0.00279598
0.00227074
0.00190497
0.00164282
0.00144789
0.0013004
0.00118726
0.00109907
0.00102951
0.000974194
0.000929695
0.000893422
0.000863784
0.000839152
0.000818559
0.000801242
0.000786519
0.000773893
0.000763018
0.000753569
0.000745329
0.000738074
0.000731661
0.000725979
0.00072089
0.000716337
0.00071224
0.000708534
0.00070517
0.000702113
0.000699318
0.000696769
0.000694413
0.000692254
0.000690258
0.000688418
0.000686707
0.000685125
0.000683648
0.000682279
0.000680998
0.000679807
0.000678693
0.000677655
0.000676686
0.000675775
0.000674936
0.000674143
0.000673425
0.000672739
0.000672134
0.000671558
0.000671062
0.00067059
0.000670211
0.000669859
0.000669598
0.00066937
0.000669265
0.000669169
0.000669241
0.000669269
0.000669426
0.000669543
0.000669812
0.000669995
0.000670397
0.00067064
0.000671167
0.000671514
0.000672144
0.000672658
0.00067334
0.000674084
0.000674847
0.000675748
0.000676842
0.000677643
0.000679493
0.000680029
0.000682891
0.000683984
0.000686828
0.000694704
0.00067133
0.0122009
0.00668214
0.00493856
0.00388685
0.00319665
0.0027037
0.00234102
0.00206369
0.00184816
0.00167877
0.00154346
0.00143459
0.00134646
0.00127451
0.00121516
0.0011662
0.00112518
0.00109075
0.00106166
0.00103688
0.0010156
0.000997284
0.000981377
0.000967523
0.000955354
0.000944629
0.000935149
0.000926699
0.000919155
0.000912392
0.0009063
0.000900793
0.000895807
0.000891266
0.000887139
0.000883347
0.000879881
0.000876688
0.000873758
0.000871042
0.00086854
0.000866213
0.000864063
0.000862059
0.0008602
0.000858466
0.000856858
0.000855356
0.000853951
0.000852659
0.000851442
0.000850338
0.000849288
0.000848362
0.000847482
0.000846716
0.000845997
0.00084541
0.000844866
0.00084445
0.000844098
0.000843894
0.000843747
0.000843796
0.000843839
0.000844012
0.00084418
0.000844508
0.000844768
0.000845284
0.000845618
0.000846317
0.000846782
0.000847617
0.000848312
0.000849197
0.000850223
0.000851167
0.000852455
0.000853741
0.000855006
0.000857096
0.000858196
0.000861325
0.000863166
0.000866346
0.000875615
0.000849397
0.0159218
0.0088451
0.00663479
0.00529771
0.00441065
0.00376536
0.00328123
0.00290277
0.00260219
0.00236022
0.00216326
0.00200134
0.00186781
0.0017569
0.00166406
0.00158646
0.00152069
0.00146499
0.00141755
0.00137685
0.00134174
0.00131141
0.00128498
0.0012619
0.00124161
0.00122371
0.00120789
0.0011938
0.00118122
0.00116996
0.00115982
0.00115067
0.00114241
0.00113489
0.00112807
0.00112183
0.00111613
0.00111089
0.00110609
0.00110165
0.00109757
0.00109379
0.0010903
0.00108705
0.00108405
0.00108125
0.00107866
0.00107625
0.001074
0.00107192
0.00106997
0.0010682
0.00106652
0.00106504
0.00106362
0.00106238
0.00106123
0.00106026
0.00105936
0.00105865
0.00105806
0.00105763
0.00105737
0.00105731
0.00105735
0.00105748
0.0010577
0.00105804
0.0010584
0.001059
0.00105946
0.00106032
0.00106095
0.00106198
0.00106293
0.00106401
0.0010654
0.00106654
0.00106831
0.00106979
0.00107167
0.00107393
0.00107586
0.00107906
0.00108198
0.00108497
0.00109652
0.00106665
0.0205912
0.0115756
0.0087827
0.00710127
0.00597949
0.00515275
0.00452357
0.00402338
0.00361926
0.00328776
0.00301304
0.00278298
0.00259024
0.00242724
0.00228868
0.00217123
0.00207026
0.00198382
0.00190939
0.00184492
0.00178884
0.00174008
0.00169731
0.00165978
0.00162661
0.00159727
0.00157123
0.001548
0.00152721
0.00150858
0.00149179
0.00147663
0.00146292
0.00145046
0.00143913
0.00142878
0.00141932
0.00141064
0.00140268
0.00139534
0.00138859
0.00138234
0.00137657
0.00137122
0.00136626
0.00136165
0.00135738
0.00135341
0.00134971
0.00134628
0.00134309
0.00134016
0.00133741
0.00133492
0.0013326
0.00133051
0.0013286
0.00132694
0.00132538
0.00132415
0.00132306
0.00132221
0.00132166
0.00132132
0.0013213
0.00132128
0.00132154
0.0013218
0.00132226
0.00132286
0.00132349
0.00132443
0.0013253
0.00132647
0.00132775
0.00132901
0.00133085
0.00133219
0.00133452
0.00133623
0.00133884
0.00134126
0.00134421
0.00134745
0.00135172
0.00135401
0.00136895
0.0013349
0.026419
0.0150073
0.0114822
0.00938453
0.0079827
0.00694023
0.00613876
0.00549356
0.00496545
0.00452586
0.00415627
0.00384226
0.00357499
0.00334563
0.00314807
0.00297819
0.00283001
0.00270176
0.00258997
0.00249203
0.00240603
0.00233059
0.00226386
0.00220486
0.00215237
0.00210568
0.002064
0.00202664
0.00199308
0.00196286
0.00193555
0.00191083
0.00188841
0.001868
0.00184941
0.0018324
0.00181683
0.00180253
0.0017894
0.00177728
0.00176612
0.00175578
0.00174624
0.00173737
0.00172917
0.00172153
0.00171445
0.00170785
0.00170173
0.00169603
0.00169072
0.00168582
0.00168125
0.00167705
0.00167317
0.00166963
0.00166637
0.00166349
0.00166085
0.00165863
0.00165658
0.00165498
0.00165379
0.00165293
0.0016527
0.00165236
0.00165254
0.00165257
0.0016531
0.00165354
0.00165437
0.00165525
0.00165642
0.00165763
0.00165932
0.00166072
0.00166305
0.00166463
0.00166757
0.00166959
0.00167301
0.0016757
0.00167971
0.00168321
0.00168866
0.00169129
0.00170819
0.0016702
0.0336472
0.0193018
0.0148523
0.0122508
0.0105145
0.00921557
0.0082098
0.00739267
0.00671734
0.00614898
0.00566578
0.00525059
0.0048927
0.00458202
0.00431103
0.00407504
0.00386683
0.00368471
0.00352401
0.00338158
0.00325534
0.00314356
0.0030437
0.00295466
0.00287481
0.00280331
0.00273901
0.00268102
0.00262862
0.00258119
0.00253811
0.00249896
0.00246329
0.00243069
0.00240088
0.00237353
0.00234844
0.00232532
0.00230406
0.00228438
0.00226624
0.00224939
0.00223383
0.00221933
0.00220591
0.00219337
0.00218175
0.00217088
0.0021608
0.00215138
0.00214263
0.00213447
0.00212691
0.00211988
0.0021134
0.00210742
0.00210193
0.00209697
0.00209243
0.0020885
0.00208492
0.00208195
0.00207946
0.00207773
0.00207696
0.00207605
0.00207593
0.00207551
0.00207596
0.00207604
0.00207702
0.00207764
0.00207915
0.00208024
0.0020824
0.00208385
0.00208673
0.00208861
0.00209218
0.00209458
0.0020989
0.00210202
0.00210719
0.00211121
0.00211798
0.00212151
0.0021404
0.00209657
0.0425467
0.0246531
0.0190327
0.0158217
0.0136855
0.0120815
0.0108335
0.00981281
0.00896331
0.00824254
0.00762467
0.00708927
0.00662328
0.00621509
0.00585554
0.00553914
0.00525765
0.00500844
0.00478658
0.00458806
0.00441049
0.00425185
0.0041087
0.00398002
0.00386365
0.00375875
0.00366364
0.00357726
0.00349871
0.00342716
0.00336178
0.00330208
0.00324738
0.00319717
0.00315102
0.00310853
0.00306937
0.00303317
0.00299974
0.00296871
0.00294002
0.0029133
0.00288854
0.00286543
0.00284397
0.00282389
0.00280525
0.00278777
0.00277153
0.00275629
0.00274214
0.00272887
0.00271657
0.00270506
0.00269445
0.00268455
0.00267549
0.00266714
0.00265955
0.00265273
0.00264662
0.00264138
0.00263672
0.00263348
0.00263171
0.00262983
0.00262902
0.00262784
0.00262794
0.00262743
0.00262838
0.00262853
0.00263032
0.00263112
0.00263379
0.00263519
0.00263876
0.00264082
0.00264529
0.00264806
0.00265362
0.00265707
0.00266411
0.00266808
0.00267764
0.00268053
0.00270355
0.00265104
0.0534063
0.0312905
0.0241851
0.020239
0.0176243
0.0156572
0.0141216
0.0128598
0.0118044
0.0109037
0.0101269
0.00944977
0.00885619
0.00833274
0.0078683
0.00745624
0.00708729
0.00675759
0.00646182
0.00619532
0.00595479
0.00573805
0.00554125
0.00536283
0.00520025
0.00505286
0.00491805
0.00479481
0.00468205
0.00457863
0.0044836
0.00439639
0.00431596
0.00424178
0.00417325
0.00410986
0.00405116
0.00399671
0.00394617
0.00389911
0.00385543
0.00381462
0.00377666
0.00374112
0.00370803
0.00367696
0.00364803
0.00362082
0.00359549
0.00357163
0.00354944
0.00352854
0.00350916
0.0034909
0.00347407
0.00345824
0.00344377
0.00343024
0.00341797
0.0034067
0.00339657
0.00338769
0.00337973
0.00337397
0.00337056
0.00336702
0.00336505
0.00336252
0.00336188
0.0033603
0.00336093
0.00336026
0.00336211
0.00336237
0.00336544
0.00336654
0.00337089
0.00337279
0.00337852
0.00338119
0.00338849
0.00339192
0.00340118
0.00340522
0.00341739
0.00342038
0.00344682
0.00338318
0.0665134
0.0394794
0.0304922
0.0256657
0.0224783
0.0200785
0.018201
0.0166535
0.0153545
0.0142415
0.0132775
0.0124336
0.0116903
0.0110316
0.0104441
0.0099198
0.00944812
0.00902375
0.00864073
0.00829375
0.0079785
0.00769241
0.00743125
0.00719298
0.00697455
0.00677493
0.00659155
0.00642287
0.00626761
0.00612431
0.00599202
0.00587004
0.00575678
0.00565184
0.00555443
0.00546393
0.0053797
0.00530129
0.00522813
0.00515981
0.00509613
0.00503642
0.00498067
0.00492829
0.00487937
0.0048333
0.00479026
0.00474965
0.00471174
0.00467593
0.00464253
0.00461096
0.00458161
0.00455386
0.0045282
0.00450394
0.00448173
0.00446076
0.00444177
0.00442402
0.00440823
0.00439374
0.00438102
0.00437144
0.00436565
0.00435956
0.0043558
0.00435123
0.00434928
0.00434621
0.00434593
0.00434428
0.00434563
0.00434531
0.00434834
0.00434923
0.00435399
0.00435601
0.00436262
0.00436569
0.00437435
0.00437843
0.0043895
0.00439451
0.00440879
0.00441309
0.0044411
0.00437123
0.0821185
0.0495187
0.0381535
0.0322864
0.028414
0.0254981
0.0232137
0.0213269
0.0197394
0.0183755
0.0171911
0.0161513
0.0152324
0.0144155
0.0136846
0.0130294
0.0124381
0.0119037
0.0114191
0.0109784
0.0105762
0.0102092
0.00987277
0.00956433
0.00928033
0.00901918
0.00877828
0.00855567
0.00834974
0.00815891
0.00798176
0.00781753
0.00766461
0.00752224
0.00738949
0.00726566
0.00714993
0.00704179
0.00694037
0.00684556
0.00675675
0.00667315
0.00659484
0.00652105
0.00645189
0.00638658
0.00632537
0.00626747
0.00621323
0.00616186
0.00611382
0.00606828
0.00602581
0.00598553
0.00594819
0.00591274
0.00588019
0.00584928
0.0058212
0.00579497
0.00577102
0.00574899
0.00573011
0.00571523
0.00570594
0.00569655
0.00568988
0.00568282
0.00567854
0.00567367
0.00567164
0.00566881
0.00566898
0.00566805
0.00567042
0.00567125
0.00567585
0.00567831
0.00568527
0.00568922
0.00569875
0.00570406
0.00571656
0.00572299
0.00573932
0.005745
0.00577512
0.00569466
0.100383
0.061705
0.0474048
0.0403063
0.0356148
0.0320831
0.0293134
0.0270233
0.0250937
0.0234333
0.0219889
0.0207191
0.0195945
0.0185929
0.0176949
0.0168877
0.0161578
0.0154961
0.0148944
0.0143456
0.0138432
0.0133831
0.01296
0.0125708
0.0122113
0.0118793
0.0115721
0.0112871
0.0110226
0.0107766
0.0105474
0.010334
0.0101347
0.00994857
0.00977438
0.00961132
0.00945844
0.00931508
0.00918038
0.00905376
0.00893489
0.00882277
0.00871738
0.00861781
0.00852419
0.00843559
0.00835228
0.00827332
0.00819911
0.00812871
0.00806263
0.00799992
0.0079412
0.00788546
0.00783352
0.00778423
0.00773862
0.00769545
0.00765582
0.0076186
0.00758497
0.00755338
0.00752593
0.00750474
0.0074906
0.00747719
0.0074665
0.00745633
0.00744881
0.00744163
0.0074371
0.00743272
0.00743106
0.00742929
0.00743044
0.00743112
0.00743508
0.00743802
0.00744487
0.00744989
0.00745982
0.00746665
0.0074801
0.00748823
0.00750618
0.00751335
0.007545
0.00745456
0.121303
0.0762975
0.0585122
0.0499465
0.0442764
0.0400097
0.0366609
0.0338908
0.031555
0.029544
0.0277931
0.0262529
0.0248877
0.0236705
0.0225782
0.0215948
0.0207046
0.0198963
0.0191599
0.0184872
0.0178702
0.0173038
0.016782
0.0163007
0.0158554
0.015443
0.0150603
0.0147046
0.0143735
0.0140649
0.0137767
0.0135074
0.0132555
0.0130194
0.0127981
0.0125903
0.012395
0.0122114
0.0120386
0.0118756
0.0117222
0.0115773
0.0114407
0.0113114
0.0111895
0.011074
0.0109651
0.0108617
0.0107642
0.0106717
0.0105845
0.0105017
0.0104239
0.01035
0.0102809
0.0102153
0.0101542
0.0100965
0.0100432
0.00999309
0.0099474
0.00990482
0.00986676
0.00983803
0.00981798
0.00979963
0.00978403
0.00976995
0.00975845
0.00974829
0.00974062
0.00973411
0.00973008
0.009727
0.00972648
0.00972661
0.0097295
0.00973265
0.00973893
0.00974486
0.00975462
0.00976295
0.00977659
0.00978646
0.00980521
0.00981373
0.00984514
0.00974969
0.144603
0.0934687
0.0717475
0.0614322
0.0545962
0.0494533
0.0454131
0.0420716
0.0392537
0.036828
0.0347162
0.0328587
0.0312122
0.0297438
0.0284261
0.0272389
0.026164
0.0251873
0.0242966
0.0234821
0.0227347
0.0220475
0.0214137
0.0208283
0.0202861
0.0197831
0.0193156
0.0188805
0.0184747
0.0180959
0.0177416
0.01741
0.0170991
0.0168074
0.0165334
0.0162757
0.0160332
0.0158046
0.0155892
0.0153857
0.0151938
0.0150122
0.0148408
0.0146783
0.0145248
0.0143791
0.0142414
0.0141107
0.0139871
0.0138697
0.0137588
0.0136535
0.0135542
0.0134599
0.0133713
0.0132874
0.0132087
0.0131346
0.0130656
0.0130009
0.0129413
0.0128861
0.0128359
0.0127983
0.0127715
0.0127472
0.012726
0.0127071
0.0126909
0.012677
0.0126656
0.0126562
0.0126493
0.0126442
0.0126415
0.0126404
0.0126418
0.0126445
0.0126496
0.0126558
0.0126648
0.0126741
0.0126869
0.0126984
0.0127158
0.012727
0.0127561
0.0126599
0.169687
0.113222
0.0873562
0.0749688
0.066753
0.0605688
0.0557042
0.0516837
0.0482945
0.0453798
0.0428441
0.0406156
0.0386414
0.0368818
0.0353034
0.0338816
0.0325946
0.0314251
0.0303585
0.029383
0.0284875
0.0276638
0.0269038
0.0262013
0.0255503
0.0249459
0.0243838
0.0238601
0.0233713
0.0229146
0.022487
0.0220864
0.0217105
0.0213573
0.0210252
0.0207126
0.020418
0.0201401
0.0198779
0.0196301
0.0193959
0.0191742
0.0189645
0.0187657
0.0185776
0.018399
0.0182298
0.0180692
0.017917
0.0177725
0.0176356
0.0175057
0.0173827
0.0172662
0.0171561
0.017052
0.0169541
0.0168619
0.0167756
0.0166948
0.0166198
0.0165504
0.0164867
0.016439
0.0164045
0.0163734
0.0163457
0.0163211
0.0162996
0.0162809
0.0162651
0.016252
0.0162415
0.0162334
0.0162279
0.0162246
0.0162238
0.0162249
0.0162284
0.0162336
0.0162411
0.0162499
0.0162612
0.0162728
0.0162882
0.0163001
0.0163263
0.0162348
0.195434
0.13527
0.105508
0.0906949
0.0808688
0.0734556
0.0676132
0.0627894
0.058727
0.0552389
0.0522086
0.0495492
0.0471964
0.0451013
0.0432242
0.0415343
0.0400057
0.0386175
0.0373519
0.0361947
0.0351327
0.0341559
0.0332547
0.0324216
0.0316495
0.0309325
0.0302655
0.0296439
0.0290636
0.0285211
0.0280131
0.0275368
0.0270896
0.0266694
0.026274
0.0259015
0.0255504
0.0252189
0.0249059
0.02461
0.0243301
0.0240651
0.0238141
0.0235762
0.0233507
0.0231366
0.0229336
0.0227408
0.0225579
0.0223842
0.0222194
0.0220629
0.0219147
0.0217741
0.021641
0.0215152
0.0213965
0.0212846
0.0211796
0.0210812
0.0209895
0.0209044
0.020826
0.0207669
0.0207238
0.0206849
0.0206498
0.0206184
0.0205906
0.0205662
0.0205451
0.0205271
0.0205121
0.0205
0.0204907
0.020484
0.0204798
0.0204781
0.0204787
0.0204814
0.0204862
0.0204928
0.0205014
0.0205111
0.0205233
0.0205352
0.0205477
0.0204744
0.220171
0.15894
0.126176
0.108595
0.0969406
0.0880958
0.0811062
0.0753427
0.0704959
0.0663434
0.0627433
0.0595901
0.0568054
0.0543296
0.0521146
0.0501228
0.0483231
0.0466902
0.0452027
0.0438433
0.0425967
0.0414504
0.0403934
0.0394165
0.0385114
0.0376711
0.0368895
0.0361611
0.0354811
0.0348453
0.03425
0.0336918
0.0331678
0.0326751
0.0322115
0.0317747
0.0313629
0.030974
0.0306067
0.0302594
0.0299307
0.0296195
0.0293246
0.029045
0.0287798
0.0285281
0.0282892
0.0280623
0.0278469
0.0276422
0.0274479
0.0272634
0.0270883
0.0269222
0.0267648
0.0266158
0.026475
0.0263422
0.0262172
0.0260998
0.02599
0.0258879
0.0257933
0.0257214
0.0256688
0.0256209
0.0255773
0.0255381
0.0255029
0.0254715
0.0254438
0.0254197
0.0253988
0.0253812
0.0253667
0.025355
0.0253461
0.0253398
0.0253359
0.0253343
0.0253348
0.0253372
0.0253416
0.0253472
0.0253552
0.0253627
0.0253727
0.0253084
0.241633
0.183211
0.148909
0.128424
0.114722
0.104246
0.0959397
0.0891005
0.0833598
0.078455
0.0742133
0.0705075
0.067242
0.0643444
0.0617565
0.059433
0.0573363
0.0554362
0.0537072
0.0521284
0.0506819
0.0493527
0.0481279
0.0469963
0.0459486
0.0449763
0.0440721
0.0432298
0.0424437
0.0417089
0.041021
0.0403761
0.0397707
0.0392016
0.0386662
0.0381617
0.037686
0.0372369
0.0368127
0.0364115
0.0360319
0.0356724
0.0353318
0.0350087
0.0347023
0.0344114
0.0341353
0.0338729
0.0336237
0.0333869
0.033162
0.0329483
0.0327453
0.0325527
0.0323699
0.0321968
0.0320329
0.0318779
0.0317318
0.0315943
0.0314652
0.0313446
0.0312324
0.0311464
0.0310831
0.0310249
0.0309718
0.0309233
0.0308793
0.0308395
0.0308038
0.0307719
0.0307437
0.0307189
0.0306974
0.030679
0.0306634
0.0306506
0.0306403
0.0306324
0.0306266
0.0306229
0.030621
0.0306206
0.0306224
0.0306231
0.0306324
0.0305755
0.257074
0.206477
0.172654
0.149456
0.133512
0.121252
0.111497
0.103477
0.0967597
0.0910378
0.086104
0.0818053
0.078027
0.0746815
0.0716997
0.0690269
0.0666188
0.0644393
0.0624585
0.0606516
0.0589977
0.0574792
0.0560809
0.0547901
0.0535955
0.0524876
0.0514578
0.0504989
0.0496044
0.0487685
0.0479863
0.0472531
0.046565
0.0459184
0.0453101
0.0447371
0.0441969
0.043687
0.0432053
0.0427499
0.042319
0.041911
0.0415243
0.0411577
0.0408099
0.0404797
0.0401662
0.0398683
0.0395853
0.0393163
0.0390606
0.0388176
0.0385867
0.0383673
0.038159
0.0379613
0.0377739
0.0375964
0.0374287
0.0372702
0.0371211
0.0369809