/*--------------------------------*- C++ -*----------------------------------*\
| =========                 |                                                 |
| \\      /  F ield         | OpenFOAM: The Open Source CFD Toolbox           |
|  \\    /   O peration     | Version:  2306                                  |
|   \\  /    A nd           | Website:  www.openfoam.com                      |
|    \\/     M anipulation  |                                                 |
\*---------------------------------------------------------------------------*/
FoamFile
{
    version     2.0;
    format      ascii;
    arch        "LSB;label=32;scalar=64";
    class       volScalarField;
    location    "1700";
    object      omega;
}
// * * * * * * * * * * * * * * * * * * * * * * * * * * * * * * * * * * * * * //

dimensions      [0 0 -1 0 0 0 0];

internalField   nonuniform List<scalar> 
20540
(
1799.49
2508.22
1799.41
2507.4
1799.04
2506.13
1798.38
2504.44
1797.36
2502.27
1795.92
2499.52
1793.96
2496.08
1791.38
2491.8
1788.05
2486.5
1783.82
2479.95
1778.5
2471.87
1771.86
2461.96
1763.65
2449.8
1753.54
2434.93
1741.16
2416.79
1726.06
2394.71
1707.71
2367.91
1685.49
2335.5
1658.7
2296.46
1626.54
2249.65
1588.11
2193.84
1542.45
2127.75
1488.56
2050.12
1425.46
1959.85
1352.23
1856.15
1268.15
1738.79
1172.68
1608.4
1065.44
1466.98
945.744
1317.99
811.351
1163.63
680.336
1030.14
591.614
944.54
597.942
950.387
695.624
1041.35
827.071
1175.36
958.41
1325.49
1075.68
1469.74
1181.04
1606.27
1275.13
1732.37
1358.32
1846.19
1431.06
1947.11
1494.04
2035.33
1548.07
2111.54
1594.09
2176.75
1633.02
2232.11
1665.78
2278.8
1693.23
2317.97
1716.12
2350.69
1735.16
2377.91
1750.92
2400.5
1763.94
2419.18
1774.65
2434.61
1783.42
2447.31
1790.58
2457.76
1796.39
2466.34
1801.06
2473.37
1804.8
2479.13
1807.75
2483.82
1810.04
2487.65
1811.79
2490.75
1813.08
2493.26
1813.99
2495.26
1814.59
2496.85
1814.92
2498.07
1815.03
2498.88
7.14206e+06
7.11629e+06
7.11362e+06
7.11201e+06
7.11116e+06
7.11047e+06
7.10999e+06
7.10959e+06
7.10927e+06
7.109e+06
7.10877e+06
7.10858e+06
7.10841e+06
7.10826e+06
7.10813e+06
7.10801e+06
7.10791e+06
7.10782e+06
7.10773e+06
7.10766e+06
7.10759e+06
7.10752e+06
7.10746e+06
7.10741e+06
7.10736e+06
7.10732e+06
7.10728e+06
7.10724e+06
7.1072e+06
7.10717e+06
7.10714e+06
7.10711e+06
7.10708e+06
7.10705e+06
7.10703e+06
7.10701e+06
7.10699e+06
7.10697e+06
7.10695e+06
7.10693e+06
7.10692e+06
7.1069e+06
7.10688e+06
7.10687e+06
7.10686e+06
7.10685e+06
7.10684e+06
7.10682e+06
7.10682e+06
7.10681e+06
7.1068e+06
7.10679e+06
7.10679e+06
7.10678e+06
7.10678e+06
7.10678e+06
7.10678e+06
7.10678e+06
7.10678e+06
7.10678e+06
7.10679e+06
7.1068e+06
7.10681e+06
7.10683e+06
7.10684e+06
7.10685e+06
7.10687e+06
7.10689e+06
7.10691e+06
7.10693e+06
7.10695e+06
7.10698e+06
7.10701e+06
7.10704e+06
7.10707e+06
7.1071e+06
7.10714e+06
7.10719e+06
7.10724e+06
7.10729e+06
7.10736e+06
7.10742e+06
7.10753e+06
7.10759e+06
7.10783e+06
7.10783e+06
7.10877e+06
7.10733e+06
1.36756e+06
1.38539e+06
1.37021e+06
1.34818e+06
1.33394e+06
1.32098e+06
1.31135e+06
1.30295e+06
1.29602e+06
1.29e+06
1.2848e+06
1.28021e+06
1.27616e+06
1.27255e+06
1.26931e+06
1.2664e+06
1.26376e+06
1.26136e+06
1.25918e+06
1.25719e+06
1.25535e+06
1.25367e+06
1.25212e+06
1.25068e+06
1.24935e+06
1.24812e+06
1.24697e+06
1.2459e+06
1.24491e+06
1.24397e+06
1.2431e+06
1.24228e+06
1.24152e+06
1.2408e+06
1.24012e+06
1.23948e+06
1.23888e+06
1.23831e+06
1.23778e+06
1.23728e+06
1.2368e+06
1.23635e+06
1.23593e+06
1.23553e+06
1.23515e+06
1.2348e+06
1.23448e+06
1.23417e+06
1.23389e+06
1.23363e+06
1.2334e+06
1.2332e+06
1.23302e+06
1.23288e+06
1.23277e+06
1.23269e+06
1.23266e+06
1.23267e+06
1.23274e+06
1.23286e+06
1.23305e+06
1.23331e+06
1.23366e+06
1.23402e+06
1.23436e+06
1.23474e+06
1.23516e+06
1.23563e+06
1.23613e+06
1.23669e+06
1.2373e+06
1.23796e+06
1.23867e+06
1.23943e+06
1.24027e+06
1.24116e+06
1.24216e+06
1.24317e+06
1.24441e+06
1.24551e+06
1.24718e+06
1.24822e+06
1.25086e+06
1.25123e+06
1.2564e+06
1.2543e+06
1.26516e+06
1.27858e+06
487814
531433
553915
552242
548112
542267
537337
532648
528564
524878
521591
518625
515950
513525
511314
509300
507454
505757
504197
502757
501424
500189
499041
497974
496979
496050
495182
494369
493606
492891
492218
491586
490990
490428
489898
489398
488925
488478
488055
487655
487277
486919
486581
486261
485961
485678
485414
485168
484940
484731
484543
484376
484231
484111
484017
483953
483921
483926
483970
484060
484202
484398
484658
484927
485184
485472
485790
486139
486521
486937
487388
487871
488395
488941
489550
490159
490875
491539
492419
493083
494286
494754
496634
496178
499706
496460
501656
512148
253264
254814
275929
282773
284502
283380
281790
279882
278038
276273
274637
273125
271734
270459
269285
268207
267215
266298
265452
264669
263943
263269
262642
262057
261512
261003
260526
260079
259660
259267
258897
258548
258220
257911
257619
257343
257082
256836
256603
256382
256173
255975
255789
255612
255446
255289
255142
255006
254878
254762
254656
254561
254478
254407
254350
254309
254283
254278
254292
254327
254390
254480
254601
254725
254845
254979
255129
255290
255469
255658
255868
256081
256322
256554
256828
257073
257387
257628
258006
258204
258701
258740
259393
258930
259869
258328
257521
264184
160468
145532
156117
163350
167090
168140
168213
167699
166962
166133
165284
164455
163659
162909
162204
161546
160933
160361
159829
159333
158871
158441
158038
157663
157311
156982
156674
156384
156112
155857
155616
155389
155176
154974
154783
154603
154433
154272
154119
153975
153838
153709
153586
153470
153361
153258
153161
153070
152985
152907
152835
152769
152711
152660
152617
152583
152558
152543
152540
152548
152570
152607
152661
152716
152771
152832
152902
152976
153059
153144
153240
153333
153441
153537
153656
153747
153878
153952
154098
154137
154288
154241
154365
154120
154004
153558
151160
156733
112819
94567
97351.5
102070
105718
107614
108567
108873
108836
108605
108262
107870
107452
107032
106620
106222
105840
105478
105136
104812
104508
104221
103952
103699
103460
103236
103025
102827
102639
102463
102296
102139
101991
101850
101718
101592
101473
101360
101253
101152
101056
100965
100878
100797
100719
100646
100577
100512
100451
100394
100342
100293
100249
100209
100175
100145
100121
100102
100090
100084
100086
100095
100114
100135
100156
100180
100209
100238
100273
100306
100345
100379
100421
100452
100495
100518
100560
100569
100600
100583
100589
100530
100463
100345
99948.2
99761.9
97697.3
101578
84151.2
67065.3
65704
67798.2
70367.5
72213.5
73453.2
74177.4
74561.1
74717
74719.9
74634.6
74484.1
74299.8
74096.4
73882.4
73665.7
73452.1
73242.6
73040
72845.2
72659
72481.3
72312.2
72151.5
71999.1
71854.6
71717.7
71587.9
71464.9
71348.4
71237.9
71133.2
71033.9
70939.7
70850.3
70765.5
70684.9
70608.4
70535.7
70466.7
70401.1
70338.7
70279.5
70223.3
70170.1
70119.6
70071.9
70026.9
69984.5
69944.9
69908
69873.8
69842.4
69814
69788.2
69765.9
69746.4
69730.9
69718.3
69710.1
69704.5
69704.3
69705.8
69709.5
69714.3
69721.1
69727
69735.2
69741.3
69750.2
69754.3
69761.9
69762.9
69763.6
69759.4
69753.7
69737.3
69722.9
69679
69641.9
69564.4
69464.5
69363.1
68995
68850.6
67325.9
69847.8
65102.4
50404.7
47175.7
47488.2
48832.8
50173.8
51286.5
52104.7
52672.8
53044
53265.9
53384.6
53423.8
53410.3
53361.2
53284.9
53191.9
53090.3
52981.3
52869.8
52757.6
52646.9
52538.1
52432.1
52329.5
52230.6
52135.4
52044.3
51957
51873.5
51793.8
51717.7
51645.1
51575.9
51509.9
51447
51387.1
51329.9
51275.4
51223.5
51174
51126.9
51081.9
51039.1
50998.3
50959.5
50922.5
50887.4
50854.1
50822.4
50792.5
50764.3
50737.8
50712.8
50689.7
50667.9
50648.1
50629.5
50613.1
50597.8
50584.6
50572
50561.8
50553.3
50547.5
50541.7
50536.7
50530.3
50524.7
50517
50509.9
50499.3
50489
50474.9
50458.2
50438.2
50414
50382.7
50351.5
50296.2
50250.4
50164.8
50072.4
49967.2
49702.7
49558.4
48465.3
50221
51586.5
39397.7
35505.3
34794.2
35207
35946
36727.9
37420.7
37986
38424.2
38749.3
38983.9
39143.4
39245.6
39305
39330.2
39329.8
39313.5
39281.8
39241
39193.2
39141.5
39086.7
39030.2
38973.1
38916.2
38859.8
38804.6
38750.5
38697.9
38646.8
38597.5
38549.9
38504.1
38459.9
38417.6
38376.9
38337.8
38300.3
38264.4
38230
38197.1
38165.5
38135.3
38106.4
38078.6
38052.1
38026.7
38002.5
37979.2
37957.1
37935.8
37915.5
37896
37877.5
37859.6
37842.7
37826
37810.3
37794.7
37779.8
37764.2
37749.4
37735.9
37725.4
37714.3
37703.3
37690.8
37678.2
37663.6
37648.8
37631
37612.4
37591.1
37566.4
37540.3
37507.9
37472.3
37434.2
37377.8
37333.5
37247
37171.8
37062.2
36882.9
36750.4
35979.8
37274.2
41552
31645.8
27680.9
26457
26278.1
26519.3
26941.6
27409.8
27855.1
28248.6
28580.2
28851.5
29066.1
29232.1
29358.4
29450.5
29515.3
29559.7
29585.9
29598.7
29600.6
29595.2
29582.9
29565.7
29545
29521.7
29496.4
29470.1
29442.8
29415.1
29387.3
29359.6
29332.2
29305.2
29278.7
29252.9
29227.8
29203.3
29179.6
29156.6
29134.3
29112.8
29092
29071.9
29052.5
29033.8
29015.8
28998.3
28981.5
28965.1
28949.3
28933.9
28919
28904.3
28890
28875.8
28861.9
28847.8
28833.7
28819.2
28804.5
28788.7
28772.3
28757.1
28744.6
28731.5
28717.9
28703
28687.5
28670
28652.2
28631.5
28610.1
28586.1
28559
28531.3
28496.8
28462.3
28422.1
28371.1
28328.2
28250
28189.2
28084.7
27963.8
27841.7
27307.6
28277
33857.2
25919.9
22160.4
20728.9
20211.5
20119.9
20244.6
20483.9
20765.4
21052
21323.9
21569.7
21784
21966.5
22119.9
22245.7
22347.7
22430.1
22494.7
22544.8
22582.8
22611.2
22631.2
22644.4
22652
22655.3
22654.8
22651.8
22646.1
22638.7
22629.8
22619.8
22608.9
22597.5
22585.5
22573.4
22561.1
22548.7
22536.3
22524
22511.8
22499.7
22487.9
22476.2
22464.8
22453.6
22442.6
22431.8
22421.2
22410.6
22400.3
22390
22379.8
22369.4
22359.1
22348.5
22337.7
22326.4
22314.6
22302.2
22288.8
22274.3
22258.3
22243.5
22230.7
22217.6
22203.4
22188.4
22172.3
22154.6
22136.4
22115.5
22094.3
22070.3
22043.9
22017.6
21983.9
21953.3
21913.7
21870.9
21829.8
21763.6
21715.9
21621
21538.4
21425.4
21052.4
21741.6
27815.7
21534.7
18103
16632.8
15947.9
15654.2
15577
15630.3
15757.5
15922
16103.9
16287.3
16462.5
16624.4
16771
16900.3
17013.4
17111.3
17194.8
17265.7
17325.5
17375.7
17417.4
17451.8
17479.9
17502.9
17521.1
17535.8
17547
17555.5
17561.6
17565.8
17568.4
17569.6
17569.5
17568.6
17566.8
17564.4
17561.4
17558
17554.2
17550
17545.7
17541.1
17536.4
17531.5
17526.5
17521.3
17516.1
17510.6
17505
17499.2
17493.2
17486.7
17480
17472.9
17465.2
17456.9
17447.7
17437.8
17426.4
17414.2
17399.7
17386.6
17374.6
17362.7
17349.2
17335.5
17320.1
17303.9
17286.6
17267.4
17247.6
17225.7
17201.4
17177.8
17146.9
17120.9
17084
17049.7
17011
16958.2
16918
16839.8
16773.5
16681.6
16413.6
16903
22988.8
18081.1
15022
13602.5
12854.2
12453.5
12251.4
12177.7
12185.4
12242.2
12333.9
12443.6
12561.4
12680.7
12797.4
12907.2
13009.7
13103.3
13187.9
13263.7
13331.1
13390.8
13443.4
13489.4
13529.8
13565
13595.5
13622.2
13645.2
13665.1
13682.3
13697.1
13709.7
13720.6
13729.8
13737.7
13744.3
13749.8
13754.4
13758.1
13761.2
13763.6
13765.4
13766.7
13767.5
13767.9
13767.9
13767.5
13766.8
13765.6
13764.2
13762.2
13759.9
13756.9
13753.6
13749.6
13745
13739.5
13733
13725.9
13716.9
13707.4
13695.1
13684.4
13673.8
13663.9
13651.7
13640.1
13626.1
13612.3
13596.7
13580.1
13562.3
13543.5
13521.8
13501.9
13474.4
13453.2
13420.1
13393.3
13357.8
13318
13279.9
13222.5
13164.4
13095.1
12896.7
13245.9
19081.9
15300.9
12620.2
11296.2
10544.7
10098.3
9828.55
9676.57
9602.43
9581.27
9597.8
9640.85
9700.56
9770.95
9847.44
9925.17
10003.2
10078.4
10150.1
10217.5
10280.3
10338.1
10391.2
10439.7
10483.7
10523.7
10559.8
10592.4
10621.8
10648.2
10672
10693.5
10712.7
10730.1
10745.6
10759.6
10772.2
10783.5
10793.7
10802.8
10811
10818.4
10824.9
10830.8
10836
10840.6
10844.6
10848.1
10851
10853.4
10855.3
10856.6
10857.4
10857.5
10857
10856
10854
10851.2
10847.4
10842.9
10836.4
10829.7
10819.9
10811.8
10802.9
10795.2
10784.7
10775.5
10763.3
10752.2
10738.5
10725
10709.4
10694.1
10675.2
10659.2
10635.4
10618.4
10589.9
10569.1
10537.6
10508.3
10472.9
10432
10380.9
10332.9
10179.6
10432.8
15889.4
13023.4
10707.5
9499.01
8777.55
8322.68
8023.21
7828.85
7705.21
7631.96
7595.75
7587.91
7598.83
7625.19
7662.23
7705.23
7753.72
7803.83
7854.66
7905.34
7954.82
8002.25
8047.61
8090.49
8130.88
8168.62
8203.78
8236.47
8266.77
8294.81
8320.72
8344.63
8366.68
8387.02
8405.74
8423.01
8438.92
8453.59
8467.09
8479.54
8491.01
8501.58
8511.3
8520.26
8528.45
8536
8542.84
8549.09
8554.7
8559.75
8564.16
8567.98
8571.18
8573.73
8575.53
8576.82
8577.03
8576.6
8575.24
8572.91
8568.96
8564.75
8557.45
8551.87
8544.73
8539.14
8530.4
8523.56
8513.27
8504.83
8493.09
8482.82
8469.32
8457.59
8441.32
8428.87
8408.76
8395.45
8371.59
8355.44
8328.56
8306.93
8275.68
8246.47
8202.55
8171.95
8048.4
8234.65
13262.4
11131.3
9157.39
8070.69
7396.61
6954.81
6649.22
6436.51
6286.76
6182.86
6113.1
6070.13
6046.45
6038.96
6043.29
6055.91
6076.84
6101.67
6130
6160.97
6193.2
6225.69
6258.38
6290.54
6322.03
6352.38
6381.56
6409.47
6436.04
6461.23
6485.09
6507.57
6528.76
6548.68
6567.4
6584.97
6601.46
6616.91
6631.38
6644.95
6657.64
6669.54
6680.63
6691.03
6700.7
6709.75
6718.1
6725.9
6733.04
6739.65
6745.59
6751.01
6755.73
6759.93
6763.31
6766.21
6768.13
6769.46
6769.7
6769.2
6767.57
6765.16
6760.32
6756.73
6751.31
6747.48
6740.55
6735.71
6727.29
6721.23
6711.4
6703.94
6692.5
6683.87
6670.18
6660.78
6644.23
6633.84
6614.46
6601.86
6579.7
6563.47
6537.34
6515.74
6480.46
6457.25
6367.38
6501.59
11090.2
9541.84
7882.62
6916.58
6297.89
5880.97
5583.26
5367.32
5207.07
5087.77
4999.15
4934.78
4888.66
4857.75
4838.77
4828.7
4827.42
4831
4839.53
4852.21
4867.48
4884.45
4903.17
4922.75
4943.02
4963.34
4983.67
5003.83
5023.61
5042.9
5061.66
5079.73
5097.15
5113.86
5129.88
5145.18
5159.79
5173.7
5186.93
5199.53
5211.46
5222.8
5233.51
5243.69
5253.26
5262.34
5270.82
5278.85
5286.28
5293.28
5299.66
5305.63
5310.93
5315.82
5319.94
5323.65
5326.5
5328.84
5330.24
5330.91
5330.58
5329.51
5326.89
5324.52
5320.77
5318.11
5312.95
5309.51
5302.94
5298.65
5290.69
5285.39
5276.01
5269.76
5258.6
5251.54
5238.3
5230.18
5214.83
5205.06
5187.22
5174.96
5153.79
5137.85
5110.11
5092.74
5030.14
5125.9
9288.57
8194.46
6821.36
5970.82
5410.18
5024.06
4742.08
4532
4371.05
4246.45
4149.14
4073.45
4014.41
3969.16
3935.1
3909.69
3892.47
3880.84
3874.26
3872.26
3873.45
3877.02
3883.25
3891.07
3900.42
3910.52
3921.5
3933.05
3944.94
3957.04
3969.24
3981.33
3993.35
4005.18
4016.79
4028.11
4039.14
4049.83
4060.18
4070.19
4079.81
4089.09
4097.96
4106.51
4114.63
4122.44
4129.81
4136.88
4143.47
4149.79
4155.58
4161.1
4166.04
4170.7
4174.71
4178.41
4181.38
4183.97
4185.74
4187.01
4187.33
4186.96
4185.69
4184.13
4181.6
4179.71
4175.98
4173.45
4168.54
4165.36
4159.23
4155.37
4147.97
4143.35
4134.58
4129.2
4118.89
4112.58
4100.61
4093.09
4079.08
4069.83
4053.16
4041.44
4020.27
4007.43
3965.17
4032.59
7791.52
7044.24
5928.68
5186.28
4683.37
4330.51
4068.33
3869.23
3713.47
3589.89
3490.52
3410.32
3345.08
3292.18
3249.45
3214.77
3187.47
3165.76
3148.9
3136.41
3127.39
3121.07
3117.44
3115.86
3116.17
3117.54
3120.32
3124.11
3128.64
3133.83
3139.54
3145.52
3151.86
3158.38
3165.05
3171.77
3178.54
3185.25
3191.93
3198.52
3204.98
3211.33
3217.5
3223.55
3229.36
3235.05
3240.46
3245.73
3250.69
3255.5
3259.94
3264.24
3268.1
3271.8
3274.99
3278.01
3280.42
3282.61
3284.13
3285.3
3285.76
3285.56
3284.79
3283.68
3281.85
3280.44
3277.66
3275.75
3272.04
3269.61
3264.95
3261.97
3256.35
3252.73
3246.09
3241.82
3234.03
3229.06
3219.95
3214.09
3203.42
3196.38
3183.7
3175.08
3159.45
3150.11
3122.3
3168.67
6546.7
6057.04
5171.31
4528.45
4081.36
3762.23
3521.62
3336.2
3188.93
3070.12
2972.77
2892.41
2825.43
2769.43
2722.57
2683.05
2650.12
2622.45
2599.29
2580.15
2564.41
2551.4
2540.97
2532.65
2526.29
2521.33
2517.79
2515.45
2514.09
2513.63
2513.88
2514.61
2516
2517.79
2519.95
2522.38
2525.08
2527.93
2530.98
2534.12
2537.31
2540.58
2543.85
2547.16
2550.41
2553.67
2556.81
2559.95
2562.91
2565.86
2568.57
2571.26
2573.65
2575.99
2577.97
2579.89
2581.34
2582.71
2583.55
2584.2
2584.24
2583.97
2583.12
2582.14
2580.59
2579.43
2577.19
2575.62
2572.74
2570.72
2567.21
2564.7
2560.54
2557.52
2552.62
2549.09
2543.37
2539.29
2532.59
2527.9
2520.04
2514.6
2505.29
2498.92
2487.71
2481.05
2463.13
2494.02
5511.74
5206.41
4524.26
3971.5
3577.57
3291.53
3072.95
2902.4
2765.33
2653.37
2560.42
2482.53
2416.58
2360.41
2312.41
2271.07
2235.57
2204.92
2178.41
2155.54
2135.85
2118.77
2104.12
2091.49
2080.74
2071.5
2063.65
2057.03
2051.47
2046.86
2043.1
2039.97
2037.53
2035.62
2034.22
2033.21
2032.6
2032.26
2032.28
2032.45
2032.81
2033.4
2034.1
2034.95
2035.85
2036.87
2037.88
2038.99
2040.05
2041.17
2042.18
2043.25
2044.15
2045.08
2045.77
2046.49
2046.88
2047.29
2047.3
2047.18
2046.77
2046.12
2044.83
2043.79
2042.35
2041.18
2039.33
2037.83
2035.58
2033.72
2031.06
2028.84
2025.73
2023.14
2019.53
2016.55
2012.37
2008.99
2004.15
2000.35
1994.7
1990.46
1983.82
1979.12
1971.24
1966.54
1955.18
1974.99
4651.81
4473.5
3965.95
3495.74
3152.04
2897.9
2701.07
2545.71
2419.56
2315.49
2228.22
2154.29
2091.01
2036.44
1989.18
1947.92
1911.88
1880.25
1852.38
1827.81
1806.15
1786.94
1769.96
1754.89
1741.57
1729.72
1719.22
1709.91
1701.65
1694.34
1687.89
1682.15
1677.09
1672.63
1668.71
1665.25
1662.24
1659.58
1657.29
1655.3
1653.54
1652.06
1650.77
1649.69
1648.74
1647.97
1647.28
1646.74
1646.23
1645.84
1645.44
1645.13
1644.76
1644.47
1644.06
1643.7
1643.17
1642.66
1641.93
1641.16
1640.1
1639.02
1637.48
1636.17
1634.8
1633.53
1631.92
1630.42
1628.56
1626.83
1624.71
1622.73
1620.33
1618.09
1615.36
1612.86
1609.77
1606.99
1603.47
1600.42
1596.39
1593.09
1588.44
1584.96
1579.52
1576.2
1569.05
1581.23
3937.84
3843.43
3479.4
3085.95
2789.58
2565.91
2390.16
2249.79
2134.71
2038.93
1957.94
1888.74
1829.02
1777.07
1731.64
1691.62
1656.27
1624.91
1596.98
1572.03
1549.73
1529.69
1511.7
1495.48
1480.87
1467.66
1455.72
1444.91
1435.11
1426.22
1418.16
1410.82
1404.16
1398.09
1392.57
1387.53
1382.95
1378.77
1374.96
1371.48
1368.29
1365.39
1362.72
1360.3
1358.05
1356.01
1354.11
1352.37
1350.73
1349.24
1347.8
1346.48
1345.17
1343.96
1342.72
1341.55
1340.31
1339.11
1337.79
1336.49
1335
1333.5
1331.76
1330.24
1328.89
1327.55
1326.07
1324.6
1322.98
1321.37
1319.6
1317.85
1315.91
1313.99
1311.86
1309.77
1307.43
1305.17
1302.58
1300.15
1297.27
1294.7
1291.48
1288.87
1285.16
1282.79
1278.25
1285.43
3345.27
3303.4
3052.27
2730.41
2478.5
2283.8
2128.28
2002.46
1898.26
1810.77
1736.24
1672.09
1616.34
1567.52
1524.52
1486.39
1452.45
1422.12
1394.89
1370.38
1348.26
1328.23
1310.07
1293.55
1278.51
1264.78
1252.22
1240.73
1230.19
1220.51
1211.63
1203.44
1195.9
1188.93
1182.51
1176.57
1171.07
1165.98
1161.26
1156.89
1152.81
1149.04
1145.51
1142.23
1139.16
1136.31
1133.62
1131.11
1128.74
1126.52
1124.4
1122.4
1120.47
1118.64
1116.85
1115.13
1113.42
1111.75
1110.05
1108.37
1106.62
1104.85
1102.97
1101.35
1100
1098.65
1097.26
1095.85
1094.39
1092.92
1091.39
1089.84
1088.22
1086.58
1084.87
1083.14
1081.31
1079.48
1077.54
1075.61
1073.54
1071.54
1069.31
1067.3
1064.85
1062.99
1060.11
1064.19
2853.11
2842.27
2675.7
2420.19
2209.87
2042.59
1906.35
1794.49
1700.81
1621.42
1553.27
1494.2
1442.55
1397.06
1356.75
1320.83
1288.67
1259.77
1233.69
1210.07
1188.63
1169.11
1151.29
1134.98
1120.04
1106.31
1093.68
1082.03
1071.29
1061.34
1052.14
1043.6
1035.68
1028.32
1021.47
1015.08
1009.13
1003.57
998.377
993.523
988.971
984.712
980.708
976.956
973.419
970.099
966.958
964.004
961.198
958.551
956.025
953.63
951.331
949.138
947.015
944.975
942.978
941.039
939.118
937.225
935.326
933.421
931.484
929.834
928.513
927.197
925.875
924.552
923.22
921.884
920.533
919.173
917.793
916.401
914.984
913.554
912.095
910.626
909.122
907.616
906.068
904.539
902.941
901.422
899.746
898.335
896.437
898.64
2443.21
2450.38
2343.3
2148.76
1976.97
1835.49
1717.53
1618.94
1535.31
1463.69
1401.69
1347.58
1299.97
1257.81
1220.27
1186.65
1156.43
1129.13
1104.4
1081.91
1061.41
1042.66
1025.47
1009.68
995.144
981.732
969.336
957.858
947.215
937.328
928.133
919.569
911.583
904.125
897.154
890.63
884.517
878.787
873.404
868.35
863.593
859.119
854.899
850.923
847.164
843.617
840.255
837.076
834.055
831.19
828.459
825.859
823.37
820.991
818.701
816.497
814.362
812.292
810.269
808.287
806.331
804.391
802.455
800.834
799.557
798.299
797.057
795.828
794.611
793.403
792.203
791.008
789.816
788.628
787.44
786.254
785.067
783.882
782.695
781.514
780.33
779.158
777.978
776.834
775.641
774.582
773.275
774.376
2099.84
2118.66
2051.24
1911.8
1775.01
1657.57
1556.78
1470.71
1396.55
1332.28
1276.11
1226.71
1182.97
1144.02
1109.17
1077.83
1049.54
1023.89
1000.57
979.295
959.831
941.976
925.558
910.425
896.449
883.516
871.526
860.39
850.033
840.383
831.381
822.972
815.106
807.74
800.834
794.353
788.262
782.535
777.142
772.063
767.27
762.749
758.475
754.436
750.611
746.99
743.555
740.296
737.198
734.252
731.445
728.768
726.208
723.759
721.409
719.149
716.969
714.861
712.816
710.823
708.874
706.958
705.069
703.508
702.291
701.105
699.946
698.812
697.702
696.612
695.542
694.49
693.454
692.433
691.427
690.435
689.456
688.49
687.537
686.599
685.673
684.765
683.869
683
682.123
681.329
680.38
680.858
1809.37
1839.01
1798.75
1706.2
1601.11
1505.69
1420.75
1346.28
1280.92
1223.46
1172.71
1127.68
1087.54
1051.59
1019.26
990.072
963.616
939.557
917.61
897.529
879.108
862.164
846.545
832.115
818.755
806.364
794.851
784.135
774.146
764.82
756.101
747.94
740.291
733.113
726.37
720.03
714.06
708.436
703.131
698.125
693.394
688.921
684.688
680.68
676.88
673.276
669.854
666.602
663.509
660.565
657.759
655.081
652.522
650.074
647.728
645.475
643.308
641.219
639.199
637.241
635.338
633.48
631.664
630.178
629.03
627.919
626.844
625.801
624.788
623.805
622.849
621.918
621.012
620.129
619.269
618.429
617.611
616.813
616.036
615.28
614.543
613.827
613.131
612.458
611.794
611.188
610.465
610.603
1560.94
1606.38
1586.28
1531.37
1454.49
1378.6
1307.82
1243.77
1186.32
1134.99
1089.11
1048.01
1011.1
977.852
947.797
920.544
895.755
873.139
852.449
833.47
816.017
799.929
785.068
771.311
758.551
746.695
735.66
725.372
715.767
706.785
698.376
690.492
683.092
676.139
669.598
663.439
657.633
652.156
646.983
642.095
637.471
633.094
628.948
625.017
621.287
617.746
614.382
611.182
608.138
605.238
602.473
599.835
597.316
594.906
592.599
590.387
588.263
586.22
584.252
582.351
580.513
578.728
576.996
575.591
574.512
573.475
572.478
571.519
570.595
569.705
568.847
568.019
567.22
566.449
565.705
564.987
564.294
563.626
562.982
562.36
561.761
561.184
560.628
560.093
559.575
559.092
558.549
558.482
1353.09
1420.16
1416.87
1390.01
1337.26
1277.45
1218.49
1163.23
1112.47
1066.33
1024.55
986.777
952.595
921.615
893.476
867.857
844.474
823.08
803.456
785.414
768.789
753.436
739.228
726.056
713.821
702.436
691.826
681.922
672.663
663.996
655.872
648.248
641.085
634.347
628.002
622.022
616.38
611.053
606.018
601.256
596.748
592.477
588.429
584.588
580.942
577.478
574.186
571.053
568.072
565.231
562.523
559.94
557.473
555.115
552.86
550.701
548.631
546.644
544.736
542.898
541.129
539.419
537.769
536.44
535.425
534.455
533.527
532.641
531.793
530.981
530.204
529.46
528.748
528.066
527.414
526.789
526.191
525.619
525.071
524.547
524.045
523.565
523.106
522.666
522.245
521.846
521.444
521.242
1214.08
1301.66
1313.61
1299.99
1264.98
1214.89
1163.45
1113.84
1067.4
1024.62
985.507
949.882
917.464
887.951
861.049
836.485
814.01
793.404
774.468
757.033
740.944
726.068
712.287
699.496
687.604
676.53
666.2
656.55
647.522
639.066
631.134
623.686
616.684
610.093
603.884
598.029
592.502
587.28
582.343
577.671
573.246
569.053
565.077
561.303
557.72
554.314
551.077
547.996
545.064
542.27
539.608
537.068
534.644
532.33
530.118
528.002
525.978
524.038
522.18
520.396
518.685
517.037
515.457
514.19
513.228
512.313
511.442
510.615
509.828
509.079
508.366
507.689
507.045
506.432
505.849
505.295
504.768
504.266
503.79
503.336
502.905
502.495
502.105
501.733
501.38
501.044
500.72
500.473
1147.34
1246.33
1267.18
1258.5
1231.75
1186.26
1138.31
1091.33
1046.92
1005.72
967.858
933.242
901.651
872.827
846.505
822.435
800.384
780.147
761.534
744.382
728.544
713.892
700.31
687.7
675.969
665.041
654.843
645.313
636.395
628.038
620.198
612.833
605.908
599.388
593.244
587.448
581.977
576.806
571.917
567.289
562.905
558.75
554.809
551.069
547.517
544.141
540.932
537.879
534.973
532.206
529.57
527.058
524.662
522.376
520.195
518.112
516.123
514.222
512.406
510.669
509.009
507.419
505.902
504.694
503.781
502.916
502.098
501.325
500.593
499.901
499.246
498.627
498.041
497.487
496.963
496.467
495.998
495.554
495.135
494.737
494.361
494.005
493.667
493.348
493.045
492.757
492.484
492.235
1149.55
1247.25
1267.59
1258.75
1231.76
1186.23
1138.27
1091.3
1046.89
1005.69
967.837
933.227
901.64
872.819
846.5
822.432
800.384
780.148
761.537
744.386
728.549
713.897
700.316
687.706
675.976
665.048
654.85
645.321
636.403
628.047
620.206
612.842
605.916
599.397
593.253
587.457
581.986
576.816
571.926
567.298
562.915
558.761
554.82
551.081
547.53
544.156
540.948
537.897
534.994
532.231
529.599
527.091
524.702
522.423
520.251
518.179
516.203
514.318
512.52
510.803
509.168
507.605
506.119
504.941
504.052
503.213
502.422
501.676
500.973
500.31
499.684
499.095
498.539
498.015
497.521
497.055
496.615
496.201
495.81
495.441
495.093
494.764
494.453
494.159
493.881
493.618
493.37
493.12
1219.69
1303.97
1314.73
1300.59
1264.91
1214.76
1163.31
1113.71
1067.29
1024.54
985.446
949.838
917.433
887.931
861.038
836.481
814.012
793.41
774.478
757.046
740.959
726.085
712.306
699.517
687.626
676.553
666.223
656.574
647.547
639.091
631.16
623.712
616.71
610.12
603.911
598.056
592.529
587.308
582.371
577.7
573.276
569.085
565.11
561.339
557.758
554.357
551.125
548.052
545.13
542.348
539.701
537.181
534.781
532.495
530.319
528.245
526.271
524.39
522.601
520.898
519.279
517.738
516.278
515.125
514.259
513.444
512.678
511.958
511.282
510.647
510.05
509.489
508.962
508.467
508.003
507.566
507.156
506.77
506.407
506.066
505.745
505.443
505.159
504.891
504.638
504.399
504.176
503.933
1358.53
1421.34
1417.06
1389.23
1335.91
1276.22
1217.39
1162.26
1111.6
1065.55
1023.86
986.143
952.01
921.07
892.964
867.373
844.013
822.638
803.03
785.002
768.388
753.046
738.847
725.683
713.454
702.076
691.47
681.571
672.316
663.653
655.532
647.911
640.751
634.015
627.673
621.695
616.056
610.73
605.698
600.938
596.433
592.165
588.121
584.286
580.646
577.191
573.909
570.79
567.826
565.007
562.327
559.777
557.352
555.045
552.851
550.765
548.784
546.9
545.113
543.417
541.81
540.287
538.85
537.723
536.878
536.087
535.347
534.654
534.005
533.399
532.832
532.301
531.805
531.341
530.907
530.502
530.122
529.767
529.435
529.124
528.833
528.56
528.304
528.064
527.838
527.626
527.431
527.197
1558.24
1599.7
1579.21
1524.29
1448.01
1372.93
1302.8
1239.29
1182.25
1131.25
1085.62
1044.74
1008
974.885
944.944
917.788
893.08
870.535
849.904
830.977
813.569
797.522
782.695
768.969
756.237
744.406
733.392
723.124
713.535
704.569
696.174
688.303
680.915
673.972
667.44
661.29
655.492
650.022
644.857
639.976
635.36
630.991
626.854
622.933
619.216
615.689
612.343
609.166
606.149
603.283
600.562
597.976
595.52
593.188
590.975
588.875
586.885
585
583.217
581.531
579.941
578.442
577.034
575.938
575.121
574.36
573.651
572.991
572.377
571.806
571.275
570.781
570.323
569.897
569.501
569.133
568.791
568.474
568.179
567.905
567.65
567.413
567.192
566.986
566.795
566.613
566.461
566.216
1794.98
1820.95
1781.26
1690.59
1587.6
1493.96
1410.36
1336.93
1272.35
1215.5
1165.23
1120.58
1080.75
1045.06
1012.94
983.929
957.624
933.695
911.858
891.874
873.535
856.665
841.109
826.735
813.425
801.078
789.603
778.922
768.962
759.664
750.969
742.829
735.198
728.037
721.309
714.982
709.025
703.412
698.117
693.12
688.4
683.938
679.717
675.721
671.938
668.353
664.955
661.733
658.678
655.78
653.032
650.426
647.956
645.616
643.4
641.304
639.324
637.455
635.695
634.039
632.486
631.033
629.676
628.63
627.856
627.139
626.476
625.864
625.299
624.778
624.298
623.856
623.448
623.074
622.729
622.413
622.122
621.855
621.61
621.384
621.177
620.987
620.812
620.652
620.504
620.366
620.259
619.982
2070.12
2085.5
2020.36
1885.58
1752.67
1638.15
1539.49
1455.01
1382.05
1318.69
1263.24
1214.41
1171.13
1132.57
1098.03
1066.95
1038.88
1013.42
990.265
969.13
949.786
932.034
915.705
900.651
886.742
873.867
861.926
850.834
840.513
830.897
821.921
813.536
805.688
798.339
791.446
784.976
778.895
773.176
767.79
762.717
757.931
753.416
749.151
745.122
741.313
737.71
734.301
731.075
728.022
725.132
722.398
719.811
717.367
715.058
712.879
710.827
708.897
707.085
705.389
703.805
702.332
700.966
699.705
698.746
698.043
697.4
696.812
696.276
695.788
695.345
694.942
694.577
694.247
693.949
693.681
693.439
693.223
693.028
692.855
692.7
692.562
692.439
692.33
692.234
692.147
692.073
692.021
691.723
2392.79
2397.78
2295.97
2109.65
1943.74
1806.46
1691.48
1595.08
1513.07
1442.69
1381.66
1328.32
1281.33
1239.68
1202.54
1169.28
1139.34
1112.29
1087.76
1065.45
1045.09
1026.46
1009.38
993.674
979.208
965.854
953.505
942.066
931.451
921.588
912.408
903.855
895.872
888.418
881.443
874.915
868.794
863.055
857.663
852.597
847.831
843.346
839.121
835.14
831.385
827.844
824.503
821.35
818.375
815.568
812.922
810.428
808.082
805.875
803.806
801.867
800.058
798.374
796.813
795.372
794.05
792.844
791.752
790.942
790.359
789.837
789.372
788.957
788.592
788.269
787.988
787.743
787.532
787.351
787.198
787.069
786.963
786.877
786.81
786.759
786.723
786.698
786.688
786.679
786.671
786.672
786.655
786.425
2775.19
2764.82
2608.71
2365.44
2163.25
2001.54
1869.19
1760.13
1668.51
1590.69
1523.76
1465.65
1414.76
1369.9
1330.09
1294.58
1262.77
1234.13
1208.27
1184.84
1163.55
1144.14
1126.41
1110.18
1095.28
1081.58
1068.97
1057.33
1046.57
1036.61
1027.38
1018.82
1010.86
1003.46
996.559
990.13
984.125
978.519
973.271
968.365
963.764
959.456
955.411
951.619
948.056
944.712
941.569
938.619
935.848
933.249
930.812
928.531
926.4
924.412
922.566
920.855
919.28
917.834
916.521
915.334
914.275
913.341
912.533
911.964
911.577
911.249
910.977
910.753
910.579
910.442
910.352
910.285
910.263
910.251
910.266
910.303
910.366
910.445
910.539
910.644
910.761
910.884
911.015
911.151