/*--------------------------------*- C++ -*----------------------------------*\
| =========                 |                                                 |
| \\      /  F ield         | OpenFOAM: The Open Source CFD Toolbox           |
|  \\    /   O peration     | Version:  2306                                  |
|   \\  /    A nd           | Website:  www.openfoam.com                      |
|    \\/     M anipulation  |                                                 |
\*---------------------------------------------------------------------------*/
FoamFile
{
    version     2.0;
    format      ascii;
    arch        "LSB;label=32;scalar=64";
    class       volScalarField;
    location    "1700";
    object      p;
}
// * * * * * * * * * * * * * * * * * * * * * * * * * * * * * * * * * * * * * //

dimensions      [0 2 -2 0 0 0 0];

internalField   nonuniform List<scalar> 
20540
(
1473.64
85.5208
1473.61
18.0026
1473.58
-20.9311
1473.55
-33.9269
1473.5
-38.9224
1473.44
-42.6525
1473.36
-45.881
1473.26
-48.5373
1473.13
-50.7343
1472.97
-52.6165
1472.76
-54.2724
1472.51
-55.7485
1472.21
-57.0717
1471.82
-58.2574
1471.36
-59.3114
1470.78
-60.231
1470.08
-61.0038
1469.23
-61.6071
1468.2
-62.0048
1466.95
-62.1442
1465.47
-61.9516
1463.71
-61.3258
1461.68
-60.1333
1459.37
-58.2029
1456.86
-55.3251
1454.28
-51.2559
1451.9
-45.7281
1450.25
-38.5089
1450.13
-29.6776
1452.19
-20.3035
1455.59
-13.5151
1457.95
-10.1213
1457.82
-10.5127
1455.28
-14.627
1451.98
-21.9633
1450.15
-31.438
1450.41
-40.2774
1452.11
-47.5518
1454.51
-53.1937
1457.11
-57.4115
1459.64
-60.4507
1461.98
-62.5418
1464.06
-63.8868
1465.86
-64.6536
1467.4
-64.9757
1468.69
-64.9555
1469.77
-64.6697
1470.66
-64.174
1471.4
-63.5077
1472.01
-62.6974
1472.51
-61.759
1472.92
-60.7
1473.25
-59.5201
1473.52
-58.2107
1473.74
-56.7551
1473.92
-55.1253
1474.07
-53.2736
1474.18
-51.1113
1474.27
-48.4946
1474.35
-45.3133
1474.4
-41.6277
1474.45
-36.6154
1474.48
-23.478
1474.51
15.402
1474.53
81.9926
-28.3253
-0.841189
-41.5493
-32.397
-47.1915
-48.3625
-55.2326
-59.0432
-63.6633
-67.618
-71.4757
-75.0861
-78.5116
-81.7603
-84.8434
-87.7761
-90.5648
-93.223
-95.7551
-98.1721
-100.478
-102.683
-104.789
-106.804
-108.732
-110.579
-112.347
-114.043
-115.669
-117.228
-118.725
-120.163
-121.543
-122.87
-124.146
-125.373
-126.554
-127.691
-128.787
-129.845
-130.866
-131.854
-132.811
-133.741
-134.647
-135.533
-136.403
-137.262
-138.116
-138.969
-139.831
-140.707
-141.607
-142.542
-143.522
-144.561
-145.673
-146.877
-148.186
-149.625
-151.209
-152.972
-154.929
-156.783
-158.377
-160.059
-161.829
-163.7
-165.671
-167.753
-169.943
-172.255
-174.681
-177.246
-179.941
-182.804
-185.82
-189.056
-192.464
-196.181
-200.066
-204.434
-208.94
-214.337
-219.847
-227.425
-235.665
-250.56
-28.3669
-0.841106
-41.5487
-32.3966
-47.1912
-48.3623
-55.2324
-59.043
-63.6631
-67.6178
-71.4756
-75.086
-78.5115
-81.7603
-84.8433
-87.776
-90.5647
-93.223
-95.755
-98.1721
-100.478
-102.683
-104.789
-106.804
-108.732
-110.579
-112.347
-114.043
-115.668
-117.228
-118.725
-120.163
-121.543
-122.87
-124.146
-125.373
-126.554
-127.691
-128.787
-129.845
-130.866
-131.854
-132.811
-133.741
-134.647
-135.533
-136.403
-137.262
-138.116
-138.969
-139.831
-140.707
-141.607
-142.542
-143.522
-144.561
-145.673
-146.877
-148.186
-149.625
-151.209
-152.972
-154.929
-156.783
-158.377
-160.059
-161.829
-163.7
-165.671
-167.753
-169.943
-172.255
-174.681
-177.246
-179.941
-182.804
-185.82
-189.057
-192.464
-196.182
-200.066
-204.435
-208.941
-214.339
-219.848
-227.431
-235.646
-250.479
-28.4449
-0.842431
-41.5481
-32.3959
-47.1907
-48.3618
-55.2321
-59.0427
-63.6629
-67.6176
-71.4754
-75.0858
-78.5113
-81.7601
-84.8432
-87.7759
-90.5646
-93.2229
-95.7549
-98.1719
-100.478
-102.683
-104.789
-106.804
-108.732
-110.579
-112.347
-114.043
-115.668
-117.228
-118.725
-120.162
-121.543
-122.87
-124.146
-125.373
-126.554
-127.691
-128.787
-129.845
-130.866
-131.854
-132.811
-133.741
-134.647
-135.533
-136.403
-137.262
-138.115
-138.969
-139.831
-140.707
-141.607
-142.542
-143.522
-144.561
-145.673
-146.877
-148.186
-149.625
-151.209
-152.972
-154.929
-156.783
-158.377
-160.059
-161.829
-163.7
-165.671
-167.754
-169.943
-172.255
-174.682
-177.247
-179.942
-182.805
-185.821
-189.058
-192.465
-196.183
-200.068
-204.437
-208.942
-214.342
-219.847
-227.444
-235.595
-250.267
-28.5603
-0.846712
-41.5478
-32.3949
-47.1898
-48.3611
-55.2314
-59.0421
-63.6624
-67.6172
-71.475
-75.0854
-78.511
-81.7598
-84.8429
-87.7756
-90.5643
-93.2226
-95.7547
-98.1717
-100.478
-102.682
-104.789
-106.804
-108.732
-110.578
-112.347
-114.043
-115.668
-117.228
-118.725
-120.162
-121.543
-122.87
-124.145
-125.372
-126.553
-127.691
-128.787
-129.845
-130.866
-131.854
-132.811
-133.741
-134.647
-135.533
-136.403
-137.262
-138.115
-138.969
-139.831
-140.707
-141.607
-142.542
-143.522
-144.561
-145.673
-146.877
-148.186
-149.625
-151.209
-152.973
-154.93
-156.783
-158.377
-160.06
-161.83
-163.701
-165.672
-167.754
-169.944
-172.256
-174.683
-177.248
-179.943
-182.806
-185.823
-189.06
-192.467
-196.186
-200.07
-204.44
-208.944
-214.349
-219.843
-227.468
-235.482
-250.005
-28.7251
-0.856611
-41.5488
-32.3939
-47.1887
-48.3599
-55.2304
-59.0412
-63.6616
-67.6164
-71.4743
-75.0848
-78.5104
-81.7592
-84.8424
-87.7751
-90.5639
-93.2222
-95.7543
-98.1714
-100.478
-102.682
-104.788
-106.804
-108.731
-110.578
-112.347
-114.042
-115.668
-117.228
-118.725
-120.162
-121.543
-122.87
-124.145
-125.372
-126.553
-127.691
-128.787
-129.844
-130.866
-131.854
-132.811
-133.741
-134.647
-135.533
-136.403
-137.262
-138.115
-138.969
-139.83
-140.707
-141.607
-142.542
-143.522
-144.561
-145.673
-146.877
-148.186
-149.625
-151.209
-152.973
-154.93
-156.784
-158.378
-160.06
-161.831
-163.702
-165.673
-167.755
-169.945
-172.258
-174.684
-177.249
-179.945
-182.809
-185.825
-189.063
-192.47
-196.189
-200.073
-204.445
-208.945
-214.357
-219.833
-227.493
-235.307
-249.621
-28.9514
-0.875222
-41.5523
-32.3935
-47.1875
-48.3586
-55.2292
-59.04
-63.6605
-67.6154
-71.4734
-75.084
-78.5097
-81.7585
-84.8417
-87.7745
-90.5633
-93.2216
-95.7538
-98.1709
-100.477
-102.682
-104.788
-106.803
-108.731
-110.578
-112.346
-114.042
-115.668
-117.227
-118.724
-120.162
-121.542
-122.869
-124.145
-125.372
-126.553
-127.69
-128.786
-129.844
-130.865
-131.853
-132.811
-133.741
-134.647
-135.533
-136.403
-137.262
-138.115
-138.969
-139.83
-140.707
-141.607
-142.542
-143.522
-144.561
-145.673
-146.877
-148.186
-149.626
-151.21
-152.973
-154.93
-156.784
-158.378
-160.061
-161.832
-163.703
-165.674
-167.757
-169.947
-172.259
-174.686
-177.252
-179.947
-182.811
-185.828
-189.066
-192.474
-196.193
-200.076
-204.45
-208.944
-214.364
-219.812
-227.505
-235.067
-249.068
-29.2517
-0.905335
-41.5597
-32.3942
-47.1868
-48.3572
-55.2278
-59.0387
-63.6592
-67.6142
-71.4723
-75.0829
-78.5087
-81.7576
-84.8408
-87.7737
-90.5625
-93.2209
-95.7531
-98.1702
-100.477
-102.681
-104.787
-106.803
-108.73
-110.577
-112.346
-114.041
-115.667
-117.227
-118.724
-120.161
-121.542
-122.869
-124.144
-125.372
-126.553
-127.69
-128.786
-129.844
-130.865
-131.853
-132.81
-133.74
-134.647
-135.532
-136.402
-137.261
-138.115
-138.969
-139.83
-140.706
-141.607
-142.541
-143.522
-144.561
-145.673
-146.877
-148.186
-149.626
-151.21
-152.974
-154.931
-156.785
-158.379
-160.062
-161.833
-163.704
-165.675
-167.758
-169.949
-172.261
-174.689
-177.254
-179.95
-182.814
-185.831
-189.069
-192.476
-196.197
-200.077
-204.454
-208.939
-214.368
-219.777
-227.493
-234.752
-248.318
-29.6414
-0.949534
-41.5724
-32.3967
-47.1869
-48.3561
-55.2264
-59.0371
-63.6577
-67.6128
-71.4709
-75.0816
-78.5074
-81.7564
-84.8398
-87.7726
-90.5615
-93.22
-95.7522
-98.1693
-100.476
-102.68
-104.786
-106.802
-108.73
-110.577
-112.345
-114.041
-115.667
-117.226
-118.723
-120.161
-121.541
-122.868
-124.144
-125.371
-126.552
-127.689
-128.786
-129.843
-130.865
-131.853
-132.81
-133.74
-134.646
-135.532
-136.402
-137.261
-138.114
-138.968
-139.83
-140.706
-141.607
-142.541
-143.521
-144.561
-145.673
-146.877
-148.186
-149.626
-151.21
-152.974
-154.932
-156.786
-158.38
-160.063
-161.834
-163.705
-165.677
-167.76
-169.951
-172.263
-174.691
-177.256
-179.952
-182.817
-185.833
-189.072
-192.478
-196.199
-200.076
-204.454
-208.928
-214.363
-219.721
-227.442
-234.347
-247.339
-30.1402
-1.01081
-41.5922
-32.4019
-47.1884
-48.3555
-55.2253
-59.0356
-63.6562
-67.6112
-71.4694
-75.0801
-78.506
-81.7551
-84.8384
-87.7714
-90.5603
-93.2188
-95.7511
-98.1683
-100.475
-102.679
-104.785
-106.801
-108.729
-110.576
-112.344
-114.04
-115.666
-117.226
-118.723
-120.16
-121.541
-122.868
-124.143
-125.37
-126.551
-127.689
-128.785
-129.843
-130.864
-131.852
-132.809
-133.739
-134.646
-135.531
-136.401
-137.26
-138.114
-138.968
-139.829
-140.706
-141.606
-142.541
-143.521
-144.561
-145.673
-146.877
-148.186
-149.626
-151.21
-152.974
-154.932
-156.787
-158.381
-160.064
-161.835
-163.707
-165.678
-167.762
-169.952
-172.265
-174.693
-177.258
-179.954
-182.819
-185.835
-189.073
-192.478
-196.198
-200.071
-204.449
-208.906
-214.344
-219.635
-227.334
-233.838
-246.096
-30.7725
-1.09299
-41.6206
-32.4106
-47.1917
-48.3558
-55.2246
-59.0343
-63.6546
-67.6096
-71.4677
-75.0785
-78.5044
-81.7535
-84.8369
-87.7699
-90.5589
-93.2175
-95.7498
-98.167
-100.474
-102.678
-104.784
-106.8
-108.728
-110.575
-112.343
-114.039
-115.665
-117.225
-118.722
-120.159
-121.54
-122.867
-124.142
-125.37
-126.551
-127.688
-128.784
-129.842
-130.863
-131.851
-132.809
-133.739
-134.645
-135.531
-136.401
-137.26
-138.113
-138.967
-139.829
-140.705
-141.606
-142.54
-143.521
-144.56
-145.673
-146.877
-148.186
-149.626
-151.211
-152.975
-154.933
-156.787
-158.382
-160.065
-161.836
-163.708
-165.679
-167.763
-169.954
-172.266
-174.694
-177.259
-179.955
-182.819
-185.834
-189.072
-192.474
-196.193
-200.058
-204.434
-208.868
-214.303
-219.509
-227.144
-233.207
-244.556
-31.5675
-1.20098
-41.6597
-32.4239
-47.1975
-48.3574
-55.2247
-59.0334
-63.6533
-67.608
-71.466
-75.0767
-78.5026
-81.7518
-84.8352
-87.7682
-90.5573
-93.2159
-95.7482
-98.1655
-100.472
-102.677
-104.783
-106.798
-108.727
-110.573
-112.342
-114.038
-115.664
-117.224
-118.721
-120.158
-121.539
-122.866
-124.141
-125.369
-126.55
-127.687
-128.783
-129.841
-130.862
-131.85
-132.808
-133.738
-134.644
-135.53
-136.4
-137.259
-138.112
-138.967
-139.828
-140.704
-141.605
-142.54
-143.52
-144.56
-145.672
-146.876
-148.186
-149.626
-151.211
-152.975
-154.933
-156.787
-158.382
-160.066
-161.836
-163.708
-165.68
-167.763
-169.954
-172.266
-174.693
-177.258
-179.953
-182.816
-185.83
-189.066
-192.464
-196.179
-200.034
-204.403
-208.807
-214.227
-219.326
-226.835
-232.438
-242.701
-32.5599
-1.34092
-41.7118
-32.4427
-47.2067
-48.3606
-55.2259
-59.0332
-63.6524
-67.6067
-71.4644
-75.075
-78.5009
-81.75
-84.8334
-87.7665
-90.5555
-93.2141
-95.7465
-98.1639
-100.47
-102.675
-104.781
-106.797
-108.725
-110.572
-112.341
-114.036
-115.662
-117.222
-118.719
-120.157
-121.538
-122.864
-124.14
-125.367
-126.548
-127.686
-128.782
-129.84
-130.861
-131.849
-132.807
-133.737
-134.643
-135.529
-136.399
-137.258
-138.112
-138.966
-139.827
-140.704
-141.604
-142.539
-143.519
-144.559
-145.672
-146.876
-148.185
-149.625
-151.21
-152.974
-154.932
-156.787
-158.382
-160.065
-161.836
-163.708
-165.679
-167.762
-169.952
-172.264
-174.69
-177.254
-179.948
-182.809
-185.82
-189.052
-192.445
-196.153
-199.993
-204.349
-208.713
-214.097
-219.07
-226.367
-231.508
-240.535
-33.7901
-1.52042
-41.78
-32.4684
-47.2199
-48.3661
-55.2286
-59.0339
-63.6522
-67.6058
-71.4632
-75.0735
-78.4992
-81.7482
-84.8316
-87.7646
-90.5537
-93.2123
-95.7447
-98.162
-100.469
-102.673
-104.78
-106.795
-108.723
-110.57
-112.339
-114.035
-115.661
-117.221
-118.718
-120.155
-121.536
-122.863
-124.139
-125.366
-126.547
-127.685
-128.781
-129.838
-130.86
-131.848
-132.806
-133.736
-134.642
-135.528
-136.398
-137.257
-138.11
-138.964
-139.826
-140.702
-141.603
-142.538
-143.518
-144.558
-145.671
-146.875
-148.184
-149.624
-151.209
-152.973
-154.931
-156.786
-158.38
-160.064
-161.834
-163.705
-165.676
-167.758
-169.947
-172.258
-174.683
-177.245
-179.936
-182.794
-185.801
-189.027
-192.41
-196.106
-199.927
-204.258
-208.572
-213.888
-218.715
-225.692
-230.387
-238.088
-35.3043
-1.74884
-41.8677
-32.5026
-47.238
-48.3745
-55.2332
-59.0359
-63.6529
-67.6056
-71.4625
-75.0725
-78.4979
-81.7467
-84.83
-87.7629
-90.5519
-93.2105
-95.7429
-98.1602
-100.467
-102.672
-104.778
-106.793
-108.722
-110.569
-112.337
-114.033
-115.659
-117.219
-118.716
-120.154
-121.534
-122.861
-124.137
-125.364
-126.546
-127.683
-128.779
-129.837
-130.858
-131.847
-132.804
-133.734
-134.64
-135.526
-136.396
-137.255
-138.109
-138.963
-139.824
-140.701
-141.602
-142.537
-143.517
-144.557
-145.669
-146.873
-148.183
-149.623
-151.207
-152.971
-154.929
-156.783
-158.377
-160.06
-161.83
-163.7
-165.67
-167.751
-169.938
-172.247
-174.669
-177.227
-179.915
-182.767
-185.767
-188.983
-192.353
-196.03
-199.823
-204.113
-208.364
-213.566
-218.23
-224.765
-229.042
-235.41
-37.1533
-2.03761
-41.9789
-32.5471
-47.2622
-48.3862
-55.2401
-59.0396
-63.6548
-67.6064
-71.4625
-75.072
-78.4971
-81.7456
-84.8287
-87.7615
-90.5504
-93.2089
-95.7412
-98.1585
-100.465
-102.67
-104.776
-106.792
-108.72
-110.567
-112.336
-114.031
-115.657
-117.217
-118.714
-120.152
-121.533
-122.86
-124.135
-125.363
-126.544
-127.681
-128.778
-129.835
-130.857
-131.845
-132.802
-133.733
-134.639
-135.525
-136.395
-137.254
-138.107
-138.961
-139.823
-140.699
-141.6
-142.535
-143.515
-144.555
-145.667
-146.871
-148.18
-149.62
-151.204
-152.968
-154.925
-156.778
-158.372
-160.053
-161.822
-163.691
-165.659
-167.737
-169.922
-172.226
-174.645
-177.198
-179.879
-182.723
-185.711
-188.913
-192.263
-195.91
-199.665
-203.891
-208.063
-213.092
-217.574
-223.552
-227.434
-232.569
-39.391
-2.40051
-42.1187
-32.6039
-47.2936
-48.4021
-55.25
-59.0452
-63.6583
-67.6084
-71.4636
-75.0724
-78.497
-81.7452
-84.828
-87.7606
-90.5493
-93.2076
-95.7398
-98.157
-100.464
-102.668
-104.774
-106.79
-108.718
-110.565
-112.334
-114.03
-115.655
-117.215
-118.712
-120.15
-121.531
-122.858
-124.134
-125.361
-126.542
-127.68
-128.776
-129.834
-130.855
-131.843
-132.801
-133.731
-134.637
-135.523
-136.393
-137.252
-138.106
-138.96
-139.821
-140.697
-141.598
-142.533
-143.513
-144.552
-145.664
-146.868
-148.177
-149.616
-151.199
-152.962
-154.918
-156.77
-158.362
-160.042
-161.808
-163.675
-165.64
-167.714
-169.894
-172.193
-174.605
-177.15
-179.821
-182.652
-185.625
-188.802
-192.124
-195.727
-199.43
-203.56
-207.633
-212.421
-216.693
-222.032
-225.535
-229.625
-42.07
-2.85398
-42.2924
-32.6755
-47.3334
-48.423
-55.2632
-59.0534
-63.6636
-67.6119
-71.4659
-75.0739
-78.4979
-81.7456
-84.8281
-87.7604
-90.5489
-93.207
-95.7391
-98.1561
-100.463
-102.667
-104.773
-106.789
-108.717
-110.564
-112.332
-114.028
-115.654
-117.214
-118.711
-120.148
-121.529
-122.856
-124.132
-125.359
-126.54
-127.678
-128.774
-129.832
-130.853
-131.841
-132.799
-133.729
-134.635
-135.521
-136.391
-137.25
-138.104
-138.957
-139.819
-140.695
-141.595
-142.53
-143.51
-144.549
-145.661
-146.864
-148.172
-149.609
-151.192
-152.952
-154.907
-156.757
-158.346
-160.023
-161.787
-163.649
-165.609
-167.678
-169.851
-172.141
-174.543
-177.075
-179.731
-182.542
-185.491
-188.635
-191.916
-195.453
-199.086
-203.081
-207.025
-211.509
-215.53
-220.199
-223.33
-226.618
-45.2353
-3.41721
-42.5064
-32.7645
-47.3829
-48.4498
-55.2804
-59.0644
-63.6713
-67.6173
-71.4698
-75.0768
-78.5
-81.7472
-84.8292
-87.7611
-90.5494
-93.2072
-95.7391
-98.156
-100.462
-102.667
-104.773
-106.788
-108.716
-110.563
-112.331
-114.027
-115.653
-117.213
-118.71
-120.147
-121.528
-122.855
-124.131
-125.358
-126.539
-127.676
-128.773
-129.83
-130.852
-131.84
-132.797
-133.727
-134.633
-135.519
-136.389
-137.248
-138.102
-138.955
-139.816
-140.692
-141.592
-142.526
-143.506
-144.544
-145.655
-146.857
-148.164
-149.6
-151.181
-152.938
-154.89
-156.736
-158.322
-159.995
-161.753
-163.609
-165.562
-167.622
-169.784
-172.061
-174.448
-176.961
-179.595
-182.377
-185.291
-188.385
-191.609
-195.055
-198.59
-202.409
-206.182
-210.307
-214.032
-218.052
-220.826
-223.549
-48.914
-4.11215
-42.7675
-32.874
-47.4435
-48.4833
-55.3022
-59.0789
-63.6815
-67.6249
-71.4756
-75.0814
-78.5036
-81.7502
-84.8316
-87.7631
-90.551
-93.2086
-95.7402
-98.1569
-100.463
-102.667
-104.773
-106.788
-108.716
-110.563
-112.331
-114.027
-115.653
-117.212
-118.709
-120.147
-121.527
-122.854
-124.13
-125.357
-126.538
-127.676
-128.772
-129.829
-130.851
-131.839
-132.796
-133.726
-134.632
-135.518
-136.388
-137.247
-138.1
-138.953
-139.814
-140.69
-141.589
-142.522
-143.501
-144.539
-145.648
-146.849
-148.153
-149.587
-151.164
-152.918
-154.864
-156.706
-158.286
-159.952
-161.702
-163.549
-165.491
-167.537
-169.684
-171.941
-174.306
-176.791
-179.393
-182.133
-184.997
-188.02
-191.163
-194.487
-197.889
-201.488
-205.042
-208.772
-212.158
-215.59
-218.036
-220.384
-53.101
-4.96279
-43.0827
-33.0069
-47.5163
-48.5245
-55.329
-59.0973
-63.6949
-67.6352
-71.4837
-75.088
-78.5091
-81.7549
-84.8357
-87.7667
-90.5541
-93.2113
-95.7426
-98.1591
-100.465
-102.669
-104.775
-106.79
-108.717
-110.564
-112.332
-114.028
-115.653
-117.213
-118.71
-120.147
-121.528
-122.855
-124.13
-125.357
-126.538
-127.676
-128.772
-129.829
-130.851
-131.838
-132.796
-133.726
-134.631
-135.517
-136.387
-137.245
-138.098
-138.951
-139.811
-140.686
-141.585
-142.517
-143.495
-144.531
-145.638
-146.836
-148.138
-149.568
-151.14
-152.887
-154.826
-156.659
-158.231
-159.887
-161.626
-163.458
-165.384
-167.41
-169.534
-171.764
-174.096
-176.542
-179.097
-181.776
-184.569
-187.497
-190.528
-193.694
-196.92
-200.257
-203.539
-206.86
-209.881
-212.804
-214.966
-217.054
-57.7393
-5.99334
-43.4591
-33.1663
-47.6022
-48.5743
-55.3612
-59.1202
-63.7115
-67.6484
-71.4943
-75.0969
-78.5168
-81.7616
-84.8416
-87.772
-90.559
-93.2158
-95.7467
-98.1628
-100.468
-102.672
-104.778
-106.792
-108.72
-110.566
-112.335
-114.03
-115.655
-117.215
-118.711
-120.149
-121.529
-122.856
-124.131
-125.358
-126.539
-127.677
-128.773
-129.83
-130.851
-131.839
-132.796
-133.726
-134.632
-135.517
-136.386
-137.244
-138.097
-138.949
-139.808
-140.683
-141.58
-142.511
-143.486
-144.52
-145.625
-146.819
-148.116
-149.539
-151.105
-152.842
-154.77
-156.591
-158.15
-159.79
-161.512
-163.324
-165.226
-167.223
-169.314
-171.503
-173.79
-176.178
-178.667
-181.263
-183.958
-186.758
-189.64
-192.609
-195.61
-198.65
-201.617
-204.53
-207.18
-209.671
-211.592
-213.47
-62.6983
-7.22416
-43.9034
-33.3548
-47.7015
-48.6335
-55.3991
-59.1478
-63.7319
-67.6649
-71.5078
-75.1085
-78.5269
-81.7706
-84.8497
-87.7795
-90.5659
-93.2222
-95.7527
-98.1685
-100.474
-102.677
-104.782
-106.797
-108.724
-110.57
-112.338
-114.034
-115.659
-117.218
-118.715
-120.152
-121.532
-122.859
-124.134
-125.361
-126.542
-127.679
-128.775
-129.832
-130.853
-131.841
-132.798
-133.728
-134.633
-135.518
-136.387
-137.244
-138.096
-138.947
-139.805
-140.678
-141.573
-142.502
-143.475
-144.505
-145.605
-146.793
-148.084
-149.498
-151.052
-152.776
-154.687
-156.488
-158.029
-159.648
-161.344
-163.126
-164.994
-166.95
-168.993
-171.126
-173.346
-175.656
-178.053
-180.536
-183.097
-185.733
-188.422
-191.153
-193.886
-196.6
-199.223
-201.74
-204.033
-206.151
-207.857
-209.534
-67.7517
-8.66589
-44.4203
-33.5744
-47.8134
-48.7024
-55.4425
-59.1807
-63.7561
-67.685
-71.5244
-75.123
-78.5397
-81.7822
-84.8604
-87.7893
-90.5751
-93.2308
-95.7609
-98.1762
-100.481
-102.684
-104.789
-106.803
-108.73
-110.576
-112.344
-114.039
-115.664
-117.224
-118.72
-120.157
-121.537
-122.864
-124.139
-125.366
-126.546
-127.683
-128.779
-129.836
-130.857
-131.845
-132.801
-133.73
-134.635
-135.52
-136.388
-137.244
-138.095
-138.945
-139.801
-140.672
-141.564
-142.49
-143.458
-144.482
-145.576
-146.756
-148.036
-149.437
-150.975
-152.677
-154.563
-156.337
-157.85
-159.437
-161.097
-162.836
-164.654
-166.552
-168.528
-170.581
-172.711
-174.914
-177.185
-179.519
-181.907
-184.337
-186.789
-189.244
-191.67
-194.039
-196.305
-198.446
-200.398
-202.186
-203.681
-205.145
-72.5654
-10.3114
-45.0098
-33.8256
-47.9358
-48.7812
-55.4907
-59.2187
-63.7841
-67.7089
-71.5444
-75.1407
-78.5556
-81.7967
-84.8738
-87.8018
-90.5869
-93.242
-95.7715
-98.1864
-100.491
-102.693
-104.798
-106.812
-108.739
-110.585
-112.352
-114.047
-115.672
-117.231
-118.727
-120.164
-121.544
-122.87
-124.145
-125.372
-126.553
-127.689
-128.785
-129.842
-130.863
-131.85
-132.806
-133.735
-134.639
-135.523
-136.39
-137.245
-138.094
-138.942
-139.795
-140.662
-141.551
-142.471
-143.433
-144.449
-145.533
-146.7
-147.964
-149.345
-150.859
-152.531
-154.38
-156.112
-157.586
-159.127
-160.734
-162.413
-164.161
-165.977
-167.86
-169.806
-171.812
-173.872
-175.978
-178.123
-180.293
-182.475
-184.649
-186.794
-188.886
-190.9
-192.808
-194.59
-196.217
-197.699
-198.973
-200.203
-76.7045
-12.1252
-45.6625
-34.1067
-48.0646
-48.869
-55.5424
-59.2618
-63.8157
-67.7366
-71.5678
-75.1617
-78.5746
-81.8143
-84.8901
-87.8172
-90.6014
-93.2558
-95.7847
-98.1992
-100.503
-102.705
-104.81
-106.823
-108.75
-110.595
-112.363
-114.057
-115.682
-117.241
-118.737
-120.173
-121.553
-122.879
-124.154
-125.381
-126.561
-127.698
-128.793
-129.85
-130.87
-131.857
-132.812
-133.74
-134.644
-135.526
-136.392
-137.245
-138.091
-138.936
-139.786
-140.648
-141.53
-142.442
-143.394
-144.399
-145.468
-146.616
-147.857
-149.209
-150.688
-152.314
-154.109
-155.782
-157.198
-158.674
-160.208
-161.801
-163.452
-165.158
-166.914
-168.717
-170.56
-172.435
-174.333
-176.244
-178.153
-180.047
-181.908
-183.719
-185.462
-187.117
-188.669
-190.106
-191.415
-192.604
-193.644
-194.624
-79.6736
-14.0318
-46.3526
-34.4125
-48.1929
-48.9644
-55.5955
-59.3094
-63.8501
-67.7678
-71.5943
-75.186
-78.5967
-81.8349
-84.9094
-87.8355
-90.6188
-93.2725
-95.8007
-98.2146
-100.518
-102.72
-104.824
-106.837
-108.763
-110.608
-112.375
-114.069
-115.694
-117.252
-118.748
-120.185
-121.564
-122.89
-124.165
-125.391
-126.571
-127.708
-128.803
-129.859
-130.879
-131.865
-132.82
-133.747
-134.649
-135.53
-136.393
-137.244
-138.086
-138.926
-139.77
-140.624
-141.497
-142.398
-143.336
-144.322
-145.369
-146.49
-147.697
-149.007
-150.434
-151.996
-153.711
-155.299
-156.635
-158.021
-159.452
-160.929
-162.449
-164.007
-165.597
-167.214
-168.85
-170.496
-172.141
-173.775
-175.385
-176.958
-178.482
-179.943
-181.33
-182.637
-183.849
-184.958
-185.964
-186.866
-187.657
-188.378
-81.0105
-15.9037
-47.0283
-34.7336
-48.3101
-49.0647
-55.6468
-59.3602
-63.8863
-67.802
-71.6236
-75.2131
-78.6217
-81.8583
-84.9315
-87.8565
-90.6389
-93.2917
-95.8193
-98.2325
-100.535
-102.737
-104.84
-106.853
-108.779
-110.623
-112.39
-114.084
-115.708
-117.267
-118.762
-120.198
-121.578
-122.903
-124.178
-125.404
-126.584
-127.72
-128.815
-129.87
-130.89
-131.875
-132.829
-133.754
-134.655
-135.533
-136.393
-137.239
-138.076
-138.909
-139.744
-140.587
-141.447
-142.33
-143.247
-144.207
-145.222
-146.302
-147.461
-148.71
-150.063
-151.533
-153.136
-154.605
-155.831
-157.093
-158.385
-159.708
-161.056
-162.423
-163.803
-165.189
-166.572
-167.944
-169.296
-170.618
-171.9
-173.137
-174.316
-175.428
-176.464
-177.421
-178.297
-179.085
-179.784
-180.391
-180.907
-181.355
-80.4403
-17.554
-47.6038
-35.0542
-48.4019
-49.1659
-55.692
-59.4124
-63.9224
-67.8379
-71.6545
-75.2423
-78.6487
-81.8838
-84.9557
-87.8796
-90.6611
-93.3131
-95.8399
-98.2525
-100.555
-102.755
-104.858
-106.871
-108.796
-110.64
-112.407
-114.101
-115.724
-117.282
-118.778
-120.214
-121.593
-122.918
-124.193
-125.418
-126.598
-127.734
-128.828
-129.883
-130.901
-131.885
-132.838
-133.761
-134.659
-135.533
-136.388
-137.228
-138.057
-138.88
-139.702
-140.53
-141.369
-142.228
-143.114
-144.037
-145.004
-146.028
-147.116
-148.279
-149.528
-150.87
-152.319
-153.627
-154.705
-155.803
-156.916
-158.04
-159.17
-160.301
-161.425
-162.536
-163.626
-164.689
-165.72
-166.707
-167.643
-168.522
-169.344
-170.103
-170.793
-171.408
-171.947
-172.408
-172.793
-173.102
-173.342
-173.52
-78.0461
-18.7495
-47.9759
-35.3477
-48.4549
-49.2613
-55.7269
-59.4627
-63.9562
-67.8734
-71.6854
-75.2719
-78.6764
-81.9102
-84.9808
-87.9037
-90.6842
-93.3354
-95.8615
-98.2734
-100.575
-102.775
-104.878
-106.89
-108.815
-110.659
-112.425
-114.118
-115.741
-117.299
-118.794
-120.23
-121.609
-122.934
-124.208
-125.433
-126.613
-127.748
-128.841
-129.896
-130.913
-131.895
-132.845
-133.766
-134.659
-135.528
-136.377
-137.208
-138.025
-138.834
-139.638
-140.442
-141.253
-142.076
-142.919
-143.788
-144.69
-145.633
-146.623
-147.668
-148.774
-149.944
-151.186
-152.282
-153.171
-154.062
-154.949
-155.83
-156.699
-157.55
-158.378
-159.179
-159.946
-160.67
-161.35
-161.985
-162.569
-163.097
-163.566
-163.972
-164.314
-164.592
-164.805
-164.955
-165.045
-165.079
-165.065
-165.002
-74.2844
-19.3102
-48.1091
-35.5675
-48.4749
-49.3381
-55.7513
-59.5057
-63.9853
-67.9053
-71.7134
-75.2992
-78.7021
-81.9349
-85.0045
-87.9265
-90.7062
-93.3567
-95.882
-98.2934
-100.594
-102.794
-104.896
-106.908
-108.832
-110.676
-112.442
-114.135
-115.758
-117.315
-118.81
-120.245
-121.624
-122.949
-124.223
-125.448
-126.626
-127.761
-128.854
-129.907
-130.922
-131.902
-132.849
-133.765
-134.653
-135.515
-136.354
-137.173
-137.974
-138.762
-139.541
-140.313
-141.084
-141.858
-142.64
-143.434
-144.246
-145.08
-145.939
-146.825
-147.742
-148.688
-149.664
-150.497
-151.152
-151.792
-152.412
-153.008
-153.577
-154.114
-154.613
-155.073
-155.495
-155.873
-156.206
-156.489
-156.722
-156.903
-157.03
-157.103
-157.124
-157.094
-157.015
-156.892
-156.729
-156.531
-156.303
-156.04
-70.3911
-19.2938
-48.1199
-35.6454
-48.4963
-49.3729
-55.7694
-59.5312
-64.0052
-67.9265
-71.7328
-75.3181
-78.7201
-81.9523
-85.0211
-87.9427
-90.7217
-93.3718
-95.8966
-98.3077
-100.608
-102.808
-104.909
-106.921
-108.845
-110.688
-112.454
-114.147
-115.769
-117.327
-118.821
-120.257
-121.635
-122.96
-124.233
-125.457
-126.636
-127.769
-128.861
-129.912
-130.926
-131.903
-132.847
-133.758
-134.639
-135.492
-136.319
-137.123
-137.906
-138.669
-139.417
-140.151
-140.874
-141.589
-142.299
-143.007
-143.713
-144.42
-145.128
-145.837
-146.544
-147.244
-147.936
-148.494
-148.911
-149.3
-149.656
-149.976
-150.259
-150.501
-150.704
-150.867
-150.988
-151.067
-151.101
-151.091
-151.037
-150.938
-150.795
-150.611
-150.387
-150.127
-149.834
-149.513
-149.167
-148.801
-148.419
-148.014
-67.8791
-19.1398
-48.0529
-35.6407
-48.499
-49.3775
-55.7747
-59.5391
-64.0127
-67.9349
-71.7408
-75.3263
-78.7279
-81.9601
-85.0286
-87.9501
-90.7287
-93.3789
-95.9033
-98.3145
-100.615
-102.814
-104.915
-106.927
-108.851
-110.694
-112.459
-114.152
-115.775
-117.332
-118.827
-120.262
-121.64
-122.964
-124.237
-125.462
-126.639
-127.772
-128.863
-129.913
-130.924
-131.899
-132.838
-133.744
-134.619
-135.463
-136.278
-137.066
-137.828
-138.567
-139.282
-139.976
-140.651
-141.306
-141.943
-142.562
-143.162
-143.743
-144.303
-144.838
-145.343
-145.812
-146.24
-146.547
-146.753
-146.92
-147.047
-147.132
-147.173
-147.174
-147.134
-147.055
-146.935
-146.777
-146.58
-146.346
-146.075
-145.768
-145.429
-145.059
-144.662
-144.24
-143.798
-143.34
-142.869
-142.387
-141.899
-141.398
-67.9807
-19.0846
-48.0266
-35.6043
-48.4841
-49.3629
-55.768
-59.5326
-64.0087
-67.9316
-71.7382
-75.3242
-78.7261
-81.9587
-85.0272
-87.9491
-90.7277
-93.3781
-95.9024
-98.3139
-100.614
-102.814
-104.915
-106.926
-108.85
-110.694
-112.459
-114.152
-115.774
-117.332
-118.826
-120.261
-121.639
-122.964
-124.237
-125.46
-126.637
-127.77
-128.859
-129.908
-130.917
-131.889
-132.825
-133.725
-134.593
-135.427
-136.23
-137.002
-137.745
-138.457
-139.141
-139.795
-140.419
-141.014
-141.578
-142.109
-142.605
-143.064
-143.48
-143.848
-144.164
-144.417
-144.603
-144.687
-144.705
-144.68
-144.611
-144.497
-144.338
-144.138
-143.899
-143.624
-143.313
-142.968
-142.592
-142.185
-141.751
-141.291
-140.807
-140.303
-139.781
-139.245
-138.698
-138.144
-137.584
-137.023
-136.463
-135.896
-70.6397
-19.1179
-48.0376
-35.5326
-48.4527
-49.328
-55.7492
-59.5114
-63.9931
-67.9162
-71.7248
-75.3118
-78.7145
-81.948
-85.0169
-87.9396
-90.7184
-93.3695
-95.8939
-98.3059
-100.606
-102.806
-104.907
-106.919
-108.843
-110.687
-112.452
-114.145
-115.768
-117.326
-118.82
-120.255
-121.633
-122.957
-124.23
-125.454
-126.63
-127.762
-128.851
-129.898
-130.905
-131.874
-132.806
-133.702
-134.562
-135.387
-136.178
-136.935
-137.658
-138.345
-138.997
-139.612
-140.189
-140.726
-141.22
-141.667
-142.065
-142.408
-142.69
-142.907
-143.049
-143.109
-143.081
-142.97
-142.829
-142.641
-142.409
-142.132
-141.812
-141.45
-141.051
-140.62
-140.158
-139.669
-139.154
-138.617
-138.06
-137.486
-136.897
-136.295
-135.685
-135.068
-134.447
-133.826
-133.207
-132.592
-131.982
-131.374
-74.5738
-18.9939
-47.966
-35.3741
-48.4043
-49.2616
-55.7177
-59.4723
-63.9651
-67.8879
-71.7001
-75.2886
-78.6928
-81.9277
-84.9976
-87.9214
-90.7008
-93.3528
-95.8777
-98.2905
-100.591
-102.792
-104.893
-106.906
-108.83
-110.674
-112.439
-114.133
-115.756
-117.313
-118.808
-120.243
-121.621
-122.946
-124.218
-125.442
-126.618
-127.749
-128.837
-129.883
-130.888
-131.855
-132.783
-133.674
-134.528
-135.344
-136.124
-136.867
-137.571
-138.235
-138.857
-139.436
-139.968
-140.451
-140.88
-141.251
-141.558
-141.796
-141.959
-142.039
-142.029
-141.92
-141.707
-141.432
-141.156
-140.834
-140.469
-140.061
-139.612
-139.125
-138.603
-138.05
-137.471
-136.87
-136.25
-135.615
-134.967
-134.308
-133.642
-132.971
-132.297
-131.624
-130.953
-130.286
-129.626
-128.975
-128.334
-127.698
-78.3258
-18.316
-47.7511
-35.0902
-48.3519
-49.1585
-55.6787
-59.4172
-63.9281
-67.8497
-71.6672
-75.2575
-78.6638
-81.9006
-84.9717
-87.897
-90.6773
-93.3305
-95.8559
-98.2698
-100.57
-102.772
-104.874
-106.887
-108.811
-110.656
-112.422
-114.116
-115.739
-117.297
-118.791
-120.227
-121.605
-122.93
-124.202
-125.426
-126.602
-127.732
-128.82
-129.864
-130.869
-131.833
-132.759
-133.645
-134.494
-135.303
-136.074
-136.804
-137.493
-138.138
-138.737
-139.286
-139.782
-140.221
-140.598
-140.907
-141.142
-141.298
-141.366
-141.34
-141.212
-140.973
-140.62
-140.221
-139.846
-139.425
-138.963