/*--------------------------------*- C++ -*----------------------------------*\
| =========                 |                                                 |
| \\      /  F ield         | OpenFOAM: The Open Source CFD Toolbox           |
|  \\    /   O peration     | Version:  2306                                  |
|   \\  /    A nd           | Website:  www.openfoam.com                      |
|    \\/     M anipulation  |                                                 |
\*---------------------------------------------------------------------------*/
FoamFile
{
    version     2.0;
    format      ascii;
    arch        "LSB;label=32;scalar=64";
    class       surfaceScalarField;
    location    "1700";
    object      phi;
}
// * * * * * * * * * * * * * * * * * * * * * * * * * * * * * * * * * * * * * //

dimensions      [0 3 -1 0 0 0 0];

oriented        oriented;

internalField   nonuniform List<scalar> 
40747
(
8.93777e-06
5.94272e-06
3.06205e-06
5.87573e-06
1.082e-05
1.31241e-05
3.89088e-06
9.99117e-06
1.31015e-05
2.17993e-05
3.54505e-06
1.34474e-05
1.58685e-05
3.22746e-05
2.45613e-06
1.69574e-05
1.92264e-05
4.49172e-05
6.99308e-07
2.09832e-05
2.33043e-05
6.01656e-05
-1.77106e-06
2.57747e-05
2.8261e-05
7.85429e-05
-5.06057e-06
3.15505e-05
3.42922e-05
0.00010067
-9.31886e-06
3.85505e-05
4.16398e-05
0.000127283
-1.47369e-05
4.70579e-05
5.06043e-05
0.000159246
-2.15492e-05
5.74166e-05
6.15604e-05
0.000197568
-3.00371e-05
7.00483e-05
7.49776e-05
0.000243423
-4.05335e-05
8.5474e-05
9.14472e-05
0.000298149
-5.34262e-05
0.00010434
0.000111719
0.00036326
-6.91593e-05
0.000127452
0.000136747
0.000440429
-8.82305e-05
0.000155819
0.000167759
0.00053145
-0.000111182
0.00019071
0.000206334
0.00063817
-0.00013858
0.000233732
0.000254528
0.000762351
-0.000170979
0.000286927
0.000315021
0.000905466
-0.000208861
0.000352903
0.000391334
0.00106835
-0.000252543
0.000435016
0.000488101
0.0012507
-0.000302037
0.000537595
0.000611442
0.00145033
-0.000356848
0.000666253
0.00076944
0.00166206
-0.0004157
0.000828292
0.00097276
0.00187625
-0.000476156
0.00103322
0.00123541
0.00207672
-0.000534131
0.00129339
0.00157568
0.00223807
-0.000583244
0.00162479
0.00201716
0.00232224
-0.000613937
0.00204786
0.00258988
0.0022744
-0.000612106
0.00258805
0.00333113
0.00201844
-0.000556411
0.00327544
0.00428331
0.00145525
-0.000414302
0.00414121
0.00430261
0.00071715
-0.000217498
0.00410581
0.0044201
-0.00013844
2.29482e-05
0.00417966
0.00441296
-0.000986893
0.00026127
0.00417465
0.00428456
-0.00170694
0.000453861
0.00409197
0.00412981
-0.00222948
0.000586862
0.00399681
0.00323358
-0.00246219
0.00063966
0.00318079
0.00253088
-0.00249666
0.000641462
0.00252908
0.00198389
-0.0024038
0.000611726
0.00201362
0.00155917
-0.00223533
0.00056359
0.00160731
0.00122955
-0.00202767
0.000506135
0.00128701
0.000973454
-0.00180551
0.000445565
0.00103403
0.000773998
-0.00158488
0.000385961
0.000833602
0.000618129
-0.00137559
0.00032985
0.00067424
0.000495819
-0.00118308
0.00027864
0.000547029
0.000399399
-0.00100986
0.000232962
0.000445077
0.000323019
-0.000856519
0.000192931
0.00036305
0.000262213
-0.000722452
0.000158333
0.000296811
0.000213572
-0.00060636
0.000128767
0.000243138
0.00017448
-0.000506594
0.000103736
0.00019951
0.000142925
-0.000421376
8.27141e-05
0.000163948
0.000117353
-0.000348937
6.51808e-05
0.000134886
9.65535e-05
-0.000287604
5.06494e-05
0.000111085
7.95811e-05
-0.00023584
3.86775e-05
9.15531e-05
6.56918e-05
-0.000192266
2.88721e-05
7.54972e-05
5.42971e-05
-0.000155666
2.08909e-05
6.22783e-05
4.49284e-05
-0.000124977
1.44397e-05
5.13796e-05
3.7211e-05
-9.92822e-05
9.26932e-06
4.23814e-05
3.08437e-05
-7.77951e-05
5.1717e-06
3.49413e-05
2.55829e-05
-5.98442e-05
1.97691e-06
2.87777e-05
2.12313e-05
-4.486e-05
-4.48126e-07
2.36564e-05
1.76282e-05
-3.23607e-05
-2.19631e-06
1.93764e-05
1.46423e-05
-2.19401e-05
-3.30384e-06
1.57499e-05
1.21662e-05
-1.32565e-05
-3.6889e-06
1.25513e-05
1.01116e-05
-6.02331e-06
-2.9182e-06
9.34085e-06
8.40576e-06
5.48757e-06
2.59529e-06
3.28044e-06
2.01166e-06
5.83635e-07
1.82269e-06
1.88976e-07
1.70396e-06
1.18736e-07
1.61959e-06
8.43768e-08
1.55385e-06
6.57408e-08
1.50131e-06
5.25501e-08
1.4573e-06
4.40118e-08
1.42005e-06
3.72496e-08
1.38785e-06
3.22045e-08
1.35972e-06
2.81284e-08
1.3349e-06
2.48283e-08
1.31285e-06
2.20435e-08
1.29311e-06
1.97358e-08
1.27536e-06
1.77506e-08
1.25933e-06
1.60249e-08
1.24477e-06
1.45618e-08
1.2315e-06
1.32641e-08
1.21938e-06
1.21135e-08
1.20826e-06
1.11098e-08
1.19803e-06
1.02195e-08
1.1886e-06
9.42042e-09
1.17989e-06
8.70263e-09
1.17182e-06
8.05828e-09
1.16433e-06
7.48133e-09
1.15736e-06
6.95529e-09
1.15087e-06
6.47769e-09
1.14481e-06
6.04507e-09
1.13916e-06
5.6476e-09
1.13386e-06
5.2849e-09
1.12889e-06
4.95334e-09
1.12423e-06
4.64805e-09
1.11986e-06
4.36674e-09
1.11574e-06
4.10639e-09
1.11187e-06
3.8657e-09
1.10821e-06
3.64352e-09
1.10477e-06
3.4362e-09
1.10152e-06
3.24243e-09
1.09846e-06
3.06095e-09
1.09556e-06
2.89044e-09
1.09283e-06
2.72908e-09
1.09026e-06
2.5754e-09
1.08783e-06
2.42775e-09
1.08555e-06
2.28487e-09
1.08341e-06
2.14464e-09
1.08141e-06
2.00635e-09
1.07955e-06
1.86662e-09
1.07784e-06
1.72572e-09
1.07627e-06
1.57978e-09
1.07486e-06
1.42803e-09
1.07361e-06
1.26687e-09
1.07254e-06
1.09559e-09
1.07166e-06
9.10667e-10
1.07099e-06
7.10449e-10
1.07055e-06
4.91604e-10
1.07036e-06
2.50948e-10
1.07046e-06
-8.67241e-12
1.07088e-06
-3.10643e-10
1.07165e-06
-6.35491e-10
1.07282e-06
-1.01575e-09
1.07446e-06
-1.43408e-09
1.0766e-06
-1.94384e-09
1.07939e-06
-2.52019e-09
1.08166e-06
-1.95942e-09
1.0842e-06
-2.08499e-09
1.08699e-06
-2.34825e-09
1.0901e-06
-2.57174e-09
1.09352e-06
-2.85322e-09
1.09729e-06
-3.11507e-09
1.10139e-06
-3.43878e-09
1.10588e-06
-3.76647e-09
1.11074e-06
-4.19431e-09
1.11605e-06
-4.61503e-09
1.12181e-06
-5.13367e-09
1.12812e-06
-5.65282e-09
1.13502e-06
-6.21483e-09
1.14262e-06
-6.85519e-09
1.15101e-06
-7.53075e-09
1.16033e-06
-8.41976e-09
1.17077e-06
-9.49291e-09
1.18257e-06
-1.09508e-08
1.19657e-06
-1.33418e-08
1.21253e-06
-1.56824e-08
1.23514e-06
-2.29803e-08
1.26152e-06
-2.72932e-08
1.31558e-06
-5.75243e-08
1.33865e-06
-2.72588e-08
-1.05959e-06
2.39878e-06
8.4728e-06
4.79881e-06
7.35685e-06
1.6996e-06
6.76859e-06
7.77251e-07
6.36762e-06
5.19721e-07
6.07943e-06
3.72584e-07
5.84964e-06
2.95536e-07
5.6652e-06
2.37008e-07
5.50917e-06
2.00048e-07
5.37655e-06
1.69882e-07
5.26128e-06
1.47472e-07
5.16025e-06
1.29172e-07
5.07075e-06
1.14325e-07
4.99107e-06
1.01721e-07
4.91954e-06
9.12584e-08
4.85507e-06
8.22144e-08
4.79675e-06
7.43421e-08
4.74366e-06
6.76427e-08
4.69521e-06
6.16955e-08
4.6509e-06
5.64038e-08
4.61021e-06
5.1786e-08
4.57273e-06
4.76786e-08
4.53814e-06
4.39894e-08
4.50615e-06
4.0669e-08
4.4765e-06
3.76856e-08
4.44894e-06
3.5011e-08
4.4233e-06
3.25694e-08
4.3994e-06
3.0351e-08
4.37708e-06
2.83388e-08
4.35621e-06
2.64894e-08
4.33667e-06
2.47992e-08
4.31834e-06
2.32541e-08
4.30114e-06
2.18291e-08
4.28496e-06
2.05161e-08
4.26975e-06
1.9299e-08
4.25542e-06
1.81739e-08
4.24191e-06
1.71339e-08
4.22917e-06
1.61635e-08
4.21714e-06
1.52556e-08
4.20579e-06
1.44052e-08
4.19507e-06
1.36058e-08
4.18494e-06
1.28495e-08
4.17539e-06
1.21293e-08
4.16638e-06
1.14376e-08
4.15791e-06
1.07689e-08
4.14995e-06
1.01132e-08
4.14251e-06
9.46764e-09
4.13558e-06
8.81644e-09
4.12917e-06
8.16124e-09
4.12329e-06
7.48393e-09
4.11798e-06
6.78106e-09
4.11326e-06
6.03582e-09
4.10916e-06
5.24463e-09
4.10575e-06
4.39233e-09
4.10309e-06
3.46606e-09
4.10123e-06
2.46176e-09
4.10029e-06
1.34655e-09
4.10033e-06
1.58199e-10
4.10149e-06
-1.23269e-09
4.1039e-06
-2.72013e-09
4.10769e-06
-4.45777e-09
4.11306e-06
-6.36438e-09
4.12022e-06
-8.65919e-09
4.12956e-06
-1.1271e-08
4.1372e-06
-8.92905e-09
4.14566e-06
-9.62356e-09
4.15505e-06
-1.08034e-08
4.16546e-06
-1.18753e-08
4.17696e-06
-1.31921e-08
4.18952e-06
-1.43621e-08
4.20326e-06
-1.58603e-08
4.21818e-06
-1.72665e-08
4.23438e-06
-1.91113e-08
4.25194e-06
-2.08439e-08
4.27102e-06
-2.30081e-08
4.29169e-06
-2.50654e-08
4.3143e-06
-2.75045e-08
4.33876e-06
-2.98983e-08
4.36586e-06
-3.30125e-08
4.39505e-06
-3.59425e-08
4.42848e-06
-4.12116e-08
4.46381e-06
-4.47984e-08
4.50878e-06
-5.72237e-08
4.55268e-06
-5.92223e-08
4.62539e-06
-9.65576e-08
4.68642e-06
-9.00856e-08
4.85012e-06
-2.27779e-07
4.92072e-06
-1.05687e-07
-1.97067e-06
5.83522e-06
1.35439e-05
4.70228e-06
1.29228e-05
2.32073e-06
1.22541e-05
1.44592e-06
1.16996e-05
1.07422e-06
1.12814e-05
7.90835e-07
1.0937e-05
6.39938e-07
1.06572e-05
5.16858e-07
1.04175e-05
4.39754e-07
1.02122e-05
3.75154e-07
1.00325e-05
3.27144e-07
9.87415e-06
2.87563e-07
9.73314e-06
2.55337e-07
9.60702e-06
2.27836e-07
9.49335e-06
2.04927e-07
9.39051e-06
1.8505e-07
9.29715e-06
1.67692e-07
9.2119e-06
1.52878e-07
9.13389e-06
1.39694e-07
9.06235e-06
1.27928e-07
8.99647e-06
1.17639e-07
8.93567e-06
1.08467e-07
8.87942e-06
1.00212e-07
8.8273e-06
9.27667e-08
8.77889e-06
8.60647e-08
8.73383e-06
8.00466e-08
8.69183e-06
7.45434e-08
8.65262e-06
6.95357e-08
8.61594e-06
6.49861e-08
8.5816e-06
6.07993e-08
8.54941e-06
5.69671e-08
8.51917e-06
5.34595e-08
8.49076e-06
5.02203e-08
8.46401e-06
4.72324e-08
8.43883e-06
4.44591e-08
8.41509e-06
4.18926e-08
8.39269e-06
3.95173e-08
8.37154e-06
3.72989e-08
8.35156e-06
3.52211e-08
8.33268e-06
3.32733e-08
8.31484e-06
3.14402e-08
8.29798e-06
2.97047e-08
8.28206e-06
2.80507e-08
8.26704e-06
2.64613e-08
8.2529e-06
2.49238e-08
8.23961e-06
2.34156e-08
8.22716e-06
2.19299e-08
8.21557e-06
2.04311e-08
8.20483e-06
1.89226e-08
8.19499e-06
1.73631e-08
8.18606e-06
1.57445e-08
8.17812e-06
1.40287e-08
8.17121e-06
1.2207e-08
8.16543e-06
1.02442e-08
8.16089e-06
8.10881e-09
8.15768e-06
5.789e-09
8.15597e-06
3.21259e-09
8.1559e-06
4.49204e-10
8.15766e-06
-2.75185e-09
8.16149e-06
-6.21454e-09
8.16761e-06
-1.02234e-08
8.17632e-06
-1.46259e-08
8.18797e-06
-1.9862e-08
8.20309e-06
-2.57998e-08
8.21539e-06
-2.05718e-08
8.2292e-06
-2.25323e-08
8.24451e-06
-2.52113e-08
8.26147e-06
-2.77679e-08
8.28017e-06
-3.07679e-08
8.30061e-06
-3.35473e-08
8.32291e-06
-3.69129e-08
8.34712e-06
-4.01423e-08
8.37336e-06
-4.41454e-08
8.40171e-06
-4.79579e-08
8.43246e-06
-5.26397e-08
8.46562e-06
-5.70547e-08
8.50187e-06
-6.25248e-08
8.54084e-06
-6.75458e-08
8.58414e-06
-7.48082e-08
8.63026e-06
-8.05431e-08
8.68361e-06
-9.29937e-08
8.73846e-06
-9.83317e-08
8.81031e-06
-1.28127e-07
8.87517e-06
-1.23821e-07
8.99036e-06
-2.12632e-07
9.07226e-06
-1.73652e-07
9.30248e-06
-4.64201e-07
9.50029e-06
-3.10928e-07
-2.63416e-06
1.01685e-05
1.82362e-05
3.42356e-06
1.82174e-05
2.33953e-06
1.76682e-05
1.99509e-06
1.70538e-05
1.6887e-06
1.65529e-05
1.29169e-06
1.6123e-05
1.06992e-06
1.57681e-05
8.71773e-07
1.54605e-05
7.47282e-07
1.51956e-05
6.40074e-07
1.49627e-05
5.60091e-07
1.47567e-05
4.93549e-07
1.45729e-05
4.39165e-07
1.44081e-05
3.92559e-07
1.42594e-05
3.53618e-07
1.41247e-05
3.19752e-07
1.40023e-05
2.90107e-07
1.38904e-05
2.64758e-07
1.37879e-05
2.42166e-07
1.36939e-05
2.21972e-07
1.36072e-05
2.04284e-07
1.35272e-05
1.88501e-07
1.34531e-05
1.7428e-07
1.33844e-05
1.6144e-07
1.33205e-05
1.49868e-07
1.32611e-05
1.39469e-07
1.32057e-05
1.29952e-07
1.31539e-05
1.21284e-07
1.31054e-05
1.13403e-07
1.30601e-05
1.06145e-07
1.30175e-05
9.94966e-08
1.29775e-05
9.34073e-08
1.29399e-05
8.77804e-08
1.29046e-05
8.25869e-08
1.28712e-05
7.77634e-08
1.28398e-05
7.32967e-08
1.28101e-05
6.91599e-08
1.27821e-05
6.52948e-08
1.27557e-05
6.16725e-08
1.27306e-05
5.8275e-08
1.2707e-05
5.5076e-08
1.26847e-05
5.20459e-08
1.26636e-05
4.91569e-08
1.26436e-05
4.63795e-08
1.26249e-05
4.3692e-08
1.26073e-05
4.10548e-08
1.25907e-05
3.84557e-08
1.25754e-05
3.58337e-08
1.25611e-05
3.3193e-08
1.25481e-05
3.04632e-08
1.25362e-05
2.7629e-08
1.25257e-05
2.46249e-08
1.25165e-05
2.14344e-08
1.25088e-05
1.79967e-08
1.25028e-05
1.42543e-08
1.24985e-05
1.0183e-08
1.24962e-05
5.66166e-09
1.24961e-05
7.83047e-10
1.24984e-05
-4.82539e-09
1.25035e-05
-1.09249e-08
1.25116e-05
-1.7978e-08
1.25232e-05
-2.57167e-08
1.25386e-05
-3.48414e-08
1.25586e-05
-4.51387e-08
1.25747e-05
-3.60836e-08
1.2593e-05
-3.98663e-08
1.26132e-05
-4.45321e-08
1.26356e-05
-4.90781e-08
1.26603e-05
-5.42945e-08
1.26873e-05
-5.92278e-08
1.27167e-05
-6.50311e-08
1.27485e-05
-7.06456e-08
1.27831e-05
-7.74314e-08
1.28202e-05
-8.38856e-08
1.28606e-05
-9.1822e-08
1.29039e-05
-9.9172e-08
1.29512e-05
-1.08616e-07
1.30019e-05
-1.16833e-07
1.30582e-05
-1.29637e-07
1.31177e-05
-1.38495e-07
1.31871e-05
-1.60775e-07
1.32567e-05
-1.6663e-07
1.335e-05
-2.20472e-07
1.3429e-05
-2.02591e-07
1.35759e-05
-3.60405e-07
1.36705e-05
-2.69989e-07
1.39378e-05
-7.37898e-07
1.42137e-05
-5.94622e-07
-3.16305e-06
1.47484e-05
2.32993e-05
1.10752e-06
2.38717e-05
1.76711e-06
2.35493e-05
2.31752e-06
2.29411e-05
2.29692e-06
2.23838e-05
1.84898e-06
2.18744e-05
1.57929e-06
2.14426e-05
1.30363e-06
2.10618e-05
1.12807e-06
2.07305e-05
9.71362e-07
2.04372e-05
8.53358e-07
2.01768e-05
7.54047e-07
1.99435e-05
6.72396e-07
1.9734e-05
6.02062e-07
1.95446e-05
5.43066e-07
1.93727e-05
4.9162e-07
1.92163e-05
4.46476e-07
1.90733e-05
4.07793e-07
1.89421e-05
3.73271e-07
1.88217e-05
3.42371e-07
1.87107e-05
3.15264e-07
1.86081e-05
2.91056e-07
1.85132e-05
2.69226e-07
1.84251e-05
2.495e-07
1.83432e-05
2.31707e-07
1.82669e-05
2.15705e-07
1.81958e-05
2.01055e-07
1.81294e-05
1.87703e-07
1.80672e-05
1.75555e-07
1.80089e-05
1.64366e-07
1.79543e-05
1.54109e-07
1.79029e-05
1.4471e-07
1.78547e-05
1.36022e-07
1.78092e-05
1.28e-07
1.77664e-05
1.20548e-07
1.7726e-05
1.13643e-07
1.76879e-05
1.07246e-07
1.76519e-05
1.01267e-07
1.76179e-05
9.56628e-08
1.75858e-05
9.04043e-08
1.75554e-05
8.54516e-08
1.75267e-05
8.07593e-08
1.74996e-05
7.62846e-08
1.7474e-05
7.19821e-08
1.74499e-05
6.78184e-08
1.74272e-05
6.37321e-08
1.7406e-05
5.97038e-08
1.73862e-05
5.56414e-08
1.73679e-05
5.15485e-08
1.7351e-05
4.73185e-08
1.73358e-05
4.29264e-08
1.73222e-05
3.82728e-08
1.73104e-05
3.333e-08
1.73004e-05
2.80059e-08
1.72926e-05
2.22084e-08
1.7287e-05
1.58977e-08
1.7284e-05
8.89163e-09
1.72837e-05
1.29967e-09
1.72865e-05
-7.38937e-09
1.72928e-05
-1.6852e-08
1.73031e-05
-2.77891e-08
1.73177e-05
-3.98066e-08
1.73372e-05
-5.38762e-08
1.73624e-05
-6.96648e-08
1.73828e-05
-5.57674e-08
1.74059e-05
-6.19375e-08
1.74315e-05
-6.91297e-08
1.74598e-05
-7.62036e-08
1.7491e-05
-8.42169e-08
1.75251e-05
-9.18721e-08
1.75622e-05
-1.00734e-07
1.76023e-05
-1.09314e-07
1.76458e-05
-1.19567e-07
1.76925e-05
-1.29244e-07
1.77432e-05
-1.41232e-07
1.77974e-05
-1.52102e-07
1.78567e-05
-1.66497e-07
1.79198e-05
-1.78461e-07
1.799e-05
-1.98196e-07
1.80637e-05
-2.10465e-07
1.81497e-05
-2.4512e-07
1.8235e-05
-2.50442e-07
1.83494e-05
-3.33802e-07
1.84449e-05
-2.97895e-07
1.86193e-05
-5.3578e-07
1.87358e-05
-3.88398e-07
1.9027e-05
-1.036e-06
1.93624e-05
-9.38387e-07
-3.63495e-06
1.9841e-05
2.91416e-05
-2.25939e-06
3.03012e-05
6.07513e-07
3.02739e-05
2.34478e-06
2.97434e-05
2.82749e-06
2.91725e-05
2.4199e-06
2.86021e-05
2.14962e-06
2.80988e-05
1.80699e-06
2.76431e-05
1.58379e-06
2.72404e-05
1.37409e-06
2.688e-05
1.21371e-06
2.65576e-05
1.0765e-06
2.62674e-05
9.62622e-07
2.60056e-05
8.63816e-07
2.57682e-05
7.80456e-07
2.55523e-05
7.07486e-07
2.53555e-05
6.43246e-07
2.51753e-05
5.8804e-07
2.50098e-05
5.38683e-07
2.48578e-05
4.94431e-07
2.47175e-05
4.55541e-07
2.45877e-05
4.20773e-07
2.44675e-05
3.89389e-07
2.4356e-05
3.61005e-07
2.42523e-05
3.3538e-07
2.41556e-05
3.12315e-07
2.40655e-05
2.91191e-07
2.39812e-05
2.71926e-07
2.39023e-05
2.54387e-07
2.38284e-05
2.38228e-07
2.37591e-05
2.23407e-07
2.36939e-05
2.0982e-07
2.36327e-05
1.97258e-07
2.3575e-05
1.85654e-07
2.35206e-05
1.74871e-07
2.34694e-05
1.64878e-07
2.3421e-05
1.55615e-07
2.33753e-05
1.46957e-07
2.33321e-05
1.38839e-07
2.32912e-05
1.31221e-07
2.32526e-05
1.24044e-07
2.32161e-05
1.17244e-07
2.31817e-05
1.10758e-07
2.31491e-05
1.04522e-07
2.31185e-05
9.84873e-08
2.30897e-05
9.2565e-08
2.30627e-05
8.67263e-08
2.30375e-05
8.08413e-08
2.30142e-05
7.49112e-08
2.29927e-05
6.87852e-08
2.29733e-05
6.24252e-08
2.29559e-05
5.56908e-08
2.29408e-05
4.85387e-08
2.29281e-05
4.08397e-08
2.2918e-05
3.24563e-08
2.29107e-05
2.33315e-08
2.29066e-05
1.32056e-08
2.2906e-05
2.20381e-09
2.29093e-05
-1.03565e-08
2.29169e-05
-2.40343e-08
2.29294e-05
-3.98234e-08
2.29473e-05
-5.72026e-08
2.29715e-05
-7.74575e-08
2.30027e-05
-1.00072e-07
2.3028e-05
-8.01842e-08
2.30566e-05
-8.93569e-08
2.30883e-05
-9.97001e-08
2.31234e-05
-1.09911e-07
2.3162e-05
-1.21384e-07
2.32041e-05
-1.32397e-07
2.325e-05
-1.45027e-07
2.32996e-05
-1.57217e-07
2.33533e-05
-1.71717e-07
2.34109e-05
-1.85273e-07
2.34732e-05
-2.02202e-07
2.35399e-05
-2.17244e-07
2.36126e-05
-2.37653e-07
2.36898e-05
-2.53991e-07
2.37755e-05
-2.82071e-07
2.38652e-05
-2.98182e-07
2.39695e-05
-3.47555e-07
2.40728e-05
-3.52053e-07
2.42092e-05
-4.69028e-07
2.43259e-05
-4.14378e-07
2.45257e-05
-7.36698e-07
2.46744e-05
-5.39162e-07
2.49849e-05
-1.35407e-06
2.53709e-05
-1.33366e-06
-4.10654e-06
2.58501e-05
3.60785e-05
-6.78741e-06
3.78464e-05
-1.16033e-06
3.81554e-05
2.03574e-06
3.77616e-05
3.2214e-06
3.72282e-05
2.9533e-06
3.6628e-05
2.74977e-06
3.60693e-05
2.36573e-06
3.55445e-05
2.10866e-06
3.50701e-05
1.84846e-06
3.46389e-05
1.64495e-06
3.42487e-05
1.46669e-06
3.38947e-05
1.31665e-06
3.35734e-05
1.18511e-06
3.32806e-05
1.07318e-06
3.30135e-05
9.74643e-07
3.27692e-05
8.87496e-07
3.25449e-05
8.12285e-07
3.23387e-05
7.44863e-07
3.21489e-05
6.84279e-07
3.19735e-05
6.30907e-07
3.18111e-05
5.83113e-07
3.16605e-05
5.39912e-07
3.15207e-05
5.00799e-07
3.13906e-05
4.65445e-07
3.12693e-05
4.3359e-07
3.1156e-05
4.04399e-07
3.10501e-05
3.77756e-07
3.0951e-05
3.53481e-07
3.08581e-05
3.3111e-07
3.07708e-05
3.10578e-07
3.06889e-05
2.91747e-07
3.06117e-05
2.74328e-07
3.05391e-05
2.58233e-07
3.04707e-05
2.43273e-07
3.04061e-05
2.29404e-07
3.03452e-05
2.16541e-07
3.02876e-05
2.04517e-07
3.02332e-05
1.93243e-07
3.01817e-05
1.8266e-07
3.01331e-05
1.72687e-07
3.00871e-05
1.63237e-07
3.00436e-05
1.54225e-07
3.00026e-05
1.45558e-07
2.99639e-05
1.37173e-07
2.99275e-05
1.28946e-07
2.98934e-05
1.20835e-07
2.98617e-05
1.12665e-07
2.98322e-05
1.04433e-07
2.98051e-05
9.59339e-08
2.97805e-05
8.71127e-08
2.97584e-05
7.77802e-08
2.97392e-05
6.78716e-08
2.97229e-05
5.72139e-08
2.97099e-05
4.56116e-08
2.97005e-05
3.29904e-08
2.96949e-05
1.89918e-08
2.96937e-05
3.76062e-09
2.96974e-05
-1.36019e-08
2.97064e-05
-3.25004e-08
2.97214e-05
-5.42821e-08
2.97432e-05
-7.82783e-08
2.97726e-05
-1.06165e-07
2.98106e-05
-1.37195e-07
2.98415e-05
-1.1002e-07
2.98764e-05
-1.22888e-07
2.99151e-05
-1.37111e-07
2.9958e-05
-1.51158e-07
3.00052e-05
-1.66856e-07
3.00566e-05
-1.81956e-07
3.01126e-05
-1.99174e-07
3.01731e-05
-2.15715e-07
3.02385e-05
-2.35354e-07
3.03086e-05
-2.53558e-07
3.03845e-05
-2.76412e-07
3.04654e-05
-2.96391e-07
3.05535e-05
-3.23983e-07
3.06469e-05
-3.45479e-07
3.07504e-05
-3.83388e-07
3.08584e-05
-4.04002e-07
3.09834e-05
-4.70286e-07
3.11078e-05
-4.74616e-07
3.12681e-05
-6.27984e-07
3.14114e-05
-5.57386e-07
3.16364e-05
-9.62902e-07
3.18256e-05
-7.30731e-07
3.21593e-05
-1.6961e-06
3.2586e-05
-1.77066e-06
-4.61465e-06
3.31027e-05
4.44201e-05
-1.26571e-05
4.6848e-05
-3.58819e-06
4.75257e-05
1.35802e-06
4.73105e-05
3.43668e-06
4.68628e-05
3.40105e-06
4.62713e-05
3.34122e-06
4.56838e-05
2.9533e-06
4.51051e-05
2.68733e-06
4.45665e-05
2.38716e-06
4.4066e-05
2.14538e-06
4.36062e-05
1.92653e-06
4.31841e-05
1.73874e-06
4.27976e-05
1.57163e-06
4.24431e-05
1.4277e-06
4.21177e-05
1.29997e-06
4.18189e-05
1.18626e-06
4.15437e-05
1.08752e-06
4.12899e-05
9.98651e-07
4.10556e-05
9.18548e-07
4.08387e-05
8.47739e-07
4.06376e-05
7.84174e-07
4.04508e-05
7.26604e-07
4.02772e-05
6.74404e-07
4.01154e-05
6.27146e-07
3.99645e-05
5.84498e-07
3.98234e-05
5.45385e-07
3.96915e-05
5.09649e-07
3.95678e-05
4.77055e-07
3.94519e-05
4.47003e-07
3.9343e-05
4.19402e-07
3.92406e-05
3.94066e-07
3.91443e-05
3.70622e-07
3.90535e-05
3.48947e-07
3.89679e-05
3.28795e-07
3.88872e-05
3.10104e-07
3.88109e-05
2.9276e-07
3.87389e-05
2.76544e-07
3.86707e-05
2.61337e-07
3.86063e-05
2.47057e-07
3.85454e-05
2.33599e-07
3.84878e-05
2.20845e-07
3.84333e-05
2.0868e-07
3.83819e-05
1.96984e-07
3.83334e-05
1.85668e-07
3.82878e-05
1.74569e-07
3.82451e-05
1.63626e-07
3.82052e-05
1.52615e-07
3.81681e-05
1.4152e-07
3.81341e-05
1.30074e-07
3.81031e-05
1.18199e-07
3.80753e-05
1.05648e-07
3.80509e-05
9.23282e-08
3.80303e-05
7.80146e-08
3.80137e-05
6.24382e-08
3.80014e-05
4.55103e-08
3.79939e-05
2.6745e-08
3.79918e-05
6.31652e-09
3.79956e-05
-1.69456e-08
3.8006e-05
-4.22495e-08
3.80238e-05
-7.13712e-08
3.80498e-05
-1.03455e-07
3.80852e-05
-1.40664e-07
3.81311e-05
-1.81972e-07
3.81683e-05
-1.46064e-07
3.82105e-05
-1.63438e-07
3.82575e-05
-1.82386e-07
3.83093e-05
-2.01083e-07
3.83664e-05
-2.21894e-07
3.84286e-05
-2.41932e-07
3.84963e-05
-2.64681e-07
3.85694e-05
-2.86443e-07
3.86484e-05
-3.12237e-07
3.8733e-05
-3.36013e-07
3.88244e-05
-3.65887e-07
3.89218e-05
-3.91736e-07
3.90277e-05
-4.27802e-07
3.91399e-05
-4.55412e-07
3.92638e-05
-5.0478e-07
3.93933e-05
-5.3087e-07
3.95417e-05
-6.16168e-07
3.96912e-05
-6.21911e-07
3.98779e-05
-8.1322e-07
4.00536e-05
-7.32621e-07
4.03054e-05
-1.21621e-06
4.05418e-05
-9.69786e-07
4.09057e-05
-2.06909e-06
4.13667e-05
-2.24308e-06
-5.1672e-06
4.19288e-05
5.45109e-05
-2.01101e-05
5.76812e-05
-6.75844e-06
5.87642e-05
2.75e-07
5.87576e-05
3.44334e-06
5.84342e-05
3.72442e-06
5.78894e-05
3.88607e-06
5.73058e-05
3.53697e-06
5.66974e-05
3.29572e-06
5.61105e-05
2.97404e-06
5.55503e-05
2.70564e-06
5.50251e-05
2.45176e-06
5.45354e-05
2.22836e-06
5.40816e-05
2.02547e-06
5.36613e-05
1.84795e-06
5.32727e-05
1.68856e-06
5.29136e-05
1.5454e-06
5.2581e-05
1.42002e-06
5.22731e-05
1.30652e-06
5.19878e-05
1.20378e-06
5.1723e-05
1.11252e-06
5.14768e-05
1.03031e-06
5.12477e-05
9.5563e-07
5.10343e-05
8.87781e-07
5.08351e-05
8.26216e-07
5.0649e-05
7.70536e-07
5.04749e-05
7.19404e-07
5.03119e-05
6.7262e-07
5.0159e-05
6.2989e-07
5.00154e-05
5.90462e-07
4.98806e-05
5.54214e-07
4.97536e-05
5.20906e-07
4.96341e-05
4.90064e-07
4.95215e-05
4.61529e-07
4.94152e-05
4.34988e-07
4.93149e-05
4.10358e-07
4.92201e-05
3.87484e-07
4.91305e-05
3.66092e-07
4.90458e-05
3.46026e-07
4.89657e-05
3.27178e-07
4.88899e-05
3.09409e-07
4.88181e-05
2.92565e-07
4.87503e-05
2.765e-07
4.86862e-05
2.61053e-07
4.86258e-05
2.4611e-07
4.8569e-05
2.31458e-07
4.85156e-05
2.17013e-07
4.84658e-05
2.02491e-07
4.84195e-05
1.87862e-07
4.83769e-05
1.72782e-07
4.83381e-05
1.57144e-07
4.83032e-05
1.40633e-07
4.82725e-05
1.2312e-07
4.82464e-05
1.04321e-07
4.82252e-05
8.38718e-08
4.82094e-05
6.1677e-08
4.81994e-05
3.7086e-08
4.81959e-05
1.03164e-08
4.81997e-05
-2.01377e-08
4.82115e-05
-5.32408e-08
4.82323e-05
-9.1292e-08
4.82631e-05
-1.33186e-07
4.83052e-05
-1.81705e-07
4.83601e-05
-2.35461e-07
4.84047e-05
-1.89208e-07
4.84553e-05
-2.12042e-07
4.85116e-05
-2.36705e-07
4.85739e-05
-2.61017e-07
4.86424e-05
-2.87964e-07
4.87171e-05
-3.13948e-07
4.87983e-05
-3.43301e-07
4.8886e-05
-3.71329e-07
4.89807e-05
-4.04431e-07
4.90822e-05
-4.3488e-07
4.91916e-05
-4.7302e-07
4.93082e-05
-5.05893e-07
4.94347e-05
-5.51849e-07
4.95687e-05
-5.86744e-07
4.97162e-05
-6.49346e-07
4.98706e-05
-6.82258e-07
5.0046e-05
-7.88617e-07
5.02248e-05
-7.98267e-07
5.04415e-05
-1.02815e-06
5.06552e-05
-9.45902e-07
5.09378e-05
-1.50042e-06
5.12271e-05
-1.26213e-06
5.16273e-05
-2.47913e-06
5.21252e-05
-2.75317e-06
-5.74518e-06
5.27133e-05
6.67551e-05
-2.94486e-05
7.07798e-05
-1.07832e-05
7.23159e-05
-1.26108e-06
7.25437e-05
3.21563e-06
7.23743e-05
3.89383e-06
7.19076e-05
4.35281e-06
7.13605e-05
4.0841e-06
7.07512e-05
3.90504e-06
7.01396e-05
3.58568e-06
6.95369e-05
3.3083e-06
6.89582e-05
3.03045e-06
6.84083e-05
2.77824e-06
6.78907e-05
2.54309e-06
6.74054e-05
2.33323e-06
6.69521e-05
2.14186e-06
6.65295e-05
1.96795e-06
6.61356e-05
1.81393e-06
6.57687e-05
1.67336e-06
6.5427e-05
1.54538e-06
6.51085e-05
1.43098e-06
6.48113e-05
1.32737e-06
6.4534e-05
1.23289e-06
6.42749e-05
1.14681e-06
6.40326e-05
1.06845e-06
6.38056e-05
9.97361e-07
6.3593e-05
9.31956e-07
6.33935e-05
8.71992e-07
6.32062e-05
8.17117e-07
6.30301e-05
7.6643e-07
6.28645e-05
7.19764e-07
6.27085e-05
6.76819e-07
6.25614e-05
6.37016e-07
6.24227e-05
6.00153e-07
6.22918e-05
5.65844e-07
6.21681e-05
5.33981e-07
6.20511e-05
5.04359e-07
6.19405e-05
4.76642e-07
6.18359e-05
4.50635e-07
6.17368e-05
4.26194e-07
6.16431e-05
4.03143e-07
6.15543e-05
3.81285e-07
6.14704e-05
3.60433e-07
6.13911e-05
3.40383e-07
6.13162e-05
3.20987e-07
6.12458e-05
3.01974e-07
6.11796e-05
2.83228e-07
6.11178e-05
2.64403e-07
6.10603e-05
2.45439e-07
6.10073e-05
2.25908e-07
6.09589e-05
2.05664e-07
6.09153e-05
1.84315e-07
6.08769e-05
1.61684e-07
6.08441e-05
1.37414e-07
6.08172e-05
1.1103e-07
6.07969e-05
8.2436e-08
6.07837e-05
5.07692e-08
6.07783e-05
1.63097e-08
6.07818e-05
-2.28535e-08
6.07949e-05
-6.53905e-08
6.0819e-05
-1.14242e-07
6.08551e-05
-1.67957e-07
6.09048e-05
-2.30117e-07
6.09699e-05
-2.98854e-07
6.1023e-05
-2.40465e-07
6.10832e-05
-2.69872e-07
6.11504e-05
-3.01418e-07
6.12246e-05
-3.32482e-07
6.13063e-05
-3.66754e-07
6.13955e-05
-3.99877e-07
6.14925e-05
-4.37067e-07
6.15971e-05
-4.72612e-07
6.171e-05
-5.14332e-07
6.18309e-05
-5.52772e-07
6.19612e-05
-6.00581e-07
6.21e-05
-6.41883e-07
6.22504e-05
-6.99293e-07
6.24097e-05
-7.42947e-07
6.25844e-05
-8.20668e-07
6.27678e-05
-8.622e-07
6.29742e-05
-9.91607e-07
6.31874e-05
-1.00862e-06
6.34384e-05
-1.27711e-06
6.36961e-05
-1.20317e-06
6.40145e-05
-1.82068e-06
6.43628e-05
-1.6138e-06
6.48027e-05
-2.92932e-06
6.53459e-05
-3.30918e-06
-6.31714e-06
6.59282e-05
8.1638e-05
-4.10383e-05
8.66588e-05
-1.5804e-05
8.871e-05
-3.31225e-06
8.91996e-05
2.7261e-06
8.92086e-05
3.88482e-06
8.88441e-05
4.71736e-06
8.83613e-05
4.56695e-06
8.77792e-05
4.48716e-06
8.71695e-05
4.1954e-06
8.65477e-05
3.93014e-06
8.59347e-05
3.64351e-06
8.53393e-05
3.37364e-06
8.47685e-05
3.11381e-06
8.42253e-05
2.87643e-06
8.37114e-05
2.65573e-06
8.32272e-05
2.45217e-06
8.27716e-05
2.26942e-06
8.23441e-05
2.10081e-06
8.19433e-05
1.94611e-06
8.15675e-05
1.80671e-06
8.12152e-05
1.67956e-06
8.0885e-05
1.56298e-06
8.05753e-05
1.45637e-06
8.02848e-05
1.35889e-06
8.00119e-05
1.27011e-06
7.97555e-05
1.18819e-06
7.95145e-05
1.11287e-06
7.92877e-05
1.04377e-06
7.90742e-05
9.79848e-07
7.88729e-05
9.20871e-07
7.86831e-05
8.66492e-07
7.8504e-05
8.16019e-07
7.83348e-05
7.69208e-07
7.8175e-05
7.25602e-07
7.80238e-05
6.8506e-07
7.78808e-05
6.47314e-07
7.77453e-05
6.11974e-07
7.76171e-05
5.78794e-07
7.74957e-05
5.4759e-07
7.73807e-05
5.18141e-07
7.72717e-05
4.90202e-07
7.71686e-05
4.63539e-07
7.70711e-05
4.37896e-07
7.69791e-05
4.13084e-07
7.68923e-05
3.8877e-07
7.68108e-05
3.64789e-07
7.67346e-05
3.40733e-07
7.66637e-05
3.16497e-07
7.65981e-05
2.91556e-07
7.65383e-05
2.65716e-07
7.64843e-05
2.38498e-07
7.64365e-05
2.09659e-07
7.63955e-05
1.78765e-07
7.63617e-05
1.45198e-07
7.63357e-05
1.08877e-07
7.63184e-05
6.86671e-08
7.63106e-05
2.49335e-08
7.63135e-05
-2.47101e-08
7.63279e-05
-7.85924e-08
7.63555e-05
-1.40437e-07
7.63975e-05
-2.08317e-07
7.64559e-05
-2.86842e-07
7.65326e-05
-3.73509e-07
7.65954e-05
-3.00992e-07
7.66667e-05
-3.38273e-07
7.67463e-05
-3.78076e-07
7.68344e-05
-4.17227e-07
7.69314e-05
-4.60216e-07
7.70373e-05
-5.01872e-07
7.71523e-05
-5.48345e-07
7.72766e-05
-5.92882e-07
7.74105e-05
-6.44727e-07
7.7554e-05
-6.92722e-07
7.77084e-05
-7.51788e-07
7.7873e-05
-8.03201e-07
7.8051e-05
-8.73799e-07
7.82397e-05
-9.28071e-07
7.84458e-05
-1.02288e-06
7.8663e-05
-1.07545e-06
7.8905e-05
-1.22971e-06
7.91583e-05
-1.25864e-06
7.94485e-05
-1.56521e-06
7.97567e-05
-1.51085e-06
8.01166e-05
-2.18263e-06
8.05305e-05
-2.03144e-06
8.10092e-05
-3.41824e-06
8.16046e-05
-3.91756e-06
-6.85723e-06
8.21545e-05
9.97487e-05
-5.5313e-05
0.000105938
-2.19928e-05
0.000108581
-5.95618e-06
0.000109366
1.94201e-06
0.000109577
3.6739e-06
0.000109333
4.96089e-06
0.000108936
4.96382e-06
0.000108405
5.01846e-06
0.000107822
4.77799e-06
0.000107206
4.54628e-06
0.000106582
4.26768e-06
0.000105962
3.99394e-06
0.000105356
3.72019e-06
0.000104768
3.46341e-06
0.000104205
3.21915e-06
0.000103667
2.98995e-06
0.000103156
2.78087e-06
0.000102671
2.58537e-06
0.000102213
2.40424e-06
0.00010178
2.23944e-06
0.000101372
2.08776e-06
0.000100987
1.94772e-06
0.000100624
1.81899e-06
0.000100282
1.70064e-06
9.99597e-05
1.59227e-06
9.96558e-05
1.4919e-06
9.93693e-05
1.39926e-06
9.90989e-05
1.31399e-06
9.88436e-05
1.23494e-06
9.86025e-05
1.16179e-06
9.83747e-05
1.09417e-06
9.81593e-05
1.03128e-06
9.79555e-05
9.72847e-07
9.77626e-05
9.18342e-07
9.75799e-05
8.67581e-07
9.74069e-05
8.20235e-07
9.72429e-05
7.7587e-07
9.70875e-05
7.34174e-07
9.69401e-05
6.9492e-07
9.68003e-05
6.57839e-07
9.66679e-05
6.22631e-07
9.65424e-05
5.89009e-07
9.64237e-05
5.56659e-07
9.63115e-05
5.25344e-07
9.62057e-05
4.94658e-07
9.61062e-05
4.6438e-07
9.6013e-05
4.34031e-07
9.59262e-05
4.03442e-07
9.58459e-05
3.71987e-07
9.57724e-05
3.39408e-07
9.5706e-05
3.05129e-07
9.56472e-05
2.6882e-07
9.55964e-05
2.29959e-07
9.55543e-05
1.8776e-07
9.55216e-05
1.4217e-07
9.54993e-05
9.17081e-08
9.54885e-05
3.68521e-08
9.54903e-05
-2.53249e-08
9.5506e-05
-9.2779e-08
9.55374e-05
-1.70172e-07
9.55862e-05
-2.5494e-07
9.56544e-05
-3.53005e-07
9.57445e-05
-4.61028e-07
9.58184e-05
-3.72144e-07
9.59025e-05
-4.18825e-07
9.59964e-05
-4.68494e-07
9.61005e-05
-5.17307e-07
9.62151e-05
-5.7064e-07
9.63403e-05
-6.2246e-07
9.64763e-05
-6.79902e-07
9.66232e-05
-7.35164e-07
9.67815e-05
-7.98877e-07
9.69512e-05
-8.58267e-07
9.71336e-05
-9.30396e-07
9.73281e-05
-9.93939e-07
9.75379e-05
-1.07963e-06
9.77608e-05
-1.14687e-06
9.80032e-05
-1.26076e-06
9.82598e-05
-1.32755e-06
9.85426e-05
-1.50819e-06
9.88423e-05
-1.55482e-06
9.91776e-05
-1.8981e-06
9.95434e-05
-1.87613e-06
9.99499e-05
-2.59136e-06
0.000100436
-2.52178e-06
0.00010095
-3.94229e-06
0.000101596
-4.57547e-06
-7.3509e-06
0.000102098
0.000121806
-7.27787e-05
0.000129366
-2.9553e-05
0.000132697
-9.287e-06
0.000133815
8.23543e-07
0.000134254
3.23553e-06
0.000134148
5.0669e-06
0.000133854
5.25765e-06
0.000133392
5.48067e-06
0.000132857
5.31265e-06
0.000132269
5.13425e-06
0.000131657
4.87961e-06
0.000131035
4.6162e-06
0.000130415
4.34059e-06
0.000129804
4.07449e-06
0.000129208
3.81482e-06
0.000128631
3.56652e-06
0.000128076
3.33603e-06
0.000127544
3.11715e-06
0.000127036
2.91205e-06
0.000126552
2.72338e-06