/*--------------------------------*- C++ -*----------------------------------*\
| =========                 |                                                 |
| \\      /  F ield         | OpenFOAM: The Open Source CFD Toolbox           |
|  \\    /   O peration     | Version:  2306                                  |
|   \\  /    A nd           | Website:  www.openfoam.com                      |
|    \\/     M anipulation  |                                                 |
\*---------------------------------------------------------------------------*/
FoamFile
{
    version     2.0;
    format      ascii;
    arch        "LSB;label=32;scalar=64";
    class       volSymmTensorField;
    location    "1700";
    object      turbulenceProperties:devReff;
}
// * * * * * * * * * * * * * * * * * * * * * * * * * * * * * * * * * * * * * //

dimensions      [0 2 -2 0 0 0 0];

internalField   nonuniform List<symmTensor> 
20540
(
(49.9686 -89.8045 -0 -49.9679 -0 -0.000671915)
(93.501 -103.728 -0 -87.4348 -0 -6.06615)
(49.9155 -187.329 -0 -49.9159 -0 0.000412858)
(27.9256 -216.491 -0 -33.5468 -0 5.62119)
(49.8445 -201.846 -0 -49.8447 -0 0.000199301)
(-6.47058 -233.484 -0 5.26746 -0 1.20311)
(49.7521 -214.619 -0 -49.7521 -0 -2.0138e-05)
(-20.8152 -248.552 -0 21.6276 -0 -0.812406)
(49.6337 -225.579 -0 -49.6336 -0 -5.13246e-05)
(-27.1361 -261.617 -0 27.5773 -0 -0.441159)
(49.4835 -234.616 -0 -49.4834 -0 -4.28091e-05)
(-31.1121 -272.562 -0 31.1732 -0 -0.0610343)
(49.2947 -241.896 -0 -49.2946 -0 -5.4283e-05)
(-34.1912 -281.593 -0 34.1761 -0 0.0150668)
(49.0592 -247.617 -0 -49.0591 -0 -8.10691e-05)
(-36.6342 -288.962 -0 36.6305 -0 0.00373086)
(48.7673 -251.968 -0 -48.7672 -0 -0.000120406)
(-38.5808 -294.91 -0 38.5838 -0 -0.00296732)
(48.4074 -255.104 -0 -48.4072 -0 -0.000177382)
(-40.1506 -299.648 -0 40.1524 -0 -0.00176773)
(47.9654 -257.146 -0 -47.9651 -0 -0.000261316)
(-41.418 -303.35 -0 41.4178 -0 0.000188195)
(47.4242 -258.178 -0 -47.4239 -0 -0.000385476)
(-42.4197 -306.157 -0 42.4183 -0 0.0014003)
(46.7638 -258.253 -0 -46.7632 -0 -0.000569197)
(-43.17 -308.175 -0 43.1675 -0 0.00246628)
(45.9596 -257.39 -0 -45.9587 -0 -0.000841071)
(-43.6683 -309.483 -0 43.6645 -0 0.00385928)
(44.9828 -255.58 -0 -44.9815 -0 -0.00124337)
(-43.9026 -310.129 -0 43.8968 -0 0.00583498)
(43.799 -252.787 -0 -43.7972 -0 -0.0018384)
(-43.8501 -310.133 -0 43.8414 -0 0.0086735)
(42.368 -248.946 -0 -42.3653 -0 -0.00271757)
(-43.4778 -309.486 -0 43.465 -0 0.0127899)
(40.6432 -243.968 -0 -40.6391 -0 -0.00401448)
(-42.7424 -308.147 -0 42.7236 -0 0.0187949)
(38.5713 -237.741 -0 -38.5653 -0 -0.00592399)
(-41.5904 -306.032 -0 41.5628 -0 0.0275806)
(36.0936 -230.131 -0 -36.0849 -0 -0.00872812)
(-39.9575 -303.015 -0 39.9171 -0 0.0404602)
(33.1482 -220.988 -0 -33.1353 -0 -0.0128224)
(-37.77 -298.909 -0 37.7107 -0 0.0593805)
(29.6743 -210.153 -0 -29.6556 -0 -0.0187291)
(-34.9465 -293.455 -0 34.8592 -0 0.0872223)
(25.6219 -197.466 -0 -25.5947 -0 -0.027138)
(-31.4025 -286.304 -0 31.2743 -0 0.128172)
(20.966 -182.782 -0 -20.9267 -0 -0.0392229)
(-27.0598 -276.998 -0 26.8715 -0 0.188314)
(15.7309 -165.992 -0 -15.6734 -0 -0.0574584)
(-21.8603 -264.942 -0 21.5837 -0 0.276649)
(10.0295 -147.05 -0 -9.94441 -0 -0.0850433)
(-15.7849 -249.375 -0 15.3754 -0 0.409528)
(4.12863 -126.004 -0 -4.01171 -0 -0.116926)
(-8.87865 -229.329 -0 8.2582 -0 0.620458)
(-1.45415 -103.032 -0 1.57538 -0 -0.121235)
(-1.29992 -203.522 -0 0.34305 -0 0.956875)
(-5.90178 -78.4017 -0 5.97963 -0 -0.0778437)
(6.53078 -170.08 -0 -7.93107 -0 1.4003)
(-8.14442 -51.658 -0 8.17849 -0 -0.0340731)
(13.7364 -126.36 -0 -15.533 -0 1.79661)
(-8.04568 -27.5966 -0 8.17842 -0 -0.132735)
(18.1965 -74.2051 -0 -20.1843 -0 1.98779)
(-6.7854 -7.26137 -0 7.03727 -0 -0.251877)
(19.8473 -22.544 -0 -21.81 -0 1.96268)
(-6.88657 9.13845 -0 7.1303 -0 -0.24374)
(19.7816 27.6952 -0 -21.7456 -0 1.96395)
(-8.07866 29.8554 -0 8.1897 -0 -0.111041)
(17.9979 79.5279 -0 -19.954 -0 1.95612)
(-7.96608 53.7712 -0 7.99926 -0 -0.033177)
(13.4394 130.689 -0 -15.1658 -0 1.72645)
(-5.53488 79.8718 -0 5.61687 -0 -0.0819914)
(6.38843 172.992 -0 -7.72234 -0 1.33391)
(-1.01669 104.07 -0 1.13737 -0 -0.120682)
(-1.25551 205.771 -0 0.335584 -0 0.919925)
(4.57741 126.765 -0 -4.46431 -0 -0.113099)
(-8.70679 231.321 -0 8.09968 -0 0.607111)
(10.4781 147.676 -0 -10.3956 -0 -0.082429)
(-15.5642 251.328 -0 15.1564 -0 0.407781)
(16.196 166.617 -0 -16.1394 -0 -0.0566202)
(-21.6608 266.999 -0 21.3812 -0 0.279586)
(21.4726 183.522 -0 -21.4332 -0 -0.0393444)
(-26.9363 279.239 -0 26.7433 -0 0.192946)
(26.1929 198.419 -0 -26.1652 -0 -0.02763)
(-31.3947 288.768 -0 31.2616 -0 0.13317)
(30.3267 211.393 -0 -30.3073 -0 -0.0193312)
(-35.0817 296.156 -0 34.9898 -0 0.091941)
(33.8926 222.571 -0 -33.8792 -0 -0.0134202)
(-38.0653 301.847 -0 38.0017 -0 0.0635213)
(36.9352 232.095 -0 -36.9259 -0 -0.00926536)
(-40.4222 306.184 -0 40.3782 -0 0.0439345)
(39.5107 240.111 -0 -39.5043 -0 -0.00637727)
(-42.2289 309.427 -0 42.1985 -0 0.0304152)
(41.6779 246.76 -0 -41.6735 -0 -0.00438098)
(-43.5564 311.765 -0 43.5354 -0 0.0210665)
(43.4936 252.17 -0 -43.4906 -0 -0.00300535)
(-44.4675 313.334 -0 44.4529 -0 0.0145911)
(45.0095 256.451 -0 -45.0074 -0 -0.0020597)
(-45.0158 314.223 -0 45.0057 -0 0.0100968)
(46.2716 259.696 -0 -46.2702 -0 -0.00141093)
(-45.2458 314.485 -0 45.2388 -0 0.00696556)
(47.3201 261.973 -0 -47.3191 -0 -0.000966449)
(-45.1926 314.14 -0 45.1879 -0 0.00476722)
(48.1892 263.328 -0 -48.1885 -0 -0.000662154)
(-44.8826 313.184 -0 44.8794 -0 0.0032056)
(48.9082 263.784 -0 -48.9077 -0 -0.000453884)
(-44.333 311.583 -0 44.331 -0 0.00207794)
(49.5017 263.336 -0 -49.5014 -0 -0.000311337)
(-43.5515 309.281 -0 43.5503 -0 0.00117675)
(49.9906 261.953 -0 -49.9904 -0 -0.000213774)
(-42.5349 306.194 -0 42.5349 -0 6.20928e-05)
(50.3921 259.577 -0 -50.392 -0 -0.000146989)
(-41.2662 302.213 -0 41.268 -0 -0.00181612)
(50.7209 256.116 -0 -50.7208 -0 -0.000101114)
(-39.7061 297.197 -0 39.709 -0 -0.00289249)
(50.989 251.446 -0 -50.989 -0 -6.91578e-05)
(-37.7787 290.97 -0 37.7749 -0 0.00381273)
(51.2067 245.405 -0 -51.2066 -0 -4.73011e-05)
(-35.3636 283.323 -0 35.3495 -0 0.0141033)
(51.3823 237.801 -0 -51.3822 -0 -3.73868e-05)
(-32.3195 274.011 -0 32.3841 -0 -0.0646399)
(51.5229 228.415 -0 -51.5228 -0 -4.14571e-05)
(-28.3733 262.768 -0 28.815 -0 -0.441698)
(51.6344 217.044 -0 -51.6344 -0 -1.49453e-05)
(-22.0429 249.343 -0 22.8282 -0 -0.785311)
(51.722 203.567 -0 -51.7222 -0 0.000172264)
(-7.64735 233.593 -0 6.42165 -0 1.2257)
(51.7898 188.232 -0 -51.7902 -0 0.000401681)
(26.8407 215.799 -0 -32.2857 -0 5.44499)
(51.8402 90.0837 -0 -51.8395 -0 -0.000636752)
(91.3598 103.221 -0 -85.4514 -0 -5.90841)
(0.00463891 -9.43672 -0 -0.00344976 -0 -0.00118914)
(0.00112843 -7.15258 -0 -0.00119677 -0 6.83417e-05)
(0.000375306 -6.49083 -0 -0.000407381 -0 3.20748e-05)
(0.000241974 -5.99244 -0 -0.000250423 -0 8.44927e-06)
(0.00017198 -5.69996 -0 -0.000178277 -0 6.29692e-06)
(0.00014037 -5.44508 -0 -0.00014322 -0 2.84976e-06)
(0.000114869 -5.25872 -0 -0.000117618 -0 2.74846e-06)
(0.000100191 -5.0967 -0 -0.00010204 -0 1.84825e-06)
(8.76089e-05 -4.96323 -0 -8.92807e-05 -0 1.67179e-06)
(7.86168e-05 -4.84711 -0 -7.99749e-05 -0 1.35813e-06)
(7.11518e-05 -4.74651 -0 -7.23526e-05 -0 1.20079e-06)
(6.51399e-05 -4.65764 -0 -6.6187e-05 -0 1.04709e-06)
(5.99701e-05 -4.57895 -0 -6.09018e-05 -0 9.31726e-07)
(5.56925e-05 -4.50869 -0 -5.6528e-05 -0 8.35414e-07)
(5.19521e-05 -4.44542 -0 -5.27065e-05 -0 7.54426e-07)
(4.86544e-05 -4.38846 -0 -4.93385e-05 -0 6.84095e-07)
(4.58629e-05 -4.33676 -0 -4.64898e-05 -0 6.26903e-07)
(4.33406e-05 -4.28964 -0 -4.39149e-05 -0 5.74322e-07)
(4.10624e-05 -4.24667 -0 -4.15913e-05 -0 5.28946e-07)
(3.90748e-05 -4.20731 -0 -3.95647e-05 -0 4.89898e-07)
(3.72922e-05 -4.1711 -0 -3.77474e-05 -0 4.55192e-07)
(3.56686e-05 -4.13774 -0 -3.60923e-05 -0 4.23772e-07)
(3.419e-05 -4.10693 -0 -3.45857e-05 -0 3.95727e-07)
(3.28504e-05 -4.07843 -0 -3.32214e-05 -0 3.71072e-07)
(3.16476e-05 -4.05198 -0 -3.19964e-05 -0 3.48856e-07)
(3.05304e-05 -4.02739 -0 -3.08591e-05 -0 3.28737e-07)
(2.95067e-05 -4.0045 -0 -2.98171e-05 -0 3.10409e-07)
(2.8574e-05 -3.98315 -0 -2.88685e-05 -0 2.94528e-07)
(2.77028e-05 -3.9632 -0 -2.79823e-05 -0 2.79451e-07)
(2.69012e-05 -3.94454 -0 -2.71679e-05 -0 2.66641e-07)
(2.61656e-05 -3.92706 -0 -2.64204e-05 -0 2.54814e-07)
(2.54785e-05 -3.91066 -0 -2.57231e-05 -0 2.44628e-07)
(2.484e-05 -3.89525 -0 -2.50752e-05 -0 2.35271e-07)
(2.42389e-05 -3.88077 -0 -2.44664e-05 -0 2.27508e-07)
(2.36786e-05 -3.86714 -0 -2.38994e-05 -0 2.20745e-07)
(2.31577e-05 -3.8543 -0 -2.33733e-05 -0 2.1556e-07)
(2.26621e-05 -3.8422 -0 -2.28732e-05 -0 2.11013e-07)
(2.21879e-05 -3.83077 -0 -2.23956e-05 -0 2.0776e-07)
(2.17332e-05 -3.81999 -0 -2.19385e-05 -0 2.05334e-07)
(2.12927e-05 -3.80981 -0 -2.14968e-05 -0 2.04079e-07)
(2.08582e-05 -3.80021 -0 -2.10617e-05 -0 2.03501e-07)
(2.04212e-05 -3.79114 -0 -2.0625e-05 -0 2.03868e-07)
(1.99711e-05 -3.78259 -0 -2.01761e-05 -0 2.0499e-07)
(1.94985e-05 -3.77453 -0 -1.97055e-05 -0 2.06991e-07)
(1.89852e-05 -3.76696 -0 -1.91951e-05 -0 2.09888e-07)
(1.84229e-05 -3.75986 -0 -1.86368e-05 -0 2.1391e-07)
(1.77767e-05 -3.75324 -0 -1.79956e-05 -0 2.18946e-07)
(1.70436e-05 -3.7471 -0 -1.72694e-05 -0 2.25861e-07)
(1.61763e-05 -3.74144 -0 -1.64105e-05 -0 2.34182e-07)
(1.51557e-05 -3.7363 -0 -1.54004e-05 -0 2.44682e-07)
(1.39273e-05 -3.73168 -0 -1.41847e-05 -0 2.57356e-07)
(1.24623e-05 -3.72764 -0 -1.27375e-05 -0 2.75256e-07)
(1.06947e-05 -3.72419 -0 -1.09946e-05 -0 2.99902e-07)
(8.56398e-06 -3.72142 -0 -8.90342e-06 -0 3.39447e-07)
(6.00037e-06 -3.71936 -0 -6.40163e-06 -0 4.01262e-07)
(2.90912e-06 -3.71811 -0 -3.38854e-06 -0 4.79419e-07)
(-7.22494e-07 -3.71774 -0 1.07243e-07 -0 6.15251e-07)
(-5.23933e-06 -3.71834 -0 4.523e-06 -0 7.16333e-07)
(-1.05219e-05 -3.72006 -0 9.60596e-06 -0 9.15974e-07)
(-1.69474e-05 -3.72299 -0 1.58932e-05 -0 1.05429e-06)
(-2.46091e-05 -3.72733 -0 2.33299e-05 -0 1.27925e-06)
(-3.42547e-05 -3.73321 -0 3.28504e-05 -0 1.40433e-06)
(-4.60726e-05 -3.74099 -0 4.44217e-05 -0 1.65086e-06)
(-5.74014e-05 -3.74927 -0 5.46577e-05 -0 2.74366e-06)
(-6.66106e-05 -3.75694 -0 6.17983e-05 -0 4.81227e-06)
(-7.7889e-05 -3.76542 -0 7.29425e-05 -0 4.94652e-06)
(-9.05205e-05 -3.77475 -0 8.44638e-05 -0 6.0567e-06)
(-0.00010537 -3.78518 -0 9.87265e-05 -0 6.64372e-06)
(-0.000121388 -3.79654 -0 0.000113461 -0 7.92723e-06)
(-0.000140166 -3.80907 -0 0.000131801 -0 8.36534e-06)
(-0.000160971 -3.82261 -0 0.000151674 -0 9.29656e-06)
(-0.000185842 -3.83746 -0 0.000177016 -0 8.82506e-06)
(-0.000213395 -3.85344 -0 0.00020437 -0 9.02463e-06)
(-0.000246933 -3.87089 -0 0.00023831 -0 8.62342e-06)
(-0.000283502 -3.88988 -0 0.000275208 -0 8.29411e-06)
(-0.000329301 -3.91031 -0 0.00031895 -0 1.03513e-05)
(-0.000377539 -3.9333 -0 0.00036846 -0 9.07957e-06)
(-0.000444569 -3.95707 -0 0.000429038 -0 1.55315e-05)
(-0.000508967 -3.98583 -0 0.000499954 -0 9.01253e-06)
(-0.000622105 -4.01303 -0 0.000600047 -0 2.2058e-05)
(-0.000712093 -4.05135 -0 0.000714635 -0 -2.54229e-06)
(-0.000956633 -4.08121 -0 0.000930596 -0 2.60365e-05)
(-0.00107501 -4.14022 -0 0.0011269 -0 -5.1894e-05)
(-0.0017891 -4.16752 -0 0.00175569 -0 3.34086e-05)
(-0.00203099 -4.28483 -0 0.00224087 -0 -0.000209884)
(-0.00469349 -4.29795 -0 0.00455207 -0 0.000141417)
(-0.00174306 -4.59818 -0 0.00333865 -0 -0.00159559)
(-0.0974522 -4.42677 2.7194e-21 0.0970868 -0 0.000365456)
(0.0051559 -9.65607 -0 -0.0060162 -0 0.000860302)
(0.0019206 -6.24363 -0 -0.00183084 -0 -8.97577e-05)
(0.00100861 -5.6905 -0 -0.000998059 -0 -1.05515e-05)
(0.000714172 -5.2725 -0 -0.000707776 -0 -6.39545e-06)
(0.000517969 -5.02488 -0 -0.000516898 -0 -1.07098e-06)
(0.000428441 -4.81187 -0 -0.000425303 -0 -3.13745e-06)
(0.000351752 -4.65572 -0 -0.000349999 -0 -1.75273e-06)
(0.000307997 -4.52133 -0 -0.000305843 -0 -2.15465e-06)
(0.000269799 -4.41073 -0 -0.000268047 -0 -1.75195e-06)
(0.000242522 -4.31498 -0 -0.000240806 -0 -1.71553e-06)
(0.000219774 -4.23221 -0 -0.000218213 -0 -1.56084e-06)
(0.000201429 -4.15927 -0 -0.000199963 -0 -1.46649e-06)
(0.000185623 -4.09479 -0 -0.000184254 -0 -1.36846e-06)
(0.000172531 -4.0373 -0 -0.000171245 -0 -1.28638e-06)
(0.000161067 -3.98559 -0 -0.000159855 -0 -1.21199e-06)
(0.000150953 -3.93908 -0 -0.000149809 -0 -1.14385e-06)
(0.000142379 -3.89689 -0 -0.000141293 -0 -1.08639e-06)
(0.000134633 -3.85846 -0 -0.000133602 -0 -1.03175e-06)
(0.000127626 -3.82343 -0 -0.000126643 -0 -9.83396e-07)
(0.00012151 -3.79135 -0 -0.000120571 -0 -9.39692e-07)
(0.000116021 -3.76184 -0 -0.00011512 -0 -9.01159e-07)
(0.000111021 -3.73467 -0 -0.000110156 -0 -8.6467e-07)
(0.000106463 -3.70957 -0 -0.000105631 -0 -8.32501e-07)
(0.000102331 -3.68635 -0 -0.000101529 -0 -8.02159e-07)
(9.86198e-05 -3.6648 -0 -9.78441e-05 -0 -7.75789e-07)
(9.51713e-05 -3.64477 -0 -9.44213e-05 -0 -7.50073e-07)
(9.20097e-05 -3.62612 -0 -9.12823e-05 -0 -7.27441e-07)
(8.91271e-05 -3.60872 -0 -8.84213e-05 -0 -7.05785e-07)
(8.64347e-05 -3.59247 -0 -8.57487e-05 -0 -6.86012e-07)
(8.39545e-05 -3.57726 -0 -8.32874e-05 -0 -6.67103e-07)
(8.16784e-05 -3.56302 -0 -8.10285e-05 -0 -6.4986e-07)
(7.95503e-05 -3.54965 -0 -7.89175e-05 -0 -6.32868e-07)
(7.75726e-05 -3.53709 -0 -7.69556e-05 -0 -6.17029e-07)
(7.5709e-05 -3.52528 -0 -7.51078e-05 -0 -6.01178e-07)
(7.39709e-05 -3.51417 -0 -7.33847e-05 -0 -5.86148e-07)
(7.23533e-05 -3.50369 -0 -7.17821e-05 -0 -5.71184e-07)
(7.08148e-05 -3.49382 -0 -7.02583e-05 -0 -5.56426e-07)
(6.93413e-05 -3.48449 -0 -6.87998e-05 -0 -5.41494e-07)
(6.7929e-05 -3.4757 -0 -6.74022e-05 -0 -5.26771e-07)
(6.65607e-05 -3.46739 -0 -6.6049e-05 -0 -5.11672e-07)
(6.52129e-05 -3.45954 -0 -6.47165e-05 -0 -4.96446e-07)
(6.38592e-05 -3.45213 -0 -6.33785e-05 -0 -4.8068e-07)
(6.24684e-05 -3.44514 -0 -6.20042e-05 -0 -4.64206e-07)
(6.10126e-05 -3.43855 -0 -6.05658e-05 -0 -4.4686e-07)
(5.94366e-05 -3.43235 -0 -5.90085e-05 -0 -4.28121e-07)
(5.77171e-05 -3.42653 -0 -5.73096e-05 -0 -4.0745e-07)
(5.57479e-05 -3.42109 -0 -5.53637e-05 -0 -3.84215e-07)
(5.35218e-05 -3.41604 -0 -5.31637e-05 -0 -3.58018e-07)
(5.08963e-05 -3.41137 -0 -5.05691e-05 -0 -3.27225e-07)
(4.78141e-05 -3.4071 -0 -4.75232e-05 -0 -2.90868e-07)
(4.41108e-05 -3.40325 -0 -4.38652e-05 -0 -2.45586e-07)
(3.96984e-05 -3.39985 -0 -3.95092e-05 -0 -1.89174e-07)
(3.43798e-05 -3.39691 -0 -3.42683e-05 -0 -1.11563e-07)
(2.79656e-05 -3.3945 -0 -2.79507e-05 -0 -1.48935e-08)
(2.02575e-05 -3.39263 -0 -2.03895e-05 -0 1.31966e-07)
(1.09646e-05 -3.39138 -0 -1.1247e-05 -0 2.82406e-07)
(3.45737e-08 -3.3908 -0 -5.65795e-07 -0 5.31221e-07)
(-1.34259e-05 -3.39096 -0 1.26779e-05 -0 7.48011e-07)
(-2.92917e-05 -3.39197 -0 2.8185e-05 -0 1.10671e-06)
(-4.84301e-05 -3.39389 -0 4.70666e-05 -0 1.36351e-06)
(-7.12242e-05 -3.39687 -0 6.93819e-05 -0 1.84223e-06)
(-9.9492e-05 -3.40099 -0 9.71916e-05 -0 2.30043e-06)
(-0.000133866 -3.40651 -0 0.000130806 -0 3.06013e-06)
(-0.000168231 -3.41237 -0 0.000163697 -0 4.53394e-06)
(-0.000197832 -3.41782 -0 0.000190464 -0 7.36822e-06)
(-0.00023037 -3.42392 -0 0.00022287 -0 7.49973e-06)
(-0.000268126 -3.43062 -0 0.000258789 -0 9.33703e-06)
(-0.000311278 -3.4381 -0 0.000300947 -0 1.03312e-05)
(-0.000358207 -3.44623 -0 0.000345682 -0 1.25247e-05)
(-0.000411928 -3.4552 -0 0.000398726 -0 1.32016e-05)
(-0.000471377 -3.46486 -0 0.000456208 -0 1.5169e-05)
(-0.000540193 -3.47543 -0 0.000525172 -0 1.50205e-05)
(-0.000616212 -3.48678 -0 0.000599867 -0 1.63453e-05)
(-0.000707406 -3.49908 -0 0.000690682 -0 1.67236e-05)
(-0.000804782 -3.51241 -0 0.000787268 -0 1.75138e-05)
(-0.000930099 -3.52659 -0 0.000908992 -0 2.1107e-05)
(-0.00105255 -3.54248 -0 0.00103201 -0 2.05429e-05)
(-0.00123734 -3.55863 -0 0.00120796 -0 2.93823e-05)
(-0.00138586 -3.57817 -0 0.00136259 -0 2.32756e-05)
(-0.00170104 -3.5961 -0 0.00166255 -0 3.84975e-05)
(-0.00185847 -3.62184 -0 0.00183956 -0 1.89151e-05)
(-0.00256299 -3.64001 -0 0.00252298 -0 4.00119e-05)
(-0.00256318 -3.67995 -0 0.00256096 -0 2.22403e-06)
(-0.0046566 -3.69076 -0 0.00465054 -0 6.06798e-06)
(-0.00399212 -3.77028 -0 0.00390482 -0 8.73095e-05)
(-0.011377 -3.75416 -0 0.0120648 -0 -0.000687873)
(-0.0049781 -3.92148 -0 0.00355511 -0 0.00142299)
(-0.0644852 -3.95906 -7.44428e-21 0.0580498 -0 0.00643542)
(0.00173665 -12.1282 -0 -0.00436966 -0 0.00263301)
(0.00237661 -7.85102 -0 -0.00235613 -0 -2.04855e-05)
(0.00216293 -6.99896 -0 -0.00215927 -0 -3.66414e-06)
(0.0017426 -6.4053 -0 -0.00174603 -0 3.43379e-06)
(0.00128907 -6.04232 -0 -0.00130098 -0 1.19123e-05)
(0.00106743 -5.73213 -0 -0.00107442 -0 6.98905e-06)
(0.000870525 -5.50022 -0 -0.000878191 -0 7.66558e-06)
(0.000756439 -5.30147 -0 -0.000762227 -0 5.78735e-06)
(0.000657369 -5.13683 -0 -0.000662786 -0 5.41693e-06)
(0.000586474 -4.99461 -0 -0.000591137 -0 4.66288e-06)
(0.000527753 -4.87156 -0 -0.000531987 -0 4.23324e-06)
(0.000480591 -4.7633 -0 -0.000484415 -0 3.82385e-06)
(0.000440282 -4.66773 -0 -0.000443769 -0 3.48733e-06)
(0.000407023 -4.58267 -0 -0.000410231 -0 3.20782e-06)
(0.000378105 -4.5063 -0 -0.000381066 -0 2.96103e-06)
(0.000352773 -4.43776 -0 -0.000355521 -0 2.74828e-06)
(0.00033135 -4.37572 -0 -0.000333911 -0 2.56179e-06)
(0.000312137 -4.31932 -0 -0.000314538 -0 2.40059e-06)
(0.000294859 -4.26802 -0 -0.000297109 -0 2.2501e-06)
(0.00027982 -4.22113 -0 -0.000281941 -0 2.12158e-06)
(0.000266382 -4.17809 -0 -0.000268386 -0 2.00376e-06)
(0.000254201 -4.13854 -0 -0.000256101 -0 1.89993e-06)
(0.000243142 -4.10207 -0 -0.000244945 -0 1.80266e-06)
(0.00023315 -4.06839 -0 -0.000234866 -0 1.71659e-06)
(0.000224196 -4.0372 -0 -0.000225833 -0 1.6375e-06)
(0.000215913 -4.00824 -0 -0.000217479 -0 1.56638e-06)
(0.00020834 -3.98133 -0 -0.00020984 -0 1.49999e-06)
(0.000201449 -3.95626 -0 -0.00020289 -0 1.44058e-06)
(0.000195038 -3.93287 -0 -0.000196423 -0 1.38537e-06)
(0.000189143 -3.91103 -0 -0.000190478 -0 1.33506e-06)
(0.000183743 -3.89059 -0 -0.000185032 -0 1.28936e-06)
(0.000178707 -3.87143 -0 -0.000179955 -0 1.24785e-06)
(0.000174037 -3.85346 -0 -0.000175247 -0 1.20992e-06)
(0.000169648 -3.83657 -0 -0.000170824 -0 1.17573e-06)
(0.000165563 -3.8207 -0 -0.000166708 -0 1.14498e-06)
(0.000161764 -3.80576 -0 -0.000162882 -0 1.11777e-06)
(0.000158163 -3.79169 -0 -0.000159256 -0 1.0935e-06)
(0.000154723 -3.77841 -0 -0.000155795 -0 1.07184e-06)
(0.000151434 -3.7659 -0 -0.000152487 -0 1.05232e-06)
(0.000148258 -3.75408 -0 -0.000149293 -0 1.03504e-06)
(0.000145142 -3.74293 -0 -0.000146161 -0 1.01911e-06)
(0.000142026 -3.73239 -0 -0.000143031 -0 1.00443e-06)
(0.000138842 -3.72246 -0 -0.000139832 -0 9.90076e-07)
(0.00013553 -3.71309 -0 -0.000136506 -0 9.761e-07)
(0.000131965 -3.70427 -0 -0.000132926 -0 9.61341e-07)
(0.000128096 -3.69599 -0 -0.000129042 -0 9.45484e-07)
(0.000123698 -3.68823 -0 -0.000124626 -0 9.2822e-07)
(0.000118748 -3.68099 -0 -0.000119657 -0 9.08995e-07)
(0.000112943 -3.67427 -0 -0.00011383 -0 8.87286e-07)
(0.000106153 -3.6681 -0 -0.000107015 -0 8.62022e-07)
(9.80294e-05 -3.66247 -0 -9.88623e-05 -0 8.32906e-07)
(8.83824e-05 -3.65743 -0 -8.91856e-05 -0 8.03111e-07)
(7.679e-05 -3.65298 -0 -7.75713e-05 -0 7.81297e-07)
(6.28316e-05 -3.6492 -0 -6.3592e-05 -0 7.60414e-07)
(4.60815e-05 -3.6461 -0 -4.68786e-05 -0 7.97112e-07)
(2.58838e-05 -3.64377 -0 -2.66712e-05 -0 7.87405e-07)
(2.0617e-06 -3.64225 -0 -2.98812e-06 -0 9.26418e-07)
(-2.70682e-05 -3.64163 -0 2.61711e-05 -0 8.97025e-07)
(-6.15848e-05 -3.64206 -0 6.04539e-05 -0 1.13089e-06)
(-0.000103362 -3.64354 -0 0.000102369 -0 9.93904e-07)
(-0.000152717 -3.64629 -0 0.000151559 -0 1.15784e-06)
(-0.000213666 -3.65043 -0 0.000212632 -0 1.03371e-06)
(-0.000287057 -3.65614 -0 0.000286048 -0 1.0094e-06)
(-0.00036135 -3.66224 -0 0.000358981 -0 2.36895e-06)
(-0.000427831 -3.66798 -0 0.000421185 -0 6.64574e-06)
(-0.000499022 -3.6746 -0 0.000492762 -0 6.25957e-06)
(-0.000580611 -3.68189 -0 0.000572331 -0 8.28054e-06)
(-0.000673968 -3.69003 -0 0.00066548 -0 8.48735e-06)
(-0.000775998 -3.69887 -0 0.000765123 -0 1.08754e-05)
(-0.000892365 -3.70865 -0 0.000882206 -0 1.01584e-05)
(-0.00102057 -3.71914 -0 0.00100868 -0 1.18955e-05)
(-0.00116871 -3.73065 -0 0.00115941 -0 9.30193e-06)
(-0.00133006 -3.74287 -0 0.00132053 -0 9.52931e-06)
(-0.00152544 -3.75612 -0 0.00151808 -0 7.36044e-06)
(-0.00172979 -3.77026 -0 0.00172337 -0 6.41785e-06)
(-0.0019987 -3.78531 -0 0.00198991 -0 8.78936e-06)
(-0.00225345 -3.80177 -0 0.00224724 -0 6.20946e-06)
(-0.00265374 -3.81859 -0 0.00263832 -0 1.54219e-05)
(-0.00295299 -3.8383 -0 0.00294695 -0 6.04211e-06)
(-0.00364948 -3.85667 -0 0.00362942 -0 2.00542e-05)
(-0.00389512 -3.88176 -0 0.00390022 -0 -5.09935e-06)
(-0.0055134 -3.89974 -0 0.00550318 -0 1.02203e-05)
(-0.00511818 -3.93711 -0 0.00516536 -0 -4.71805e-05)
(-0.00990932 -3.94855 -0 0.00991237 -0 -3.04895e-06)
(-0.00735251 -4.01326 -0 0.00751143 -0 -0.000158923)
(-0.0216883 -4.02139 -0 0.0219659 -0 -0.000277585)
(-0.019111 -4.0778 -0 0.0185578 -0 0.000553211)
(-0.0806526 -4.09552 -0 0.0907613 -0 -0.0101087)
(-0.0244831 -11.9138 -0 0.0237596 -0 0.000723483)
(0.000140673 -7.85285 -0 -0.000104088 -0 -3.6585e-05)
(0.00303434 -6.95732 -0 -0.00301667 -0 -1.76664e-05)
(0.00314173 -6.43141 -0 -0.00312345 -0 -1.82822e-05)
(0.00247499 -6.11709 -0 -0.0024774 -0 2.4098e-06)
(0.00212224 -5.85196 -0 -0.00212161 -0 -6.31449e-07)
(0.00175622 -5.65037 -0 -0.00175971 -0 3.48822e-06)
(0.00154212 -5.4773 -0 -0.00154437 -0 2.24781e-06)
(0.00134866 -5.33234 -0 -0.00135166 -0 3.00005e-06)
(0.00120901 -5.20656 -0 -0.00121171 -0 2.69742e-06)
(0.00109185 -5.09701 -0 -0.00109459 -0 2.74043e-06)
(0.000997117 -5.00015 -0 -0.000999756 -0 2.63871e-06)
(0.000915651 -4.91424 -0 -0.000918209 -0 2.55813e-06)
(0.000848098 -4.83745 -0 -0.000850575 -0 2.47725e-06)
(0.000789165 -4.76824 -0 -0.000791554 -0 2.38947e-06)
(0.000737349 -4.7059 -0 -0.000739654 -0 2.30568e-06)
(0.000693399 -4.64925 -0 -0.000695622 -0 2.22331e-06)
(0.000653915 -4.5976 -0 -0.000656064 -0 2.14915e-06)
(0.000618325 -4.55048 -0 -0.000620393 -0 2.06884e-06)
(0.000587268 -4.50729 -0 -0.000589268 -0 2.0003e-06)
(0.000559489 -4.46754 -0 -0.00056142 -0 1.93116e-06)
(0.000534274 -4.43092 -0 -0.000536144 -0 1.86936e-06)
(0.000511351 -4.39707 -0 -0.000513158 -0 1.80643e-06)
(0.000490608 -4.36575 -0 -0.000492358 -0 1.75054e-06)
(0.000471999 -4.33667 -0 -0.000473695 -0 1.69618e-06)
(0.000454778 -4.30963 -0 -0.000456425 -0 1.64717e-06)
(0.000439013 -4.28446 -0 -0.000440611 -0 1.59877e-06)
(0.000424654 -4.26095 -0 -0.00042621 -0 1.55594e-06)
(0.000411289 -4.239 -0 -0.000412803 -0 1.51438e-06)
(0.000398986 -4.21846 -0 -0.000400463 -0 1.47669e-06)
(0.000387708 -4.1992 -0 -0.00038915 -0 1.44184e-06)
(0.000377188 -4.18113 -0 -0.000378599 -0 1.41059e-06)
(0.000367425 -4.16416 -0 -0.000368807 -0 1.38182e-06)
(0.000358246 -4.14819 -0 -0.000359602 -0 1.35653e-06)
(0.000349692 -4.13317 -0 -0.000351026 -0 1.33396e-06)
(0.000341732 -4.119 -0 -0.000343048 -0 1.31513e-06)
(0.000334185 -4.10564 -0 -0.000335484 -0 1.29892e-06)
(0.000326972 -4.09303 -0 -0.000328257 -0 1.28547e-06)
(0.00032007 -4.08112 -0 -0.000321344 -0 1.27406e-06)
(0.000313398 -4.06987 -0 -0.000314663 -0 1.26534e-06)
(0.000306848 -4.05923 -0 -0.000308107 -0 1.25816e-06)
(0.000300297 -4.04917 -0 -0.00030155 -0 1.25277e-06)
(0.000293596 -4.03968 -0 -0.000294845 -0 1.2485e-06)
(0.000286622 -4.0307 -0 -0.000287867 -0 1.24528e-06)
(0.000279111 -4.02224 -0 -0.000280353 -0 1.24273e-06)
(0.000270952 -4.01427 -0 -0.000272193 -0 1.24132e-06)
(0.000261681 -4.00678 -0 -0.000262921 -0 1.24005e-06)
(0.00025123 -3.99978 -0 -0.00025247 -0 1.24004e-06)
(0.000238978 -3.99324 -0 -0.000240219 -0 1.24091e-06)
(0.000224641 -3.98719 -0 -0.000225885 -0 1.24333e-06)
(0.000207503 -3.98163 -0 -0.000208753 -0 1.24988e-06)
(0.000187145 -3.9766 -0 -0.000188411 -0 1.26631e-06)
(0.000162709 -3.97207 -0 -0.00016402 -0 1.31155e-06)
(0.000133273 -3.96813 -0 -0.000134651 -0 1.37788e-06)
(9.79404e-05 -3.96477 -0 -9.94909e-05 -0 1.55045e-06)
(5.53292e-05 -3.96207 -0 -5.70106e-05 -0 1.68139e-06)
(4.74584e-06 -3.96005 -0 -6.81082e-06 -0 2.06498e-06)
(-5.66754e-05 -3.95878 -0 5.44751e-05 -0 2.2003e-06)
(-0.000129516 -3.95837 -0 0.000126737 -0 2.77932e-06)
(-0.000218049 -3.95887 -0 0.00021507 -0 2.97873e-06)
(-0.000322393 -3.96032 -0 0.000318885 -0 3.50784e-06)
(-0.000449927 -3.96294 -0 0.00044614 -0 3.78726e-06)
(-0.000601933 -3.96678 -0 0.000597313 -0 4.6205e-06)
(-0.000757717 -3.971 -0 0.000750199 -0 7.51756e-06)
(-0.000901301 -3.97499 -0 0.00088719 -0 1.41107e-05)
(-0.00105171 -3.97974 -0 0.00103789 -0 1.38111e-05)
(-0.00122295 -3.98496 -0 0.00120563 -0 1.73226e-05)
(-0.00141749 -3.99084 -0 0.00139884 -0 1.86467e-05)
(-0.00163087 -3.99719 -0 0.00160787 -0 2.29954e-05)
(-0.00187232 -4.00424 -0 0.00184916 -0 2.31609e-05)
(-0.0021374 -4.01173 -0 0.00211075 -0 2.66508e-05)
(-0.00244247 -4.02 -0 0.00241786 -0 2.46097e-05)
(-0.00277053 -4.02862 -0 0.00274424 -0 2.62918e-05)
(-0.00317129 -4.03802 -0 0.00314548 -0 2.58102e-05)
(-0.00358119 -4.04779 -0 0.0035547 -0 2.64807e-05)
(-0.00413222 -4.05827 -0 0.00409838 -0 3.38419e-05)
(-0.00463689 -4.06917 -0 0.00460463 -0 3.22601e-05)
(-0.00546012 -4.08068 -0 0.00540839 -0 5.1726e-05)
(-0.00602993 -4.09277 -0 0.00599194 -0 3.79924e-05)
(-0.00748277 -4.10531 -0 0.00741111 -0 7.16551e-05)
(-0.007819 -4.11915 -0 0.00779403 -0 2.49686e-05)
(-0.0112458 -4.13155 -0 0.0111616 -0 8.42502e-05)
(-0.00983921 -4.14963 -0 0.00987546 -0 -3.62488e-05)
(-0.0198785 -4.16422 -0 0.0198216 -0 5.68903e-05)
(-0.0131637 -4.17635 -0 0.0132469 -0 -8.32364e-05)
(-0.0399152 -4.22425 -0 0.040174 -0 -0.000258836)
(-0.0443243 -4.11921 -0 0.0460157 -0 -0.00169146)
(-0.0819885 -4.05821 -0 0.0760415 -0 0.00594706)
(-0.0754288 -11.6925 -0 0.0748946 -0 0.000534176)
(-0.00736267 -7.82488 -0 0.00738537 -0 -2.27005e-05)
(0.00277721 -6.84561 -0 -0.00276508 -0 -1.21349e-05)
(0.00454609 -6.2842 -0 -0.00450716 -0 -3.89257e-05)
(0.00388773 -5.96317 -0 -0.00387463 -0 -1.3097e-05)
(0.00348994 -5.70584 -0 -0.00347348 -0 -1.64604e-05)
(0.00294189 -5.51058 -0 -0.00293349 -0 -8.39794e-06)
(0.00261597 -5.34445 -0 -0.00260694 -0 -9.02871e-06)
(0.00230479 -5.20517 -0 -0.0022979 -0 -6.88223e-06)
(0.00207695 -5.08449 -0 -0.00207044 -0 -6.51543e-06)
(0.00188281 -4.9793 -0 -0.00187707 -0 -5.74171e-06)
(0.0017244 -4.8863 -0 -0.00171909 -0 -5.30835e-06)
(0.00158727 -4.80383 -0 -0.00158239 -0 -4.87864e-06)
(0.00147287 -4.7301 -0 -0.00146834 -0 -4.53136e-06)
(0.00137271 -4.66365 -0 -0.00136848 -0 -4.23382e-06)
(0.00128435 -4.60383 -0 -0.00128038 -0 -3.96528e-06)
(0.00120915 -4.54946 -0 -0.0012054 -0 -3.744e-06)
(0.00114147 -4.49991 -0 -0.00113794 -0 -3.53695e-06)
(0.00108036 -4.45472 -0 -0.001077 -0 -3.3601e-06)
(0.0010269 -4.4133 -0 -0.0010237 -0 -3.19836e-06)
(0.000979024 -4.37518 -0 -0.000975964 -0 -3.0601e-06)
(0.00093552 -4.34008 -0 -0.000932591 -0 -2.92901e-06)
(0.000895927 -4.30765 -0 -0.000893111 -0 -2.81557e-06)
(0.00086005 -4.27764 -0 -0.000857342 -0 -2.70837e-06)
(0.000827829 -4.24978 -0 -0.000825213 -0 -2.61615e-06)
(0.000798004 -4.22388 -0 -0.000795477 -0 -2.5267e-06)
(0.000770671 -4.19978 -0 -0.000768223 -0 -2.44768e-06)
(0.000745753 -4.17728 -0 -0.00074338 -0 -2.37258e-06)
(0.000722556 -4.15627 -0 -0.000720253 -0 -2.30359e-06)
(0.000701183 -4.13661 -0 -0.000698945 -0 -2.23774e-06)
(0.000681574 -4.11819 -0 -0.000679397 -0 -2.17693e-06)
(0.000663281 -4.10091 -0 -0.000661164 -0 -2.11728e-06)
(0.000646293 -4.08468 -0 -0.000644233 -0 -2.06065e-06)
(0.000630319 -4.0694 -0 -0.000628315 -0 -2.00381e-06)
(0.000615421 -4.05504 -0 -0.000613472 -0 -1.94849e-06)
(0.000601547 -4.04149 -0 -0.000599654 -0 -1.89313e-06)
(0.000588391 -4.02873 -0 -0.000586554 -0 -1.8376e-06)
(0.000575817 -4.01667 -0 -0.000574036 -0 -1.78072e-06)
(0.000563776 -4.00529 -0 -0.000562053 -0 -1.72346e-06)
(0.000552131 -3.99452 -0 -0.000550467 -0 -1.66409e-06)
(0.000540694 -3.98436 -0 -0.000539091 -0 -1.60323e-06)
(0.000529252 -3.97474 -0 -0.000527713 -0 -1.53918e-06)
(0.000517543 -3.96565 -0 -0.000516071 -0 -1.47131e-06)
(0.000505353 -3.95706 -0 -0.000503954 -0 -1.39841e-06)
(0.000492219 -3.94895 -0 -0.000490901 -0 -1.31817e-06)
(0.00047794 -3.94129 -0 -0.000476711 -0 -1.22875e-06)
(0.000461727 -3.9341 -0 -0.000460601 -0 -1.1263e-06)
(0.000443428 -3.92734 -0 -0.000442419 -0 -1.00852e-06)
(0.000421982 -3.92101 -0 -0.000421113 -0 -8.69402e-07)
(0.000396877 -3.91513 -0 -0.000396173 -0 -7.04782e-07)
(0.000366886 -3.90968 -0 -0.000366383 -0 -5.02899e-07)
(0.00033125 -3.90471 -0 -0.000331 -0 -2.49532e-07)
(0.000288517 -3.90018 -0 -0.000288608 -0 9.12739e-08)
(0.000237031 -3.89616 -0 -0.000237554 -0 5.22474e-07)
(0.000175273 -3.89264 -0 -0.000176449 -0 1.17652e-06)
(0.000100787 -3.88968 -0 -0.000102639 -0 1.85148e-06)
(1.20954e-05 -3.88727 -0 -1.50879e-05 -0 2.99247e-06)
(-9.54744e-05 -3.88551 -0 9.15718e-05 -0 3.90255e-06)
(-0.000222567 -3.88442 -0 0.000217054 -0 5.51218e-06)
(-0.000377285 -3.88409 -0 0.00037054 -0 6.74505e-06)
(-0.000560117 -3.88456 -0 0.000551317 -0 8.79928e-06)
(-0.00078224 -3.88588 -0 0.00077176 -0 1.04796e-05)
(-0.00104475 -3.8882 -0 0.00103161 -0 1.31373e-05)
(-0.00131497 -3.89092 -0 0.00129586 -0 1.91121e-05)
(-0.00156632 -3.89353 -0 0.00153598 -0 3.03438e-05)
(-0.00182839 -3.89676 -0 0.00179701 -0 3.13871e-05)
(-0.00212473 -3.90031 -0 0.00208651 -0 3.82197e-05)
(-0.00246108 -3.90441 -0 0.0024191 -0 4.1982e-05)
(-0.00282875 -3.90877 -0 0.00277845 -0 5.02958e-05)
(-0.00324498 -3.91372 -0 0.00319232 -0 5.26537e-05)
(-0.00369753 -3.91887 -0 0.00363757 -0 5.99573e-05)
(-0.0042214 -3.92467 -0 0.00416206 -0 5.93382e-05)
(-0.00477553 -3.93054 -0 0.00471131 -0 6.42236e-05)
(-0.00546109 -3.93713 -0 0.00539466 -0 6.64352e-05)
(-0.00614601 -3.94367 -0 0.00607584 -0 7.01682e-05)
(-0.00708376 -3.95097 -0 0.00699876 -0 8.50019e-05)
(-0.00791639 -3.95789 -0 0.0078315 -0 8.48843e-05)
(-0.00931314 -3.96591 -0 0.00919257 -0 0.000120567)
(-0.0102238 -3.97277 -0 0.0101242 -0 9.9613e-05)
(-0.0126957 -3.98171 -0 0.0125321 -0 0.000163582)
(-0.0131105 -3.98809 -0 0.0130285 -0 8.19667e-05)
(-0.0188392 -3.9989 -0 0.0186435 -0 0.000195758)
(-0.0163039 -4.00092 -0 0.0163296 -0 -2.56409e-05)
(-0.0322011 -4.02566 -0 0.0319876 -0 0.000213468)
(-0.0221815 -3.98739 -0 0.0223507 -0 -0.000169228)
(-0.0596818 -4.098 -0 0.0599088 -0 -0.000226971)
(-0.0724871 -3.88905 -0 0.0741894 -0 -0.00170233)