/*--------------------------------*- C++ -*----------------------------------*\
| =========                 |                                                 |
| \\      /  F ield         | OpenFOAM: The Open Source CFD Toolbox           |
|  \\    /   O peration     | Version:  2306                                  |
|   \\  /    A nd           | Website:  www.openfoam.com                      |
|    \\/     M anipulation  |                                                 |
\*---------------------------------------------------------------------------*/
FoamFile
{
    version     2.0;
    format      ascii;
    arch        "LSB;label=32;scalar=64";
    class       volVectorField;
    location    "1700";
    object      U;
}
// * * * * * * * * * * * * * * * * * * * * * * * * * * * * * * * * * * * * * //

dimensions      [0 1 -1 0 0 0 0];

internalField   nonuniform List<vector> 
20540
(
(27.2386 0.00119788 0)
(26.341 0.00196011 0)
(27.2576 0.0038428 0)
(26.36 0.00506335 0)
(27.2826 0.00703848 0)
(26.3849 0.00563727 0)
(27.3149 0.0108981 0)
(26.4171 0.00439991 0)
(27.3563 0.0155576 0)
(26.4584 0.00227123 0)
(27.4086 0.0211794 0)
(26.5107 -0.000626805 0)
(27.4741 0.0279576 0)
(26.5762 -0.00449706 0)
(27.5555 0.0361232 0)
(26.6577 -0.00956672 0)
(27.6559 0.04595 0)
(26.7586 -0.0160704 0)
(27.7793 0.0577613 0)
(26.8826 -0.02429 0)
(27.9301 0.0719362 0)
(27.0345 -0.0345718 0)
(28.1136 0.0889159 0)
(27.22 -0.0473309 0)
(28.3362 0.109209 0)
(27.4458 -0.0630544 0)
(28.6053 0.133395 0)
(27.7197 -0.0823049 0)
(28.9294 0.16212 0)
(28.0513 -0.10572 0)
(29.3185 0.19609 0)
(28.4515 -0.134006 0)
(29.7838 0.236051 0)
(28.9333 -0.167919 0)
(30.3383 0.282744 0)
(29.5118 -0.208225 0)
(30.9961 0.336843 0)
(30.2041 -0.255643 0)
(31.7729 0.398839 0)
(31.0298 -0.310737 0)
(32.6853 0.468881 0)
(32.0105 -0.373764 0)
(33.7505 0.546514 0)
(33.1697 -0.444449 0)
(34.9858 0.630318 0)
(34.5319 -0.521658 0)
(36.4074 0.717387 0)
(36.1214 -0.602964 0)
(38.0295 0.802599 0)
(37.9597 -0.684063 0)
(39.8632 0.877612 0)
(40.0627 -0.758013 0)
(41.9152 0.929576 0)
(42.4348 -0.814157 0)
(44.1876 0.939928 0)
(45.0604 -0.836383 0)
(46.6783 0.884444 0)
(47.888 -0.800593 0)
(49.3771 0.731895 0)
(50.7896 -0.673573 0)
(51.8068 0.474165 0)
(53.1423 -0.441935 0)
(53.3585 0.13693 0)
(54.4527 -0.138031 0)
(53.2565 -0.251022 0)
(54.3759 0.199264 0)
(51.5786 -0.57867 0)
(52.9364 0.498112 0)
(49.1225 -0.822867 0)
(50.5231 0.71921 0)
(46.463 -0.963897 0)
(47.6424 0.838898 0)
(43.9993 -1.01264 0)
(44.8361 0.872922 0)
(41.7401 -0.998024 0)
(42.2224 0.85152 0)
(39.6882 -0.942966 0)
(39.8502 0.796852 0)
(37.8431 -0.865135 0)
(37.7352 0.724021 0)
(36.1999 -0.776908 0)
(35.8748 0.643256 0)
(34.7495 -0.686454 0)
(34.2555 0.561395 0)
(33.4798 -0.598906 0)
(32.8579 0.482811 0)
(32.3766 -0.517267 0)
(31.6601 0.410092 0)
(31.4243 -0.443082 0)
(30.6392 0.344556 0)
(30.6071 -0.376927 0)
(29.7734 0.286661 0)
(29.9096 -0.318762 0)
(29.042 0.236307 0)
(29.3169 -0.268176 0)
(28.4263 0.193052 0)
(28.8155 -0.224554 0)
(27.9096 0.156275 0)
(28.393 -0.18719 0)
(27.4772 0.125272 0)
(28.0381 -0.15536 0)
(27.1162 0.0993297 0)
(27.741 -0.128361 0)
(26.8157 0.0777637 0)
(27.4932 -0.105542 0)
(26.566 0.0599442 0)
(27.2871 -0.0863101 0)
(26.3591 0.0453063 0)
(27.1162 -0.0701404 0)
(26.1882 0.0333532 0)
(26.9752 -0.0565715 0)
(26.0474 0.023655 0)
(26.8591 -0.0452032 0)
(25.9319 0.0158446 0)
(26.7641 -0.0356913 0)
(25.8375 0.00961529 0)
(26.6867 -0.0277412 0)
(25.7607 0.0047167 0)
(26.6241 -0.0211025 0)
(25.6986 0.000939319 0)
(26.5738 -0.0155631 0)
(25.6488 -0.00192174 0)
(26.5338 -0.0109436 0)
(25.6093 -0.00404754 0)
(26.5024 -0.00709345 0)
(25.5783 -0.00530621 0)
(26.478 -0.00388568 0)
(25.5542 -0.00481352 0)
(26.4595 -0.0012141 0)
(25.5359 -0.0018731 0)
(9.20195 -2.16222e-06 0)
(6.29375 0.000348349 0)
(5.6533 4.70155e-05 0)
(5.19317 9.26783e-06 0)
(4.92905 5.30097e-06 0)
(4.69944 1.91083e-06 0)
(4.53321 1.904e-06 0)
(4.38883 1.21329e-06 0)
(4.27044 1.16968e-06 0)
(4.16761 9.90465e-07 0)
(4.07875 9.31463e-07 0)
(4.00037 8.64043e-07 0)
(3.93108 8.16538e-07 0)
(3.86929 7.7768e-07 0)
(3.8137 7.42288e-07 0)
(3.76372 7.10728e-07 0)
(3.71839 6.85906e-07 0)
(3.67711 6.58425e-07 0)
(3.63949 6.34931e-07 0)
(3.60505 6.13905e-07 0)
(3.57339 5.94196e-07 0)
(3.54425 5.74668e-07 0)
(3.51733 5.56906e-07 0)
(3.49245 5.4055e-07 0)
(3.46937 5.25681e-07 0)
(3.44791 5.1076e-07 0)
(3.42795 4.97778e-07 0)
(3.40933 4.8566e-07 0)
(3.39195 4.74157e-07 0)
(3.37569 4.64212e-07 0)
(3.36046 4.55265e-07 0)
(3.34618 4.4718e-07 0)
(3.33277 4.39889e-07 0)
(3.32016 4.34005e-07 0)
(3.3083 4.29747e-07 0)
(3.29713 4.26797e-07 0)
(3.2866 4.24443e-07 0)
(3.27666 4.23464e-07 0)
(3.26729 4.23476e-07 0)
(3.25844 4.24468e-07 0)
(3.25009 4.25771e-07 0)
(3.24221 4.27683e-07 0)
(3.23478 4.29181e-07 0)
(3.22779 4.31106e-07 0)
(3.22122 4.32154e-07 0)
(3.21507 4.31397e-07 0)
(3.20934 4.30258e-07 0)
(3.20403 4.28176e-07 0)
(3.19914 4.23777e-07 0)
(3.19471 4.1643e-07 0)
(3.19075 4.02369e-07 0)
(3.1873 3.88537e-07 0)
(3.18438 3.66668e-07 0)
(3.18206 3.55368e-07 0)
(3.18038 3.52632e-07 0)
(3.17943 3.59727e-07 0)
(3.17927 4.2791e-07 0)
(3.17999 3.99027e-07 0)
(3.18174 4.9625e-07 0)
(3.18458 4.02444e-07 0)
(3.1887 4.18505e-07 0)
(3.19423 -1.68509e-08 0)
(3.20151 -7.08035e-07 0)
(3.20923 1.15229e-07 0)
(3.21638 2.52029e-06 0)
(3.2243 2.44646e-06 0)
(3.23301 3.23848e-06 0)
(3.24273 2.88257e-06 0)
(3.25335 3.32835e-06 0)
(3.26506 2.44413e-06 0)
(3.27774 2.0797e-06 0)
(3.29165 -8.09984e-07 0)
(3.30667 -2.7804e-06 0)
(3.32308 -6.72932e-06 0)
(3.341 -1.0346e-05 0)
(3.36037 -1.26948e-05 0)
(3.38226 -1.83989e-05 0)
(3.40507 -1.81467e-05 0)
(3.43276 -3.17711e-05 0)
(3.4593 -2.98696e-05 0)
(3.49659 -7.03322e-05 0)
(3.52664 -5.71288e-05 0)
(3.58434 -0.000218449 0)
(3.61488 -2.59695e-05 0)
(3.73055 -0.00104992 0)
(3.75803 0.00116019 0)
(4.07905 -0.00507151 0)
(3.7838 -0.0804662 0)
(22.8315 0.00407067 0)
(18.8692 0.00192067 0)
(17.2658 0.000759119 0)
(16.0117 0.000470338 0)
(15.2634 0.000337257 0)
(14.6078 0.000269876 0)
(14.125 0.000222111 0)
(13.7041 0.000192311 0)
(13.3561 0.000168296 0)
(13.0526 0.00015061 0)
(12.7891 0.000136196 0)
(12.5559 0.000124507 0)
(12.3491 0.000114502 0)
(12.1642 0.000106217 0)
(11.9975 9.89849e-05 0)
(11.8473 9.26115e-05 0)
(11.7108 8.72218e-05 0)
(11.5864 8.23537e-05 0)
(11.4727 7.7962e-05 0)
(11.3686 7.41329e-05 0)
(11.2727 7.07003e-05 0)
(11.1844 6.75759e-05 0)
(11.1028 6.47324e-05 0)
(11.0272 6.2159e-05 0)
(10.957 5.98483e-05 0)
(10.8918 5.7705e-05 0)
(10.831 5.57404e-05 0)
(10.7743 5.39537e-05 0)
(10.7214 5.22841e-05 0)
(10.6718 5.0751e-05 0)
(10.6253 4.93435e-05 0)
(10.5817 4.80316e-05 0)
(10.5408 4.68124e-05 0)
(10.5023 4.56676e-05 0)
(10.466 4.46006e-05 0)
(10.4319 4.36114e-05 0)
(10.3997 4.26712e-05 0)
(10.3693 4.17739e-05 0)
(10.3406 4.09151e-05 0)
(10.3135 4.00859e-05 0)
(10.2879 3.92701e-05 0)
(10.2637 3.84521e-05 0)
(10.241 3.7613e-05 0)
(10.2195 3.67346e-05 0)
(10.1993 3.57843e-05 0)
(10.1804 3.47487e-05 0)
(10.1627 3.35602e-05 0)
(10.1463 3.22173e-05 0)
(10.1312 3.06314e-05 0)
(10.1175 2.87701e-05 0)
(10.1051 2.65364e-05 0)
(10.0943 2.3879e-05 0)
(10.085 2.06905e-05 0)
(10.0775 1.68652e-05 0)
(10.0719 1.23029e-05 0)
(10.0684 6.80253e-06 0)
(10.0672 4.32927e-07 0)
(10.0685 -7.60573e-06 0)
(10.0728 -1.68609e-05 0)
(10.0803 -2.8253e-05 0)
(10.0914 -4.17665e-05 0)
(10.1066 -5.88196e-05 0)
(10.1267 -7.91726e-05 0)
(10.1481 -9.72751e-05 0)
(10.1679 -0.000109673 0)
(10.1899 -0.000130182 0)
(10.214 -0.000150617 0)
(10.241 -0.00017577 0)
(10.2703 -0.000201471 0)
(10.3027 -0.000233888 0)
(10.3377 -0.000268879 0)
(10.376 -0.000313667 0)
(10.4172 -0.00036207 0)
(10.4621 -0.00042152 0)
(10.5109 -0.000486765 0)
(10.5633 -0.000561874 0)
(10.6221 -0.00064993 0)
(10.6827 -0.000751435 0)
(10.7559 -0.000879728 0)
(10.8247 -0.00104476 0)
(10.9217 -0.001256 0)
(10.996 -0.00162226 0)
(11.1449 -0.00193959 0)
(11.209 -0.0031883 0)
(11.5033 -0.00331025 0)
(11.5187 -0.00964656 0)
(12.2389 -0.00307792 0)
(11.9723 -0.083473 0)
(28.1347 0.00690289 0)
(26.8783 0.00325641 0)
(25.5884 0.00183872 0)
(24.1935 0.00132726 0)
(23.3094 0.000990342 0)
(22.5048 0.000817939 0)
(21.9021 0.000680549 0)
(21.3702 0.000597047 0)
(20.9262 0.000526433 0)
(20.5364 0.000474729 0)
(20.1958 0.000431847 0)
(19.8928 0.000396972 0)
(19.6228 0.000366819 0)
(19.3803 0.000341766 0)
(19.1609 0.000319738 0)
(18.9624 0.000300238 0)
(18.7816 0.000283671 0)
(18.6161 0.00026866 0)
(18.4646 0.000255033 0)
(18.3255 0.000243125 0)
(18.197 0.000232411 0)
(18.0784 0.000222633 0)
(17.9686 0.000213698 0)
(17.8667 0.00020559 0)
(17.7719 0.000198294 0)
(17.6836 0.000191507 0)
(17.6013 0.000185274 0)
(17.5244 0.000179588 0)
(17.4524 0.000174268 0)
(17.3849 0.000169366 0)
(17.3216 0.000164864 0)
(17.2621 0.000160653 0)
(17.2062 0.000156737 0)
(17.1535 0.000153048 0)
(17.1039 0.000149608 0)
(17.0571 0.000146408 0)
(17.0129 0.000143365 0)
(16.9711 0.000140452 0)
(16.9317 0.000137661 0)
(16.8945 0.000134958 0)
(16.8593 0.000132294 0)
(16.826 0.000129617 0)
(16.7946 0.000126863 0)
(16.765 0.000123977 0)
(16.7372 0.000120846 0)
(16.711 0.000117423 0)
(16.6866 0.000113495 0)
(16.6639 0.000109047 0)
(16.643 0.000103794 0)
(16.6239 9.76176e-05 0)
(16.6067 9.01912e-05 0)
(16.5916 8.13507e-05 0)
(16.5787 7.07218e-05 0)
(16.5682 5.79255e-05 0)
(16.5602 4.26837e-05 0)
(16.5551 2.42004e-05 0)
(16.5532 2.82395e-06 0)
(16.5547 -2.39906e-05 0)
(16.5603 -5.5033e-05 0)
(16.5702 -9.34526e-05 0)
(16.5851 -0.000138306 0)
(16.6054 -0.000195001 0)
(16.6324 -0.000263317 0)
(16.661 -0.000327114 0)
(16.6876 -0.000373834 0)
(16.7172 -0.000440047 0)
(16.7497 -0.000509146 0)
(16.786 -0.000594073 0)
(16.8255 -0.000680882 0)
(16.8689 -0.000789282 0)
(16.9159 -0.00090332 0)
(16.9671 -0.00104794 0)
(17.0223 -0.00119988 0)
(17.0821 -0.00138899 0)
(17.1472 -0.00158803 0)
(17.2164 -0.00183194 0)
(17.2945 -0.00208886 0)
(17.374 -0.00243028 0)
(17.4707 -0.00276857 0)
(17.56 -0.00334987 0)
(17.6884 -0.00378008 0)
(17.7809 -0.0051248 0)
(17.9819 -0.00541417 0)
(18.0422 -0.00944254 0)
(18.45 -0.00885295 0)
(18.3825 -0.0241772 0)
(19.3412 -0.0101032 0)
(19.2182 -0.191522 0)
(30.3355 0.00596415 0)
(30.8544 0.00367316 0)
(30.2761 0.002805 0)
(29.0433 0.00230459 0)
(28.1931 0.00178832 0)
(27.3703 0.00151503 0)
(26.7423 0.00127337 0)
(26.1803 0.00112759 0)
(25.7078 0.000999809 0)
(25.2907 0.000906184 0)
(24.925 0.000827591 0)
(24.5988 0.000763426 0)
(24.3075 0.000707591 0)
(24.0455 0.000661039 0)
(23.8081 0.000619952 0)
(23.5931 0.000583433 0)
(23.3969 0.000552341 0)
(23.2173 0.000524093 0)
(23.0528 0.000498364 0)
(22.9014 0.000475838 0)
(22.7617 0.000455536 0)
(22.6326 0.00043697 0)
(22.5129 0.00041997 0)
(22.4019 0.000404513 0)
(22.2986 0.00039059 0)
(22.2023 0.000377618 0)
(22.1125 0.000365684 0)
(22.0284 0.000354785 0)
(21.9498 0.000344575 0)
(21.8761 0.000335151 0)
(21.8069 0.000326488 0)
(21.7419 0.000318376 0)
(21.6807 0.000310823 0)
(21.6231 0.000303698 0)
(21.5688 0.000297043 0)
(21.5176 0.000290846 0)
(21.4692 0.000284945 0)
(21.4235 0.000279287 0)
(21.3804 0.000273856 0)
(21.3395 0.000268587 0)
(21.301 0.000263386 0)
(21.2645 0.000258152 0)
(21.2301 0.000252756 0)
(21.1977 0.000247092 0)
(21.1671 0.000240935 0)
(21.1385 0.000234192 0)
(21.1117 0.000226447 0)
(21.0868 0.000217661 0)
(21.0639 0.000207275 0)
(21.043 0.000195054 0)
(21.0241 0.000180357 0)
(21.0075 0.000162846 0)
(20.9933 0.000141789 0)
(20.9817 0.000116403 0)
(20.973 8.60983e-05 0)
(20.9674 4.93459e-05 0)
(20.9652 6.51884e-06 0)
(20.9669 -4.67091e-05 0)
(20.973 -0.000108708 0)
(20.9838 -0.000185198 0)
(21.0001 -0.000274587 0)
(21.0224 -0.000386132 0)
(21.052 -0.000519615 0)
(21.0831 -0.000647974 0)
(21.1121 -0.000749968 0)
(21.1444 -0.000880984 0)
(21.18 -0.00102039 0)
(21.2195 -0.00118758 0)
(21.2626 -0.00136183 0)
(21.31 -0.00157343 0)
(21.3611 -0.00179792 0)
(21.4168 -0.00207461 0)
(21.4769 -0.00236589 0)
(21.5414 -0.00272589 0)
(21.6122 -0.00310043 0)
(21.6865 -0.00357143 0)
(21.7711 -0.00404657 0)
(21.856 -0.00471859 0)
(21.9605 -0.00531555 0)
(22.0548 -0.00647729 0)
(22.1939 -0.00711084 0)
(22.2873 -0.0098419 0)
(22.5076 -0.00968182 0)
(22.5521 -0.0179181 0)
(22.9982 -0.0145243 0)
(22.8793 -0.0419994 0)
(23.8574 -0.0305275 0)
(23.826 -0.225232 0)
(31.5516 0.00335017 0)
(33.0536 0.00319914 0)
(33.1531 0.00347838 0)
(32.194 0.00329919 0)
(31.4508 0.00268081 0)
(30.656 0.00233382 0)
(30.0309 0.00198291 0)
(29.459 0.00177022 0)
(28.9723 0.00157657 0)
(28.5394 0.00143386 0)
(28.1577 0.00131268 0)
(27.8161 0.00121326 0)
(27.5101 0.00112631 0)
(27.2344 0.00105358 0)
(26.9841 0.000989231 0)
(26.7572 0.00093189 0)
(26.55 0.000882982 0)
(26.3601 0.000838497 0)
(26.186 0.000797916 0)
(26.0258 0.000762334 0)
(25.8779 0.000730246 0)
(25.7411 0.000700876 0)
(25.6142 0.00067396 0)
(25.4965 0.000649463 0)
(25.387 0.000627386 0)
(25.2849 0.000606807 0)
(25.1896 0.000587863 0)
(25.1004 0.000570549 0)
(25.017 0.000554327 0)
(24.9387 0.00053934 0)
(24.8653 0.000525558 0)
(24.7963 0.000512648 0)
(24.7313 0.000500623 0)
(24.6701 0.000489272 0)
(24.6125 0.000478664 0)
(24.5581 0.000468777 0)
(24.5067 0.000459362 0)
(24.4582 0.000450329 0)
(24.4124 0.000441651 0)
(24.369 0.000433226 0)
(24.328 0.000424905 0)
(24.2893 0.000416524 0)
(24.2528 0.000407879 0)
(24.2183 0.0003988 0)
(24.1858 0.000388922 0)
(24.1554 0.000378096 0)
(24.1269 0.000365662 0)
(24.1005 0.000351541 0)
(24.076 0.00033485 0)
(24.0538 0.000315198 0)
(24.0337 0.000291572 0)
(24.016 0.000263412 0)
(24.0008 0.000229554 0)
(23.9884 0.000188711 0)
(23.979 0.000139905 0)
(23.9729 8.07225e-05 0)
(23.9705 1.13984e-05 0)
(23.9721 -7.43079e-05 0)
(23.9783 -0.000174415 0)
(23.9895 -0.000297746 0)
(24.0065 -0.000442095 0)
(24.0299 -0.000620984 0)
(24.0607 -0.000833756 0)
(24.0932 -0.00104155 0)
(24.1235 -0.00121348 0)
(24.1573 -0.00142429 0)
(24.1945 -0.00165047 0)
(24.2357 -0.0019186 0)
(24.2808 -0.00220058 0)
(24.3301 -0.0025384 0)
(24.3836 -0.0028976 0)
(24.4414 -0.00333527 0)
(24.5041 -0.00379432 0)
(24.5709 -0.00436273 0)
(24.6446 -0.00494646 0)
(24.7212 -0.00569477 0)
(24.8089 -0.00642759 0)
(24.8958 -0.00750421 0)
(25.0039 -0.0083987 0)
(25.0994 -0.010276 0)
(25.243 -0.0110968 0)
(25.3351 -0.0155294 0)
(25.5604 -0.0147032 0)
(25.6005 -0.0278463 0)
(26.0412 -0.0212991 0)
(25.9323 -0.0610815 0)
(26.8188 -0.0545542 0)
(26.8709 -0.258626 0)
(32.3663 -0.000756026 0)
(34.4195 0.00186662 0)
(35.0418 0.00374337 0)
(34.393 0.00423282 0)
(33.8143 0.00364239 0)
(33.0927 0.00328559 0)
(32.5007 0.00283593 0)
(31.9398 0.00255975 0)
(31.4536 0.00229401 0)
(31.0158 0.00209577 0)
(30.6263 0.0019246 0)
(30.2757 0.00178295 0)
(29.9602 0.00165819 0)
(29.675 0.00155326 0)
(29.4154 0.00146007 0)
(29.1795 0.00137677 0)
(28.9638 0.00130552 0)
(28.7659 0.00124061 0)
(28.5842 0.00118129 0)
(28.4169 0.00112919 0)
(28.2622 0.00108215 0)
(28.1191 0.00103907 0)
(27.9864 0.000999543 0)
(27.8632 0.000963535 0)
(27.7485 0.00093106 0)
(27.6415 0.000900783 0)
(27.5416 0.000872889 0)
(27.4481 0.000847377 0)
(27.3606 0.000823474 0)
(27.2786 0.000801375 0)
(27.2016 0.000781042 0)
(27.1291 0.000761992 0)
(27.061 0.000744241 0)
(26.9968 0.000727481 0)
(26.9363 0.000711808 0)
(26.8792 0.000697193 0)
(26.8253 0.000683274 0)
(26.7743 0.000669917 0)
(26.7262 0.000657077 0)
(26.6806 0.000644606 0)
(26.6376 0.000632286 0)
(26.5969 0.000619876 0)
(26.5585 0.000607071 0)
(26.5223 0.000593622 0)
(26.4882 0.000578989 0)
(26.4562 0.000562943 0)
(26.4262 0.000544527 0)
(26.3984 0.000523596 0)
(26.3727 0.000498866 0)
(26.3492 0.000469742 0)
(26.3281 0.000434747 0)
(26.3094 0.000393028 0)
(26.2933 0.000342887 0)
(26.2802 0.000282385 0)
(26.2701 0.000210054 0)
(26.2634 0.000122367 0)
(26.2606 1.92761e-05 0)
(26.2619 -0.000107767 0)
(26.2681 -0.000256273 0)
(26.2793 -0.000439112 0)
(26.2966 -0.00065334 0)
(26.3204 -0.000917623 0)
(26.352 -0.00123052 0)
(26.3852 -0.00153891 0)
(26.4162 -0.00180043 0)
(26.4508 -0.00211234 0)
(26.4889 -0.00244827 0)
(26.5311 -0.00284375 0)
(26.5773 -0.00326152 0)
(26.6277 -0.0037581 0)
(26.6824 -0.00428556 0)
(26.7413 -0.00492481 0)
(26.8054 -0.00559155 0)
(26.8733 -0.00642035 0)
(26.9483 -0.00726063 0)
(27.0258 -0.00835449 0)
(27.115 -0.00940039 0)
(27.2025 -0.0109785 0)
(27.3118 -0.0122256 0)
(27.4073 -0.0149856 0)
(27.5515 -0.0160087 0)
(27.6432 -0.0224772 0)
(27.8645 -0.0208853 0)
(27.9109 -0.0395059 0)
(28.321 -0.0299319 0)
(28.2568 -0.0821388 0)
(29.0132 -0.081741 0)
(29.1322 -0.292653 0)
(32.9815 -0.00647136 0)
(35.3618 -0.000347542 0)
(36.3496 0.00351119 0)
(35.9835 0.0049884 0)
(35.5949 0.0045857 0)
(34.9823 0.00432238 0)
(34.4525 0.00381065 0)
(33.9249 0.00349132 0)
(33.4558 0.00315698 0)
(33.0254 0.00290259 0)
(32.6375 0.0026773 0)
(32.2852 0.00248833 0)
(31.9659 0.00232009 0)
(31.6757 0.00217735 0)
(31.4106 0.00204987 0)
(31.1689 0.00193536 0)
(30.9472 0.00183702 0)
(30.7434 0.00174718 0)
(30.5561 0.00166488 0)
(30.3833 0.0015924 0)
(30.2234 0.00152688 0)
(30.0753 0.00146676 0)
(29.9378 0.00141157 0)
(29.81 0.00136121 0)
(29.691 0.00131574 0)
(29.5799 0.00127334 0)
(29.4762 0.00123423 0)
(29.3791 0.00119844 0)
(29.2882 0.00116489 0)
(29.2029 0.00113386 0)
(29.1228 0.00110528 0)
(29.0474 0.0010785 0)
(28.9765 0.00105354 0)
(28.9097 0.00102996 0)
(28.8467 0.00100791 0)
(28.7873 0.00098732 0)
(28.7311 0.000967716 0)
(28.6781 0.000948901 0)
(28.6279 0.000930808 0)
(28.5805 0.000913229 0)
(28.5357 0.000895861 0)
(28.4933 0.000878366 0)
(28.4532 0.000860314 0)
(28.4154 0.000841359 0)
(28.3799 0.000820738 0)
(28.3465 0.000798119 0)
(28.3152 0.000772189 0)
(28.2862 0.000742705 0)
(28.2593 0.000707888 0)
(28.2348 0.000666883 0)
(28.2126 0.000617648 0)
(28.193 0.000558945 0)
(28.1761 0.000488434 0)
(28.1622 0.000403336 0)
(28.1514 0.000301613 0)
(28.1442 0.000178323 0)
(28.1408 3.30416e-05 0)
(28.1418 -0.000145693 0)
(28.1476 -0.000354584 0)
(28.1587 -0.000611479 0)
(28.176 -0.000912911 0)
(28.1999 -0.0012835 0)
(28.2317 -0.00172074 0)
(28.2652 -0.0021539 0)
(28.2965 -0.00252685 0)
(28.3314 -0.00296421 0)
(28.37 -0.00343584 0)
(28.4126 -0.00398861 0)
(28.4592 -0.00457369 0)
(28.51 -0.0052658 0)
(28.5653 -0.00599898 0)
(28.6246 -0.00688542 0)
(28.6892 -0.00780476 0)
(28.7573 -0.00895092 0)
(28.8329 -0.0101005 0)
(28.9104 -0.011614 0)
(28.9999 -0.0130352 0)
(29.0871 -0.0152172 0)
(29.1962 -0.016882 0)
(29.2912 -0.0206863 0)
(29.4336 -0.0219677 0)
(29.526 -0.0307195 0)
(29.7382 -0.0284981 0)
(29.7966 -0.052748 0)
(30.1652 -0.0410376 0)
(30.1551 -0.104716 0)
(30.7896 -0.111946 0)
(30.9343 -0.329302 0)
(33.484 -0.0140091 0)
(36.0695 -0.00351152 0)
(37.3052 0.00272871 0)
(37.1668 0.00548078 0)
(36.9612 0.00542007 0)
(36.4758 0.00537674 0)
(36.0307 0.0048638 0)
(35.5574 0.00454208 0)
(35.1225 0.00415657 0)
(34.7132 0.00385506 0)
(34.3377 0.00357787 0)
(33.9922 0.00334061 0)
(33.6758 0.00312587 0)
(33.3861 0.00294136 0)
(33.1199 0.00277515 0)
(32.8759 0.00262478 0)
(32.6514 0.0024948 0)
(32.4443 0.00237556 0)
(32.2534 0.00226597 0)
(32.0769 0.00216909 0)
(31.9134 0.00208128 0)
(31.7616 0.00200056 0)
(31.6206 0.00192632 0)
(31.4893 0.00185847 0)
(31.367 0.0017971 0)
(31.2527 0.00173982 0)
(31.1458 0.00168694 0)
(31.0458 0.00163847 0)
(30.952 0.00159303 0)
(30.864 0.00155096 0)
(30.7813 0.00151218 0)
(30.7035 0.00147583 0)
(30.6303 0.00144192 0)
(30.5612 0.00140989 0)
(30.4961 0.00137991 0)
(30.4346 0.0013519 0)
(30.3766 0.00132522 0)
(30.3217 0.00129961 0)
(30.2698 0.00127498 0)
(30.2207 0.00125105 0)
(30.1743 0.00122739 0)
(30.1304 0.00120357 0)
(30.0889 0.00117899 0)
(30.0498 0.00115319 0)
(30.0129 0.00112513 0)
(29.9783 0.00109435 0)
(29.9459 0.00105912 0)
(29.9157 0.00101904 0)
(29.8878 0.000971747 0)
(29.8623 0.000916052 0)
(29.8392 0.000849231 0)
(29.8187 0.000769562 0)
(29.801 0.000673928 0)
(29.7863 0.000558501 0)
(29.7749 0.000420591 0)
(29.767 0.000253476 0)
(29.7631 5.63005e-05 0)
(29.7636 -0.000186055 0)
(29.769 -0.000469199 0)
(29.7798 -0.000816981 0)
(29.7968 -0.0012253 0)
(29.8204 -0.00172632 0)
(29.8522 -0.00231595 0)
(29.8856 -0.00290144 0)
(29.9169 -0.0034107 0)
(29.9517 -0.00400133 0)
(29.9903 -0.00463814 0)
(30.0329 -0.0053822 0)
(30.0796 -0.00617045 0)
(30.1303 -0.00709982 0)
(30.1856 -0.00808148 0)
(30.2447 -0.00926652 0)
(30.3092 -0.0104902 0)
(30.3772 -0.0120174 0)
(30.4524 -0.0135373 0)
(30.5295 -0.0155523 0)
(30.6184 -0.0174204 0)
(30.7049 -0.0203169 0)
(30.8128 -0.0224829 0)
(30.9069 -0.0274883 0)
(31.0461 -0.0291442 0)
(31.1397 -0.0403583 0)
(31.3404 -0.0378537 0)
(31.4122 -0.0675906 0)
(31.7386 -0.0550588 0)
(31.7764 -0.129125 0)
(32.3128 -0.144741 0)
(32.4493 -0.369461 0)
(33.9176 -0.0236705 0)
(36.6367 -0.00773103 0)
(38.0404 0.00134393 0)
(38.0744 0.00565499 0)
(38.0258 0.00607107 0)
(37.6664 0.00637823 0)
(37.3169 0.00593794 0)
(36.9132 0.00567225 0)
(36.5278 0.00526828 0)
(36.1532 0.00494121 0)
(35.8016 0.00462356 0)
(35.4725 0.00434388 0)
(35.167 0.00408457 0)
(34.8843 0.00385777 0)
(34.6223 0.00365077 0)
(34.3806 0.00346159 0)
(34.1568 0.00329652 0)
(33.9496 0.00314408 0)
(33.7577 0.00300334 0)
(33.5798 0.00287824 0)
(33.4145 0.00276441 0)
(33.2608 0.00265942 0)
(33.1176 0.00256266 0)
(32.9841 0.00247399 0)
(32.8595 0.00239359 0)
(32.7429 0.00231846 0)
(32.6339 0.00224898 0)
(32.5316 0.00218518 0)
(32.4357 0.00212534 0)
(32.3456 0.00206986 0)
(32.2609 0.00201866 0)
(32.1811 0.00197063 0)
(32.106 0.00192579 0)
(32.0351 0.00188342 0)
(31.9683 0.00184373 0)
(31.9052 0.00180661 0)
(31.8455 0.00177124 0)
(31.7891 0.0017373 0)
(31.7357 0.00170463 0)
(31.6852 0.00167287 0)
(31.6374 0.00164148 0)
(31.5923 0.00160987 0)
(31.5496 0.00157726 0)
(31.5092 0.00154304 0)
(31.4713 0.00150585 0)
(31.4356 0.00146504 0)
(31.4021 0.0014184 0)
(31.371 0.00136533 0)
(31.3422 0.00130276 0)
(31.3157 0.00122907 0)
(31.2918 0.00114075 0)
(31.2705 0.00103544 0)
(31.2521 0.000909122 0)
(31.2366 0.000756645 0)
(31.2245 0.000574614 0)
(31.216 0.000354057 0)
(31.2116 9.36743e-05 0)
(31.2115 -0.000226193 0)
(31.2164 -0.000599735 0)
(31.2266 -0.00105809 0)
(31.2432 -0.00159618 0)
(31.2664 -0.00225556 0)
(31.2977 -0.00303025 0)
(31.3308 -0.00380013 0)
(31.3618 -0.00447436 0)
(31.3963 -0.00525061 0)
(31.4346 -0.00608699 0)
(31.4769 -0.00706146 0)
(31.5232 -0.00809472 0)
(31.5736 -0.00930895 0)
(31.6284 -0.0105892 0)
(31.6871 -0.0121315 0)
(31.751 -0.0137204 0)
(31.8183 -0.0157004 0)
(31.8927 -0.0176634 0)
(31.969 -0.0202715 0)
(32.0566 -0.0226732 0)
(32.1421 -0.0264066 0)
(32.248 -0.0291786 0)
(32.3411 -0.0355481 0)
(32.4762 -0.0377522 0)
(32.5708 -0.0515594 0)
(32.7595 -0.0492809 0)
(32.8432 -0.0842123 0)
(33.1325 -0.0723686 0)
(33.205 -0.155929 0)
(33.6674 -0.179998 0)
(33.7812 -0.412543 0)
(34.3074 -0.0358484 0)
(37.1144 -0.0131527 0)
(38.6326 -0.000709764 0)
(38.7937 0.0054689 0)
(38.8706 0.00648339 0)
(38.6233 0.00726541 0)
(38.368 0.00697143 0)
(38.0405 0.00682945 0)
(37.7149 0.00645138 0)
(37.3861 0.00613257 0)
(37.0693 0.00579675 0)
(36.7663 0.00548958 0)
(36.4802 0.00519487 0)
(36.2118 0.00493093 0)
(35.9603 0.0046854 0)
(35.7261 0.0044578 0)
(35.5076 0.00425661 0)
(35.3041 0.004069 0)
(35.1145 0.0038946 0)
(34.938 0.00373845 0)
(34.7733 0.00359548 0)
(34.6197 0.003463 0)
(34.4762 0.00334054 0)
(34.3421 0.0032279 0)
(34.2166 0.0031254 0)
(34.099 0.0030294 0)
(33.9888 0.00294042 0)
(33.8853 0.00285851 0)
(33.7881 0.00278162 0)
(33.6967 0.00271021 0)
(33.6106 0.00264418 0)
(33.5295 0.00258217 0)
(33.4531 0.0025242 0)
(33.381 0.0024694 0)
(33.3128 0.00241803 0)
(33.2485 0.0023699 0)
(33.1876 0.00232402 0)
(33.13 0.00227998 0)
(33.0755 0.00223757 0)
(33.0239 0.00219632 0)
(32.975 0.00215553 0)
(32.9288 0.00211445 0)
(32.8851 0.00207207 0)
(32.8439 0.0020276 0)
(32.805 0.00197931 0)
(32.7684 0.00192629 0)
(32.7341 0.00186579 0)
(32.7021 0.00179693 0)
(32.6725 0.0017158 0)
(32.6453 0.00162026 0)
(32.6206 0.00150585 0)
(32.5987 0.00136944 0)
(32.5795 0.00120591 0)
(32.5634 0.0010085 0)
(32.5507 0.000773085 0)
(32.5416 0.000487827 0)
(32.5365 0.000151001 0)
(32.5358 -0.000262582 0)
(32.5401 -0.000745347 0)
(32.5497 -0.00133735 0)
(32.5657 -0.00203182 0)
(32.5883 -0.00288224 0)
(32.619 -0.00387983 0)
(32.6514 -0.00487144 0)
(32.6819 -0.00574421 0)
(32.7159 -0.00674372 0)
(32.7537 -0.00781972 0)
(32.7954 -0.00906993 0)
(32.8411 -0.010397 0)
(32.8908 -0.0119512 0)
(32.9448 -0.0135892 0)
(33.0027 -0.0155558 0)
(33.0656 -0.0175818 0)
(33.132 -0.0200966 0)
(33.2051 -0.0225893 0)
(33.2803 -0.0258937 0)
(33.3661 -0.0289324 0)
(33.4504 -0.033639 0)
(33.5537 -0.0371512 0)
(33.6456 -0.0450522 0)
(33.7761 -0.0480389 0)
(33.8713 -0.064542 0)
(34.0485 -0.063125 0)
(34.1408 -0.102903 0)
(34.4002 -0.0933363 0)
(34.4936 -0.185401 0)
(34.8998 -0.218308 0)
(34.9901 -0.456235 0)
(34.6696 -0.0510286 0)
(37.5324 -0.0199675 0)
(39.1285 -0.00351904 0)
(39.3824 0.00488072 0)
(39.5558 0.00661374 0)
(39.4015 0.00799088 0)
(39.2305 0.00790892 0)
(38.9773 0.00795818 0)
(38.7147 0.00765456 0)
(38.4383 0.00738577 0)
(38.1642 0.00706315 0)
(37.8957 0.00675262 0)
(37.6371 0.00644014 0)
(37.3904 0.00615163 0)
(37.1561 0.00587605 0)
(36.9353 0.00561558 0)
(36.7273 0.00538144 0)
(36.5319 0.00515996 0)
(36.3487 0.00495213 0)
(36.177 0.00476423 0)
(36.0159 0.00459065 0)
(35.865 0.00442871 0)
(35.7235 0.00427841 0)
(35.5908 0.00413942 0)
(35.4662 0.0040123 0)
(35.3491 0.00389286 0)
(35.2391 0.00378174 0)
(35.1357 0.00367915 0)
(35.0383 0.00358271 0)
(34.9466 0.0034929 0)
(34.8601 0.00340965 0)
(34.7785 0.00333133 0)
(34.7015 0.00325799 0)
(34.6287 0.0031886 0)
(34.5599 0.00312348 0)
(34.4948 0.00306231 0)
(34.4333 0.00300396 0)
(34.375 0.00294794 0)
(34.3197 0.00289394 0)
(34.2674 0.00284136 0)
(34.2179 0.00278933 0)
(34.171 0.00273691 0)
(34.1266 0.00268281 0)
(34.0846 0.00262603 0)
(34.0451 0.0025644 0)
(34.0078 0.00249666 0)
(33.9729 0.00241951 0)
(33.9403 0.00233163 0)
(33.9101 0.00222814 0)
(33.8823 0.00210627 0)
(33.857 0.00196045 0)
(33.8345 0.00178657 0)
(33.8147 0.00157824 0)
(33.7981 0.00132673 0)
(33.7848 0.00102714 0)
(33.775 0.000664052 0)
(33.7694 0.000235322 0)
(33.7681 -0.000290816 0)
(33.7718 -0.000904704 0)
(33.7808 -0.0016573 0)
(33.7961 -0.00253907 0)
(33.8178 -0.00361865 0)
(33.8478 -0.0048831 0)
(33.8793 -0.00613987 0)
(33.9092 -0.00725008 0)
(33.9425 -0.00851685 0)
(33.9796 -0.00987956 0)
(34.0204 -0.0114581 0)
(34.0653 -0.0131362 0)
(34.114 -0.0150937 0)
(34.167 -0.0171591 0)
(34.2239 -0.019627 0)
(34.2855 -0.0221747 0)
(34.3507 -0.0253181 0)
(34.4222 -0.0284438 0)
(34.4961 -0.0325604 0)
(34.5798 -0.0363624 0)
(34.6626 -0.0421906 0)
(34.7629 -0.046612 0)
(34.8535 -0.0562172 0)
(34.9789 -0.0602846 0)
(35.0743 -0.0795702 0)
(35.2408 -0.0797456 0)
(35.3383 -0.124003 0)
(35.574 -0.11838 0)
(35.6774 -0.217522 0)
(36.0369 -0.260318 0)
(36.1073 -0.498484 0)
(35.0155 -0.0697933 0)
(37.9096 -0.0284122 0)
(39.5576 -0.00719368 0)
(39.8789 0.00384173 0)
(40.1249 0.00642319 0)
(40.0443 0.00851882 0)
(39.9441 0.00870633 0)
(39.7573 0.00900928 0)
(39.5549 0.00882561 0)
(39.3318 0.00864992 0)
(39.1041 0.00837596 0)
(38.8753 0.00809239 0)
(38.6502 0.00778695 0)
(38.4315 0.00749376 0)
(38.2206 0.00720356 0)
(38.0191 0.00692221 0)
(37.827 0.00666393 0)
(37.6447 0.00641478 0)
(37.4722 0.00617792 0)
(37.3093 0.00596115 0)
(37.1554 0.00575843 0)
(37.0104 0.00556752 0)
(36.8737 0.00538929 0)
(36.7448 0.00522329 0)
(36.6234 0.00507041 0)
(36.5089 0.00492609 0)
(36.401 0.00479114 0)
(36.2991 0.00466603 0)
(36.203 0.00454817 0)
(36.1123 0.00443799 0)
(36.0266 0.00433552 0)
(35.9455 0.00423888 0)
(35.8689 0.00414815 0)
(35.7963 0.00406221 0)
(35.7277 0.00398136 0)
(35.6626 0.0039052 0)
(35.601 0.00383252 0)
(35.5426 0.00376264 0)
(35.4872 0.00369518 0)
(35.4347 0.0036294 0)
(35.385 0.00356423 0)
(35.3378 0.00349848 0)
(35.2931 0.0034306 0)
(35.2509 0.00335927 0)
(35.211 0.00328185 0)
(35.1734 0.00319663 0)
(35.1382 0.0030997 0)
(35.1052 0.00298913 0)
(35.0746 0.00285897 0)
(35.0464 0.00270564 0)
(35.0208 0.00252231 0)
(34.9978 0.00230364 0)
(34.9777 0.00204173 0)
(34.9606 0.0017255 0)
(34.9468 0.00134928 0)
(34.9366 0.000893098 0)
(34.9305 0.000354473 0)
(34.9286 -0.000306003 0)
(34.9317 -0.00107644 0)
(34.94 -0.00202101 0)
(34.9546 -0.00312592 0)
(34.9755 -0.00447898 0)
(35.0046 -0.00606128 0)
(35.0352 -0.00763364 0)
(35.0643 -0.00902654 0)
(35.0968 -0.0106119 0)
(35.133 -0.0123162 0)
(35.1729 -0.0142843 0)
(35.2167 -0.0163801 0)
(35.2643 -0.0188148 0)
(35.3162 -0.0213891 0)
(35.3717 -0.0244474 0)
(35.432 -0.0276159 0)
(35.4957 -0.0314949 0)
(35.5654 -0.0353759 0)
(35.6377 -0.0404355 0)
(35.7191 -0.0451543 0)
(35.8001 -0.0522651 0)
(35.8972 -0.0578087 0)
(35.9862 -0.0692921 0)
(36.1064 -0.0748134 0)
(36.2015 -0.0969471 0)
(36.3581 -0.0995455 0)
(36.458 -0.147835 0)
(36.6737 -0.147973 0)
(36.7802 -0.252097 0)
(37.0976 -0.306203 0)
(37.1498 -0.537624 0)
(35.3539 -0.0928277 0)
(38.259 -0.0387705 0)
(39.9391 -0.0118686 0)
(40.3088 0.00229283 0)
(40.6087 0.00587095 0)
(40.5852 0.00881965 0)
(40.5418 0.00932986 0)
(40.4109 0.00994397 0)
(40.2618 0.00991945 0)
(40.0884 0.0098759 0)
(39.9062 0.00968433 0)
(39.7185 0.00945917 0)
(39.5299 0.00918879 0)
(39.3433 0.00891553 0)
(39.1603 0.00863168 0)
(38.9829 0.0083474 0)
(38.8114 0.00807968 0)
(38.647 0.00781466 0)
(38.4897 0.00755841 0)
(38.3396 0.00732039 0)
(38.1968 0.00709418 0)
(38.0612 0.00687853 0)
(37.9324 0.00667552 0)
(37.8104 0.0064847 0)
(37.6948 0.00630739 0)
(37.5852 0.00613884 0)
(37.4815 0.00598019 0)
(37.3833 0.00583231 0)
(37.2903 0.0056925 0)
(37.2021 0.00556116 0)
(37.1186 0.00543845 0)
(37.0395 0.0053223 0)
(36.9645 0.00521288 0)
(36.8934 0.00510905 0)
(36.8259 0.00501106 0)
(36.7618 0.00491839 0)
(36.7011 0.00482987 0)
(36.6434 0.00474457 0)
(36.5886 0.00466204 0)
(36.5366 0.00458139 0)
(36.4872 0.00450132 0)
(36.4404 0.00442037 0)
(36.396 0.00433666 0)
(36.3539 0.00424853 0)
(36.3142 0.00415279 0)
(36.2767 0.00404719 0)
(36.2415 0.00392708 0)
(36.2086 0.00378976 0)
(36.178 0.00362818 0)
(36.1497 0.00343764 0)
(36.124 0.00320992 0)
(36.1009 0.00293808 0)
(36.0806 0.00261259 0)
(36.0633 0.00221949 0)
(36.0493 0.00175225 0)
(36.0388 0.00118538 0)
(36.0323 0.000516041 0)
(36.03 -0.000303816 0)
(36.0326 -0.00126032 0)
(36.0403 -0.00243315 0)
(36.0542 -0.00380273 0)
(36.0743 -0.00548067 0)
(36.1024 -0.00743993 0)
(36.132 -0.00938639 0)
(36.1603 -0.0111148 0)
(36.1919 -0.0130785 0)
(36.2271 -0.0151888 0)
(36.2659 -0.0176176 0)