/*--------------------------------*- C++ -*----------------------------------*\
| =========                 |                                                 |
| \\      /  F ield         | OpenFOAM: The Open Source CFD Toolbox           |
|  \\    /   O peration     | Version:  2306                                  |
|   \\  /    A nd           | Website:  www.openfoam.com                      |
|    \\/     M anipulation  |                                                 |
\*---------------------------------------------------------------------------*/
FoamFile
{
    version     2.0;
    format      ascii;
    arch        "LSB;label=32;scalar=64";
    class       volVectorField;
    location    "1700";
    object      wallShearStress;
}
// * * * * * * * * * * * * * * * * * * * * * * * * * * * * * * * * * * * * * //

dimensions      [0 2 -2 0 0 0 0];

internalField   uniform (0 0 0);

boundaryField
{
    inlet
    {
        type            calculated;
        value           uniform (0 0 0);
    }
    outlet
    {
        type            calculated;
        value           uniform (0 0 0);
    }
    lowerWallStartup
    {
        type            symmetryPlane;
    }
    upperWallStartup
    {
        type            symmetryPlane;
    }
    upperWall
    {
        type            calculated;
        value           nonuniform List<vector> 
218
(
(-10.6061 0.00181325 0)
(-7.34473 0.000818233 0)
(-6.62026 0.00017273 0)
(-6.09052 8.6419e-05 0)
(-5.78594 6.02018e-05 0)
(-5.51935 4.66429e-05 0)
(-5.32637 3.87365e-05 0)
(-5.15811 3.33945e-05 0)
(-5.02029 2.94427e-05 0)
(-4.90011 2.64317e-05 0)
(-4.79635 2.40084e-05 0)
(-4.70482 2.20061e-05 0)
(-4.62389 2.03677e-05 0)
(-4.55151 1.89188e-05 0)
(-4.48671 1.77118e-05 0)
(-4.42815 1.66277e-05 0)
(-4.37513 1.57009e-05 0)
(-4.32692 1.4849e-05 0)
(-4.28287 1.41268e-05 0)
(-4.24257 1.34413e-05 0)
(-4.20554 1.28519e-05 0)
(-4.17144 1.23128e-05 0)
(-4.13994 1.18151e-05 0)
(-4.11081 1.13805e-05 0)
(-4.0838 1.09444e-05 0)
(-4.0587 1.06173e-05 0)
(-4.03532 1.02204e-05 0)
(-4.01354 9.97927e-06 0)
(-3.99318 9.60008e-06 0)
(-3.97415 9.4434e-06 0)
(-3.95631 9.07015e-06 0)
(-3.9396 8.99359e-06 0)
(-3.92388 8.61724e-06 0)
(-3.90913 8.62261e-06 0)
(-3.8952 8.22818e-06 0)
(-3.88211 8.31308e-06 0)
(-3.86973 7.89809e-06 0)
(-3.85806 8.06645e-06 0)
(-3.84699 7.62653e-06 0)
(-3.83654 7.88061e-06 0)
(-3.82658 7.41702e-06 0)
(-3.81716 7.76184e-06 0)
(-3.80814 7.27818e-06 0)
(-3.79958 7.72668e-06 0)
(-3.79131 7.24163e-06 0)
(-3.78343 7.80057e-06 0)
(-3.77574 7.34326e-06 0)
(-3.76835 8.03333e-06 0)
(-3.76105 7.65103e-06 0)
(-3.75393 8.49513e-06 0)
(-3.7468 8.25133e-06 0)
(-3.73973 9.2795e-06 0)
(-3.73251 9.25224e-06 0)
(-3.72522 1.05059e-05 0)
(-3.71765 1.07888e-05 0)
(-3.70987 1.23138e-05 0)
(-3.70168 1.3029e-05 0)
(-3.69313 1.47687e-05 0)
(-3.68402 1.60734e-05 0)
(-3.67445 1.79773e-05 0)
(-3.66416 1.98806e-05 0)
(-3.65336 2.20657e-05 0)
(-3.64169 2.45003e-05 0)
(-3.63145 2.71207e-05 0)
(-3.62312 2.94482e-05 0)
(-3.61483 3.16595e-05 0)
(-3.6064 3.4192e-05 0)
(-3.59796 3.60597e-05 0)
(-3.58949 3.81878e-05 0)
(-3.58106 3.9953e-05 0)
(-3.57266 4.21826e-05 0)
(-3.56435 4.38409e-05 0)
(-3.5561 4.61019e-05 0)
(-3.54801 4.77487e-05 0)
(-3.54 4.98531e-05 0)
(-3.5322 5.17001e-05 0)
(-3.52449 5.35396e-05 0)
(-3.51704 5.54813e-05 0)
(-3.50965 5.72092e-05 0)
(-3.50263 5.88754e-05 0)
(-3.49554 6.0981e-05 0)
(-3.48908 6.17678e-05 0)
(-3.48216 6.49404e-05 0)
(-3.47651 6.41753e-05 0)
(-3.46939 6.95545e-05 0)
(-3.46523 6.55043e-05 0)
(-3.45672 7.47461e-05 0)
(-3.45598 8.81888e-05 0)
(-3.44762 8.58254e-05 -1.76879e-20)
(-3.4407 7.14855e-05 0)
(-3.43548 7.30833e-05 1.74899e-20)
(-3.4299 7.87308e-05 -1.73914e-20)
(-3.42407 7.83101e-05 0)
(-3.41825 7.73353e-05 -1.71877e-20)
(-3.41241 7.70617e-05 0)
(-3.40655 7.71562e-05 0)
(-3.40063 7.69066e-05 0)
(-3.39469 7.72063e-05 0)
(-3.38871 7.6901e-05 1.66448e-20)
(-3.38269 7.78982e-05 0)
(-3.37664 7.65997e-05 -1.64145e-20)
(-3.37054 7.82725e-05 0)
(-3.3644 7.65417e-05 -1.61771e-20)
(-3.35823 7.81971e-05 1.60554e-20)
(-3.352 7.62674e-05 0)
(-3.34575 7.8017e-05 1.58071e-20)
(-3.33944 7.64082e-05 0)
(-3.33313 7.74548e-05 -1.55517e-20)
(-3.32677 7.64949e-05 0)
(-3.32041 7.75063e-05 0)
(-3.31402 7.65147e-05 0)
(-3.30762 7.75285e-05 0)
(-3.30119 7.63831e-05 0)
(-3.29475 7.72122e-05 0)
(-3.28826 7.55994e-05 0)
(-3.28177 7.69709e-05 1.44667e-20)
(-3.27524 7.3881e-05 -1.43246e-20)
(-3.26873 7.5952e-05 1.41807e-20)
(-3.26218 7.26672e-05 -1.40359e-20)
(-3.25566 7.50061e-05 0)
(-3.24911 7.15725e-05 -1.37421e-20)
(-3.2426 7.41049e-05 0)
(-3.23605 7.05236e-05 -1.34437e-20)
(-3.22954 7.2952e-05 0)
(-3.223 6.95517e-05 0)
(-3.2165 7.09558e-05 -1.29875e-20)
(-3.20997 6.7958e-05 0)
(-3.2035 6.9528e-05 -1.26785e-20)
(-3.197 6.65429e-05 0)
(-3.19058 6.81416e-05 -1.23661e-20)
(-3.18414 6.54381e-05 0)
(-3.17776 6.66901e-05 -1.20507e-20)
(-3.17137 6.3821e-05 0)
(-3.16504 6.55335e-05 0)
(-3.1587 6.14928e-05 -1.15732e-20)
(-3.15243 6.39703e-05 0)
(-3.14616 5.98901e-05 -1.12521e-20)
(-3.13998 6.27032e-05 0)
(-3.13381 5.85749e-05 -1.09296e-20)
(-3.12772 6.14748e-05 0)
(-3.12164 5.74022e-05 -1.06065e-20)
(-3.11566 6.0201e-05 0)
(-3.10967 5.65982e-05 0)
(-3.1038 5.83413e-05 -1.01209e-20)
(-3.09792 5.53277e-05 0)
(-3.09217 5.67803e-05 -9.79775e-21)
(-3.08639 5.35974e-05 0)
(-3.08076 5.48637e-05 -9.47534e-21)
(-3.07509 5.1576e-05 0)
(-3.06959 5.27344e-05 0)
(-3.06403 4.91231e-05 -8.99408e-21)
(-3.05865 5.10702e-05 -8.83405e-21)
(-3.05321 4.60232e-05 0)
(-3.04797 4.8878e-05 -8.5159e-21)
(-3.04266 4.36505e-05 0)
(-3.03757 4.68161e-05 -8.20001e-21)
(-3.0324 4.14605e-05 0)
(-3.02746 4.4747e-05 -7.8868e-21)
(-3.02242 3.93531e-05 0)
(-3.01764 4.2508e-05 -7.57653e-21)
(-3.01273 3.75028e-05 -7.42288e-21)
(-3.00811 3.99527e-05 0)
(-3.00335 3.55736e-05 -7.1176e-21)
(-2.9989 3.80314e-05 0)
(-2.99429 3.37939e-05 -6.81618e-21)
(-2.99002 3.59481e-05 0)
(-2.98554 3.15045e-05 0)
(-2.98143 3.41321e-05 -6.37159e-21)
(-2.97707 2.83616e-05 6.22594e-21)
(-2.97313 3.20108e-05 -6.08079e-21)
(-2.96892 2.60787e-05 5.93746e-21)
(-2.96516 3.00734e-05 0)
(-2.96109 2.43523e-05 0)
(-2.95753 2.80579e-05 0)
(-2.95357 2.23154e-05 5.37527e-21)
(-2.95021 2.57731e-05 0)
(-2.94635 2.06482e-05 0)
(-2.94321 2.2888e-05 0)
(-2.93941 1.87656e-05 0)
(-2.93654 2.01201e-05 0)
(-2.93271 1.75691e-05 0)
(-2.93029 1.71509e-05 0)
(-2.92611 1.62604e-05 -4.31472e-21)
(-2.92475 1.6145e-05 4.18677e-21)
(-2.91908 3.28166e-06 0)
(-2.91819 2.4323e-05 0)
(-2.91632 2.23724e-05 -1.01586e-21)
(-2.91317 2.36119e-05 8.58165e-22)
(-2.90991 2.0649e-05 1.44169e-21)
(-2.90637 2.20274e-05 1.20291e-21)
(-2.90237 2.18161e-05 1.99109e-21)
(-2.89798 2.24886e-05 1.63139e-21)
(-2.89314 2.36739e-05 1.32023e-21)
(-2.88795 2.50798e-05 0)
(-2.88235 2.66022e-05 1.64226e-21)
(-2.87651 3.00056e-05 0)
(-2.87037 3.26526e-05 -1.82605e-21)
(-2.86422 3.79432e-05 0)
(-2.85804 4.21293e-05 0)
(-2.85227 4.84652e-05 0)
(-2.84687 5.50785e-05 0)
(-2.84243 6.29504e-05 0)
(-2.83889 6.90215e-05 0)
(-2.8368 7.51358e-05 -3.42611e-21)
(-2.83613 7.77089e-05 0)
(-2.83692 7.76087e-05 8.55444e-21)
(-2.83962 7.00303e-05 -8.61169e-21)
(-2.84267 6.02281e-05 8.1673e-21)
(-2.84858 3.17412e-05 0)
(-2.85175 1.22452e-05 1.32165e-20)
(-2.86069 -6.05621e-05 0)
(-2.86076 -6.86607e-05 0)
(-2.87409 -0.00026639 0)
(-2.8667 -0.000181337 0)
(-2.89155 -0.000785258 0)
(-2.86402 -0.000258707 0)
(-2.9512 -0.00280289 -3.84344e-20)
(-2.69722 -0.00232671 0)
)
;
    }
    lowerWall
    {
        type            calculated;
        value           nonuniform List<vector> 
266
(
(-10.8693 -0.00186531 0)
(-7.42329 -0.000896996 0)
(-6.66598 -0.000187277 0)
(-6.12222 -9.18188e-05 0)
(-5.81021 -6.31866e-05 0)
(-5.53903 -4.8565e-05 0)
(-5.34275 -4.01567e-05 0)
(-5.17228 -3.45171e-05 0)
(-5.03253 -3.03435e-05 0)
(-4.91115 -2.71899e-05 0)
(-4.80627 -2.46777e-05 0)
(-4.71377 -2.26316e-05 0)
(-4.632 -2.08825e-05 0)
(-4.55908 -1.9436e-05 0)
(-4.4935 -1.81674e-05 0)
(-4.43452 -1.70479e-05 0)
(-4.38104 -1.61023e-05 0)
(-4.33234 -1.52401e-05 0)
(-4.28796 -1.44626e-05 0)
(-4.24733 -1.37832e-05 0)
(-4.20998 -1.31724e-05 0)
(-4.17559 -1.26134e-05 0)
(-4.14385 -1.21041e-05 0)
(-4.11449 -1.1642e-05 0)
(-4.08727 -1.12269e-05 0)
(-4.06196 -1.08393e-05 0)
(-4.03842 -1.04851e-05 0)
(-4.01645 -1.01618e-05 0)
(-3.99595 -9.85947e-06 0)
(-3.97677 -9.58196e-06 0)
(-3.95881 -9.32759e-06 0)
(-3.94197 -9.09012e-06 0)
(-3.92615 -8.86973e-06 0)
(-3.91128 -8.66348e-06 0)
(-3.89729 -8.47296e-06 0)
(-3.88411 -8.29705e-06 0)
(-3.87169 -8.13027e-06 0)
(-3.85998 -7.97229e-06 0)
(-3.84892 -7.82208e-06 0)
(-3.83849 -7.67773e-06 0)
(-3.82864 -7.53563e-06 0)
(-3.81934 -7.3933e-06 0)
(-3.81059 -7.24572e-06 0)
(-3.80234 -7.09105e-06 0)
(-3.79459 -6.92115e-06 0)
(-3.78734 -6.73175e-06 0)
(-3.78057 -6.51348e-06 0)
(-3.77431 -6.26421e-06 0)
(-3.76855 -5.96623e-06 0)
(-3.76333 -5.61189e-06 0)
(-3.75866 -5.17721e-06 0)
(-3.75459 -4.66243e-06 0)
(-3.75114 -4.0322e-06 0)
(-3.74841 -3.29283e-06 0)
(-3.74643 -2.41558e-06 0)
(-3.74531 -1.37289e-06 0)
(-3.74512 -2.27287e-07 0)
(-3.74597 1.35356e-06 0)
(-3.74803 3.02371e-06 0)
(-3.75138 5.35352e-06 0)
(-3.75624 7.95055e-06 0)
(-3.76276 1.1883e-05 0)
(-3.77134 1.69798e-05 0)
(-3.78045 1.98165e-05 0)
(-3.78889 1.97884e-05 0)
(-3.79822 2.36986e-05 0)
(-3.80849 2.70229e-05 0)
(-3.81996 3.27136e-05 0)
(-3.83248 3.77648e-05 0)
(-3.84629 4.55412e-05 0)
(-3.86125 5.33387e-05 0)
(-3.87766 6.59874e-05 0)
(-3.89536 7.83065e-05 0)
(-3.91472 9.55227e-05 0)
(-3.93586 0.000113247 0)
(-3.9587 0.000132841 0)
(-3.98452 0.000157408 0)
(-4.01143 0.00018143 0)
(-4.04409 0.00022206 0)
(-4.0754 0.000261002 0)
(-4.11938 0.000346277 0)
(-4.15482 0.000416282 0)
(-4.2229 0.0006831 0)
(-4.25892 0.000646316 0)
(-4.39539 0.00225429 0)
(-4.42778 -0.000216631 0)
(-4.80602 0.00801708 0)
(-4.45761 0.158876 0)
(-43.7289 -9.6485 0)
(0.641381 -0.0116902 -0)
(-0.210129 0.00600546 1.22567e-23)
(-0.000825922 0.00138155 -1.04404e-23)
(-0.011775 0.000693048 0)
(-0.00838121 0.000373404 0)
(-0.00691031 0.000220267 0)
(-0.006275 0.00014449 0)
(-0.00609682 0.000102989 0)
(-0.00625121 8.6845e-05 -5.57095e-22)
(-0.00669215 0.00011237 6.92025e-22)
(-0.00742423 0.000218692 -1.83603e-21)
(-0.00850184 0.000477832 2.50917e-21)
(-0.0100132 0.0010219 -0)
(-0.0120413 0.00210131 1.11481e-20)
(-0.0145752 0.00421899 -1.81129e-20)
(-0.0173318 0.00845355 -0)
(-0.0186074 0.0164483 0)
(-0.0139314 0.025833 0)
(-0.00347672 0.0320397 5.70752e-19)
(0.00494091 0.0310194 -4.56655e-19)
(0.012629 0.0267338 8.2391e-19)
(0.0196777 0.016838 -9.04217e-19)
(0.0265235 0.000686121 0)
(0.0230614 -0.0199248 1.40155e-18)
(0.017801 -0.034083 -1.05544e-18)
(0.0139163 -0.0467167 -0)
(0.0113379 -0.0567351 0)
(0.0110882 -0.0651187 0)
(0.0137073 -0.0727585 0)
(0.0190869 -0.0800847 0)
(0.0272296 -0.0872351 0)
(0.0372078 -0.0952217 -6.28194e-19)
(0.0469327 -0.104134 -1.91117e-21)
(0.0540001 -0.11161 5.80333e-19)
(0.0580168 -0.112759 0)
(0.0607819 -0.106557 0)
(0.0621311 -0.0965342 0)
(0.0586144 -0.0802017 0)
(0.0618276 -0.0554447 0)
(0.0672535 -0.112425 1.94568e-19)
(0.0303521 -0.346676 -1.39756e-19)
(-0.0769378 -0.720917 0)
(-0.188891 -0.776776 0)
(-0.300325 -0.771021 0)
(-0.393251 -0.693815 -1.02742e-19)
(-0.439263 -0.581771 1.1405e-19)
(-0.463046 -0.645077 -0)
(-0.29882 5.3676 0)
(-1.94348 0.00215889 -4.26635e-22)
(-0.0915988 -0.00196799 0)
(-0.0231543 5.86602e-06 -1.29158e-22)
(-0.0479064 0.000108598 -0)
(-0.103747 -3.33512e-05 0)
(-0.0954929 -0.0001845 0)
(-0.107157 1.31444e-06 -0)
(-0.11869 5.15282e-05 0)
(-0.117901 0.000292497 -4.33318e-22)
(-0.0668706 0.000675857 0)
(0.0455227 0.000974907 0)
(0.191224 -0.00140549 0)
(0.318506 -0.00142913 0)
(0.43473 -0.000609341 0)
(0.534376 -0.000527458 0)
(0.623629 -0.000477914 0)
(0.705747 -0.000448609 0)
(0.784171 -0.00044717 0)
(0.860439 -0.000457164 0)
(0.935189 -0.000475504 3.07909e-22)
(1.00833 -0.000486643 0)
(1.07945 -0.000495568 3.06134e-22)
(1.14825 -0.000491252 0)
(1.21459 -0.000490496 3.02636e-22)
(1.27849 -0.000482884 0)
(1.34006 -0.000484703 2.97337e-22)
(1.39924 -0.000483941 0)
(1.45589 -0.000489184 0)
(1.50962 -0.000489169 0)
(1.56001 -0.000489447 2.81055e-22)
(1.60655 -0.000481936 2.75726e-22)
(1.64889 -0.000473039 2.69881e-22)
(1.68663 -0.000458072 2.63527e-22)
(1.71961 -0.000442607 2.56675e-22)
(1.74753 -0.000423777 0)
(1.77027 -0.000404777 -0)
(1.78752 -0.000383004 2.33292e-22)
(1.79912 -0.000360238 2.2462e-22)
(1.80473 -0.000334483 2.15543e-22)
(1.80418 -0.00030668 2.0609e-22)
(1.79725 -0.00027636 1.96289e-22)
(1.7838 -0.000243679 1.86174e-22)
(1.76372 -0.000209839 0)
(1.73695 -0.000174236 1.65143e-22)
(1.70348 -0.000138674 1.54304e-22)
(1.66323 -0.000102293 1.43296e-22)
(1.61627 -6.60596e-05 1.32163e-22)
(1.56254 -2.99253e-05 1.2094e-22)
(1.50217 7.14143e-06 1.09674e-22)
(1.43515 4.32336e-05 0)
(1.36179 8.16817e-05 8.71772e-23)
(1.28209 0.000118308 7.60389e-23)
(1.19679 0.000157978 6.5055e-23)
(1.10553 0.000195046 5.42474e-23)
(1.01049 0.000234239 4.37198e-23)
(0.908627 0.000274648 3.34177e-23)
(0.805703 0.00313324 0)
(0.752235 0.000543305 2.00128e-23)
(0.590584 -0.00245207 0)
(0.477226 0.000383185 -0)
(0.368675 0.00142903 -0)
(0.275516 0.00204546 2.90423e-23)
(0.157777 -0.0010085 0)
(0.0372942 -0.00101938 -0)
(-0.084286 0.000173018 0)
(-0.183607 0.000779403 -0)
(-0.28901 0.000469566 0)
(-0.393106 0.00047044 -0)
(-0.493944 0.000467513 6.04573e-23)
(-0.592274 0.000464992 0)
(-0.687388 0.000458541 0)
(-0.779456 0.000453332 -0)
(-0.86819 0.000443859 7.3883e-23)
(-0.953633 0.000436543 0)
(-1.03567 0.000424574 0)
(-1.11434 0.000415681 -0)
(-1.18962 0.000402138 0)
(-1.26156 0.00039205 -0)
(-1.33024 0.000377848 -0)
(-1.39568 0.000366795 8.46588e-23)
(-1.45805 0.000352476 0)
(-1.51733 0.000340721 -0)
(-1.57383 0.000327054 8.58617e-23)
(-1.62736 0.000314869 -0)
(-1.67858 0.000302224 8.59136e-23)
(-1.72661 0.000289846 0)
(-1.77348 0.000278839 0)
(-1.81587 0.000266008 -8.51356e-23)
(-1.85998 0.0002578 -0)
(-1.89556 0.000242097 8.4194e-23)
(-1.93946 0.000243199 0)
(-1.96655 0.000212326 -0)
(-2.01219 0.000240299 0)
(-2.03001 0.000170111 0)
(-2.07839 0.000267258 -0)
(-2.09096 0.00010869 7.98084e-23)
(-2.11782 0.000246436 0)
(-2.15364 0.000128558 -0)
(-2.17078 0.000163441 9.24134e-21)
(-2.20385 0.000151531 1.58803e-20)
(-2.23161 0.000147873 0)
(-2.26452 0.000144875 0)
(-2.2975 0.00014273 0)
(-2.33263 0.000142488 -0)
(-2.36851 0.00014363 0)
(-2.40526 0.000146848 -2.42962e-20)
(-2.44206 0.000151694 0)
(-2.47856 0.000158369 -3.39547e-20)
(-2.51392 0.000165993 2.81098e-20)
(-2.54786 0.000174284 0)
(-2.57926 0.000181495 0)
(-2.60837 0.000187613 0)
(-2.63371 0.000189658 4.93262e-20)
(-2.65635 0.000189367 -3.95971e-20)
(-2.67383 0.000182081 0)
(-2.68921 0.000174267 5.04457e-20)
(-2.69772 0.000156877 0)
(-2.70636 0.000146721 6.42988e-20)
(-2.7055 0.000122543 0)
(-2.70991 0.00012295 0)
(-2.7005 9.50371e-05 0)
(-2.70607 0.000125046 0)
(-2.69074 8.47747e-05 0)
(-2.70356 0.000167287 1.47288e-19)
(-2.68429 8.59583e-05 -7.8632e-20)
(-2.70212 0.000259465 0)
(-2.69674 0.000120673 3.01372e-20)
(-2.71622 0.000417706 0)
(-2.83389 0.000101083 0)
)
;
    }
    front
    {
        type            empty;
    }
    back
    {
        type            empty;
    }
}


// ************************************************************************* //
