/*--------------------------------*- C++ -*----------------------------------*\
| =========                 |                                                 |
| \\      /  F ield         | OpenFOAM: The Open Source CFD Toolbox           |
|  \\    /   O peration     | Version:  2306                                  |
|   \\  /    A nd           | Website:  www.openfoam.com                      |
|    \\/     M anipulation  |                                                 |
\*---------------------------------------------------------------------------*/
FoamFile
{
    version     2.0;
    format      ascii;
    arch        "LSB;label=32;scalar=64";
    class       volScalarField;
    location    "1600";
    object      cp;
}
// * * * * * * * * * * * * * * * * * * * * * * * * * * * * * * * * * * * * * //

dimensions      [0 0 0 0 0 0 0];

internalField   nonuniform List<scalar> 
20540
(
0.258311
-0.032977
0.256492
-0.0451441
0.255235
-0.0524588
0.254775
-0.0550895
0.254567
-0.0561407
0.25441
-0.0568207
0.254283
-0.0573346
0.254191
-0.0577099
0.254127
-0.0579789
0.254087
-0.0581697
0.254062
-0.0582977
0.254047
-0.0583698
0.254038
-0.0583881
0.254028
-0.0583521
0.25401
-0.0582591
0.253977
-0.0581051
0.253919
-0.0578847
0.253829
-0.0575912
0.253699
-0.0572165
0.253527
-0.0567525
0.253316
-0.0561927
0.253078
-0.0555335
0.25283
-0.0547766
0.252584
-0.0539335
0.252303
-0.0530099
0.251861
-0.051914
0.251188
-0.0504367
0.250443
-0.0486506
0.249702
-0.0469664
0.248896
-0.0455597
0.248219
-0.0445908
0.247864
-0.0441182
0.247848
-0.0441414
0.248166
-0.0446618
0.248795
-0.0456691
0.249552
-0.0470483
0.25026
-0.0486768
0.250983
-0.0504378
0.251662
-0.0519466
0.252131
-0.0530687
0.252429
-0.0539951
0.252683
-0.0548361
0.25294
-0.055594
0.253191
-0.0562575
0.25342
-0.0568246
0.253612
-0.0572986
0.253761
-0.0576863
0.253868
-0.0579958
0.25394
-0.0582354
0.253984
-0.058412
0.25401
-0.058531
0.254023
-0.0585967
0.254033
-0.0586123
0.254043
-0.0585793
0.25406
-0.0584976
0.254089
-0.0583643
0.254134
-0.058172
0.254202
-0.0579049
0.254301
-0.0575351
0.254433
-0.0570298
0.254598
-0.0563572
0.254815
-0.0553067
0.255284
-0.0527053
0.256544
-0.0456161
0.258359
-0.0339843
-0.107716
-0.0636913
-0.0702495
-0.071826
-0.0729063
-0.0750797
-0.077572
-0.0800789
-0.0826402
-0.0852217
-0.0877812
-0.0903003
-0.092771
-0.0951843
-0.0975356
-0.0998219
-0.102042
-0.104194
-0.10628
-0.108299
-0.110253
-0.112142
-0.113968
-0.115733
-0.117438
-0.119084
-0.120674
-0.122209
-0.12369
-0.12512
-0.126499
-0.127831
-0.129115
-0.130355
-0.131552
-0.132708
-0.133824
-0.134902
-0.135945
-0.136954
-0.137931
-0.13888
-0.139803
-0.140703
-0.141583
-0.142447
-0.143298
-0.144141
-0.144981
-0.145823
-0.146673
-0.147538
-0.148423
-0.149336
-0.150286
-0.151281
-0.152331
-0.153447
-0.154639
-0.155922
-0.157304
-0.158805
-0.160434
-0.161927
-0.163176
-0.164467
-0.165804
-0.16719
-0.168623
-0.170107
-0.171639
-0.173224
-0.174857
-0.176548
-0.178288
-0.1801
-0.181961
-0.18392
-0.185915
-0.188063
-0.1902
-0.192604
-0.194884
-0.197708
-0.200183
-0.203796
-0.207049
-0.212565
-0.107722
-0.0636914
-0.0702493
-0.0718259
-0.0729063
-0.0750796
-0.0775719
-0.0800789
-0.0826402
-0.0852216
-0.0877812
-0.0903003
-0.092771
-0.0951843
-0.0975356
-0.0998219
-0.102042
-0.104194
-0.10628
-0.108299
-0.110253
-0.112142
-0.113968
-0.115733
-0.117438
-0.119084
-0.120674
-0.122209
-0.12369
-0.12512
-0.126499
-0.127831
-0.129115
-0.130355
-0.131552
-0.132708
-0.133824
-0.134902
-0.135945
-0.136954
-0.137931
-0.13888
-0.139803
-0.140703
-0.141583
-0.142447
-0.143298
-0.144141
-0.144981
-0.145823
-0.146673
-0.147538
-0.148423
-0.149336
-0.150286
-0.151281
-0.152331
-0.153448
-0.154639
-0.155922
-0.157304
-0.158806
-0.160434
-0.161927
-0.163176
-0.164467
-0.165804
-0.16719
-0.168623
-0.170107
-0.171639
-0.173224
-0.174857
-0.176548
-0.178288
-0.1801
-0.181961
-0.18392
-0.185916
-0.188063
-0.1902
-0.192605
-0.194885
-0.197709
-0.200184
-0.203798
-0.207048
-0.212557
-0.107742
-0.0636921
-0.070249
-0.0718256
-0.072906
-0.0750794
-0.0775718
-0.0800788
-0.0826401
-0.0852216
-0.0877811
-0.0903002
-0.092771
-0.0951842
-0.0975356
-0.0998219
-0.102042
-0.104194
-0.10628
-0.108299
-0.110253
-0.112142
-0.113968
-0.115733
-0.117438
-0.119084
-0.120674
-0.122209
-0.12369
-0.12512
-0.126499
-0.127831
-0.129115
-0.130355
-0.131552
-0.132708
-0.133824
-0.134902
-0.135945
-0.136954
-0.137931
-0.13888
-0.139803
-0.140703
-0.141583
-0.142447
-0.143298
-0.144141
-0.144981
-0.145823
-0.146673
-0.147538
-0.148423
-0.149336
-0.150286
-0.151281
-0.152331
-0.153448
-0.154639
-0.155922
-0.157304
-0.158806
-0.160434
-0.161927
-0.163176
-0.164467
-0.165805
-0.16719
-0.168623
-0.170107
-0.171639
-0.173224
-0.174857
-0.176549
-0.178289
-0.180101
-0.181962
-0.183921
-0.185917
-0.188065
-0.190201
-0.192607
-0.194887
-0.197712
-0.200186
-0.203804
-0.207038
-0.21248
-0.107776
-0.0636933
-0.0702486
-0.071825
-0.0729056
-0.0750791
-0.0775715
-0.0800785
-0.0826399
-0.0852214
-0.087781
-0.0903001
-0.0927709
-0.0951842
-0.0975355
-0.0998218
-0.102042
-0.104194
-0.10628
-0.108299
-0.110253
-0.112142
-0.113968
-0.115733
-0.117438
-0.119084
-0.120674
-0.122209
-0.12369
-0.125119
-0.126499
-0.127831
-0.129115
-0.130355
-0.131552
-0.132708
-0.133824
-0.134902
-0.135945
-0.136954
-0.137931
-0.13888
-0.139803
-0.140703
-0.141583
-0.142447
-0.143298
-0.144141
-0.144981
-0.145823
-0.146674
-0.147538
-0.148423
-0.149336
-0.150286
-0.151282
-0.152332
-0.153448
-0.15464
-0.155922
-0.157304
-0.158806
-0.160435
-0.161928
-0.163177
-0.164468
-0.165805
-0.167191
-0.168624
-0.170108
-0.17164
-0.173225
-0.174858
-0.17655
-0.17829
-0.180102
-0.181963
-0.183923
-0.185919
-0.188067
-0.190204
-0.19261
-0.19489
-0.197717
-0.20019
-0.203816
-0.207009
-0.212422
-0.107832
-0.063696
-0.0702486
-0.0718243
-0.0729049
-0.0750786
-0.0775711
-0.0800782
-0.0826396
-0.0852212
-0.0877808
-0.0902999
-0.0927707
-0.095184
-0.0975354
-0.0998217
-0.102042
-0.104194
-0.10628
-0.108299
-0.110253
-0.112142
-0.113968
-0.115733
-0.117438
-0.119084
-0.120674
-0.122209
-0.12369
-0.125119
-0.126499
-0.127831
-0.129115
-0.130355
-0.131552
-0.132708
-0.133824
-0.134902
-0.135945
-0.136954
-0.137931
-0.13888
-0.139803
-0.140703
-0.141583
-0.142447
-0.143298
-0.144141
-0.144981
-0.145824
-0.146674
-0.147538
-0.148423
-0.149336
-0.150286
-0.151282
-0.152332
-0.153448
-0.15464
-0.155922
-0.157304
-0.158806
-0.160435
-0.161929
-0.163178
-0.164469
-0.165806
-0.167192
-0.168625
-0.170109
-0.171642
-0.173227
-0.17486
-0.176552
-0.178292
-0.180104
-0.181966
-0.183926
-0.185922
-0.188071
-0.190207
-0.192615
-0.194894
-0.197724
-0.200193
-0.203829
-0.20696
-0.212367
-0.107918
-0.0637017
-0.0702494
-0.0718238
-0.0729041
-0.0750779
-0.0775705
-0.0800777
-0.0826392
-0.0852209
-0.0877805
-0.0902997
-0.0927705
-0.0951839
-0.0975353
-0.0998216
-0.102042
-0.104194
-0.10628
-0.108299
-0.110253
-0.112142
-0.113968
-0.115733
-0.117438
-0.119084
-0.120674
-0.122208
-0.12369
-0.125119
-0.126499
-0.127831
-0.129115
-0.130355
-0.131552
-0.132708
-0.133824
-0.134902
-0.135945
-0.136954
-0.137931
-0.13888
-0.139803
-0.140703
-0.141583
-0.142447
-0.143298
-0.144141
-0.144981
-0.145824
-0.146674
-0.147538
-0.148423
-0.149336
-0.150286
-0.151282
-0.152332
-0.153448
-0.15464
-0.155923
-0.157305
-0.158807
-0.160436
-0.161929
-0.163179
-0.16447
-0.165807
-0.167193
-0.168627
-0.170111
-0.171643
-0.173229
-0.174862
-0.176554
-0.178295
-0.180107
-0.181969
-0.183929
-0.185925
-0.188075
-0.190211
-0.19262
-0.194898
-0.19773
-0.200193
-0.203839
-0.206884
-0.212283
-0.108038
-0.063712
-0.070252
-0.0718237
-0.0729035
-0.0750772
-0.0775699
-0.0800772
-0.0826388
-0.0852205
-0.0877802
-0.0902994
-0.0927703
-0.0951836
-0.0975351
-0.0998214
-0.102041
-0.104194
-0.10628
-0.108299
-0.110253
-0.112142
-0.113968
-0.115733
-0.117438
-0.119084
-0.120674
-0.122208
-0.12369
-0.125119
-0.126499
-0.127831
-0.129115
-0.130355
-0.131552
-0.132708
-0.133824
-0.134902
-0.135945
-0.136954
-0.137931
-0.13888
-0.139803
-0.140703
-0.141583
-0.142447
-0.143298
-0.144141
-0.144981
-0.145824
-0.146674
-0.147538
-0.148423
-0.149337
-0.150287
-0.151282
-0.152332
-0.153449
-0.154641
-0.155923
-0.157306
-0.158808
-0.160437
-0.16193
-0.16318
-0.164471
-0.165809
-0.167195
-0.168628
-0.170113
-0.171645
-0.173231
-0.174865
-0.176557
-0.178298
-0.180111
-0.181972
-0.183933
-0.185929
-0.188079
-0.190215
-0.192625
-0.194901
-0.197736
-0.20019
-0.203843
-0.206777
-0.21215
-0.108197
-0.0637285
-0.0702571
-0.0718246
-0.0729031
-0.0750765
-0.0775692
-0.0800765
-0.0826382
-0.0852199
-0.0877797
-0.090299
-0.0927699
-0.0951834
-0.0975348
-0.0998212
-0.102041
-0.104194
-0.10628
-0.108299
-0.110253
-0.112142
-0.113968
-0.115733
-0.117438
-0.119084
-0.120674
-0.122208
-0.12369
-0.125119
-0.126499
-0.12783
-0.129115
-0.130355
-0.131552
-0.132708
-0.133824
-0.134902
-0.135944
-0.136954
-0.137931
-0.13888
-0.139803
-0.140703
-0.141583
-0.142447
-0.143298
-0.144141
-0.144981
-0.145824
-0.146674
-0.147538
-0.148423
-0.149337
-0.150287
-0.151282
-0.152333
-0.153449
-0.154641
-0.155924
-0.157306
-0.158809
-0.160438
-0.161932
-0.163181
-0.164473
-0.16581
-0.167197
-0.16863
-0.170115
-0.171648
-0.173234
-0.174868
-0.17656
-0.178301
-0.180114
-0.181976
-0.183937
-0.185933
-0.188084
-0.190219
-0.19263
-0.194902
-0.197739
-0.200179
-0.203836
-0.206632
-0.21195
-0.108402
-0.0637531
-0.0702661
-0.0718272
-0.0729033
-0.075076
-0.0775685
-0.0800758
-0.0826375
-0.0852194
-0.0877792
-0.0902986
-0.0927695
-0.095183
-0.0975345
-0.0998209
-0.102041
-0.104194
-0.106279
-0.108299
-0.110252
-0.112142
-0.113968
-0.115733
-0.117438
-0.119084
-0.120674
-0.122208
-0.12369
-0.125119
-0.126499
-0.12783
-0.129115
-0.130355
-0.131552
-0.132708
-0.133824
-0.134902
-0.135944
-0.136954
-0.137931
-0.13888
-0.139803
-0.140703
-0.141583
-0.142447
-0.143298
-0.144141
-0.144981
-0.145824
-0.146674
-0.147538
-0.148423
-0.149337
-0.150287
-0.151283
-0.152333
-0.15345
-0.154642
-0.155925
-0.157307
-0.15881
-0.160439
-0.161933
-0.163183
-0.164474
-0.165812
-0.167199
-0.168633
-0.170118
-0.171651
-0.173237
-0.174871
-0.176563
-0.178305
-0.180118
-0.18198
-0.183941
-0.185936
-0.188087
-0.190221
-0.192632
-0.1949
-0.197736
-0.200158
-0.203811
-0.206445
-0.211666
-0.108657
-0.0637876
-0.0702803
-0.0718322
-0.0729047
-0.0750761
-0.077568
-0.0800751
-0.0826368
-0.0852187
-0.0877786
-0.090298
-0.092769
-0.0951826
-0.0975341
-0.0998206
-0.102041
-0.104193
-0.106279
-0.108298
-0.110252
-0.112142
-0.113968
-0.115733
-0.117437
-0.119084
-0.120674
-0.122208
-0.12369
-0.125119
-0.126499
-0.12783
-0.129115
-0.130355
-0.131552
-0.132708
-0.133823
-0.134902
-0.135944
-0.136954
-0.137931
-0.13888
-0.139803
-0.140703
-0.141583
-0.142447
-0.143298
-0.144141
-0.144982
-0.145824
-0.146674
-0.147538
-0.148424
-0.149337
-0.150287
-0.151283
-0.152334
-0.15345
-0.154643
-0.155926
-0.157308
-0.158811
-0.160441
-0.161935
-0.163185
-0.164476
-0.165814
-0.167201
-0.168635
-0.17012
-0.171653
-0.17324
-0.174874
-0.176566
-0.178308
-0.180121
-0.181983
-0.183944
-0.185939
-0.188089
-0.190221
-0.192631
-0.194893
-0.197725
-0.200121
-0.203759
-0.206209
-0.211276
-0.108971
-0.0638341
-0.0703011
-0.0718408
-0.072908
-0.0750772
-0.077568
-0.0800747
-0.0826362
-0.085218
-0.0877779
-0.0902974
-0.0927685
-0.095182
-0.0975337
-0.0998202
-0.10204
-0.104193
-0.106279
-0.108298
-0.110252
-0.112141
-0.113968
-0.115732
-0.117437
-0.119084
-0.120673
-0.122208
-0.123689
-0.125119
-0.126499
-0.12783
-0.129115
-0.130355
-0.131552
-0.132707
-0.133823
-0.134902
-0.135944
-0.136953
-0.137931
-0.13888
-0.139803
-0.140703
-0.141583
-0.142447
-0.143298
-0.144141
-0.144982
-0.145824
-0.146674
-0.147539
-0.148424
-0.149338
-0.150288
-0.151284
-0.152334
-0.153451
-0.154643
-0.155926
-0.157309
-0.158812
-0.160442
-0.161936
-0.163186
-0.164478
-0.165817
-0.167203
-0.168638
-0.170123
-0.171656
-0.173242
-0.174877
-0.176569
-0.178311
-0.180124
-0.181985
-0.183945
-0.185939
-0.188088
-0.190217
-0.192623
-0.194877
-0.1977
-0.200062
-0.203665
-0.205921
-0.210761
-0.109347
-0.0638948
-0.0703299
-0.0718543
-0.072914
-0.0750798
-0.077569
-0.0800747
-0.0826359
-0.0852175
-0.0877773
-0.0902968
-0.0927679
-0.0951815
-0.0975331
-0.0998197
-0.10204
-0.104193
-0.106279
-0.108298
-0.110252
-0.112141
-0.113967
-0.115732
-0.117437
-0.119083
-0.120673
-0.122208
-0.123689
-0.125119
-0.126499
-0.12783
-0.129115
-0.130355
-0.131552
-0.132707
-0.133823
-0.134902
-0.135944
-0.136953
-0.137931
-0.13888
-0.139803
-0.140703
-0.141583
-0.142447
-0.143298
-0.144141
-0.144982
-0.145824
-0.146674
-0.147539
-0.148424
-0.149338
-0.150288
-0.151284
-0.152335
-0.153451
-0.154644
-0.155927
-0.15731
-0.158813
-0.160444
-0.161938
-0.163188
-0.16448
-0.165818
-0.167205
-0.16864
-0.170125
-0.171658
-0.173244
-0.174878
-0.176571
-0.178312
-0.180124
-0.181984
-0.183944
-0.185935
-0.188081
-0.190205
-0.192605
-0.194846
-0.197652
-0.199972
-0.203513
-0.205575
-0.21011
-0.10979
-0.0639725
-0.0703681
-0.071874
-0.072924
-0.075085
-0.0775715
-0.0800758
-0.0826361
-0.0852173
-0.0877769
-0.0902963
-0.0927673
-0.0951809
-0.0975326
-0.0998191
-0.102039
-0.104192
-0.106278
-0.108297
-0.110251
-0.112141
-0.113967
-0.115732
-0.117437
-0.119083
-0.120673
-0.122208
-0.123689
-0.125119
-0.126498
-0.12783
-0.129115
-0.130355
-0.131552
-0.132707
-0.133823
-0.134902
-0.135944
-0.136953
-0.137931
-0.13888
-0.139803
-0.140703
-0.141583
-0.142447
-0.143298
-0.144141
-0.144982
-0.145824
-0.146674
-0.147539
-0.148424
-0.149338
-0.150288
-0.151284
-0.152335
-0.153452
-0.154645
-0.155928
-0.157311
-0.158814
-0.160445
-0.161939
-0.163189
-0.164481
-0.16582
-0.167207
-0.168641
-0.170126
-0.171659
-0.173245
-0.174878
-0.17657
-0.17831
-0.180121
-0.181979
-0.183936
-0.185924
-0.188065
-0.190182
-0.19257
-0.194796
-0.197571
-0.199841
-0.20328
-0.205162
-0.209318
-0.110298
-0.0640705
-0.0704168
-0.0719012
-0.072939
-0.0750937
-0.0775764
-0.0800784
-0.0826374
-0.0852178
-0.087777
-0.090296
-0.0927669
-0.0951804
-0.0975321
-0.0998186
-0.102039
-0.104192
-0.106278
-0.108297
-0.110251
-0.11214
-0.113967
-0.115732
-0.117436
-0.119083
-0.120673
-0.122207
-0.123689
-0.125119
-0.126498
-0.12783
-0.129115
-0.130355
-0.131552
-0.132707
-0.133823
-0.134901
-0.135944
-0.136953
-0.137931
-0.13888
-0.139803
-0.140703
-0.141583
-0.142447
-0.143298
-0.144141
-0.144982
-0.145824
-0.146674
-0.147539
-0.148424
-0.149338
-0.150288
-0.151285
-0.152335
-0.153452
-0.154645
-0.155928
-0.157311
-0.158815
-0.160445
-0.161939
-0.163189
-0.164481
-0.165819
-0.167206
-0.16864
-0.170125
-0.171657
-0.173242
-0.174874
-0.176565
-0.178303
-0.180112
-0.181967
-0.18392
-0.185903
-0.188034
-0.190141
-0.19251
-0.194715
-0.197442
-0.199654
-0.202943
-0.20467
-0.20839
-0.110865
-0.0641927
-0.070477
-0.0719371
-0.0729602
-0.0751069
-0.0775847
-0.0800835
-0.0826404
-0.0852196
-0.0877779
-0.0902964
-0.092767
-0.0951803
-0.0975318
-0.0998183
-0.102038
-0.104191
-0.106277
-0.108297
-0.11025
-0.11214
-0.113966
-0.115731
-0.117436
-0.119083
-0.120672
-0.122207
-0.123689
-0.125118
-0.126498
-0.12783
-0.129114
-0.130354
-0.131551
-0.132707
-0.133823
-0.134901
-0.135944
-0.136953
-0.137931
-0.13888
-0.139803
-0.140703
-0.141583
-0.142446
-0.143298
-0.144141
-0.144982
-0.145824
-0.146674
-0.147539
-0.148424
-0.149338
-0.150288
-0.151284
-0.152335
-0.153452
-0.154645
-0.155928
-0.157311
-0.158814
-0.160444
-0.161938
-0.163188
-0.16448
-0.165817
-0.167203
-0.168636
-0.17012
-0.171651
-0.173235
-0.174865
-0.176553
-0.178289
-0.180094
-0.181944
-0.18389
-0.185864
-0.187982
-0.190074
-0.192413
-0.19459
-0.197245
-0.199392
-0.20248
-0.204078
-0.207339
-0.111475
-0.0643439
-0.0705496
-0.0719826
-0.0729885
-0.0751257
-0.0775973
-0.0800919
-0.082646
-0.0852233
-0.0877803
-0.090298
-0.0927679
-0.0951808
-0.097532
-0.0998183
-0.102038
-0.104191
-0.106277
-0.108296
-0.11025
-0.11214
-0.113966
-0.115731
-0.117436
-0.119082
-0.120672
-0.122207
-0.123688
-0.125118
-0.126498
-0.127829
-0.129114
-0.130354
-0.131551
-0.132707
-0.133823
-0.134901
-0.135944
-0.136953
-0.137931
-0.13888
-0.139803
-0.140703
-0.141583
-0.142446
-0.143298
-0.144141
-0.144981
-0.145824
-0.146674
-0.147538
-0.148424
-0.149338
-0.150288
-0.151284
-0.152334
-0.153451
-0.154643
-0.155926
-0.157309
-0.158812
-0.160441
-0.161934
-0.163184
-0.164475
-0.165811
-0.167196
-0.168628
-0.17011
-0.171639
-0.173219
-0.174847
-0.176531
-0.178262
-0.180061
-0.181904
-0.183838
-0.1858
-0.187896
-0.189969
-0.192263
-0.194404
-0.196957
-0.19903
-0.201873
-0.203364
-0.206177
-0.112101
-0.0645296
-0.0706356
-0.0720386
-0.0730248
-0.075151
-0.0776152
-0.0801046
-0.0826551
-0.0852297
-0.0877849
-0.0903012
-0.0927702
-0.0951824
-0.0975331
-0.099819
-0.102039
-0.104191
-0.106277
-0.108296
-0.11025
-0.112139
-0.113966
-0.115731
-0.117436
-0.119082
-0.120672
-0.122207
-0.123688
-0.125118
-0.126498
-0.127829
-0.129114
-0.130354
-0.131551
-0.132707
-0.133823
-0.134901
-0.135944
-0.136953
-0.137931
-0.13888
-0.139803
-0.140702
-0.141582
-0.142446
-0.143297
-0.144141
-0.144981
-0.145823
-0.146673
-0.147538
-0.148423
-0.149337
-0.150287
-0.151282
-0.152332
-0.153449
-0.154641
-0.155923
-0.157305
-0.158806
-0.160435
-0.161927
-0.163175
-0.164465
-0.165799
-0.167182
-0.168612
-0.17009
-0.171616
-0.173192
-0.174815
-0.176493
-0.178216
-0.180005
-0.181837
-0.183755
-0.185699
-0.187763
-0.189807
-0.192039
-0.194131
-0.196552
-0.198539
-0.201107
-0.202501
-0.204914
-0.112704
-0.0647551
-0.0707357
-0.0721057
-0.0730692
-0.0751832
-0.0776392
-0.0801224
-0.0826684
-0.0852398
-0.0877926
-0.090307
-0.0927746
-0.0951858
-0.0975357
-0.099821
-0.10204
-0.104192
-0.106278
-0.108297
-0.110251
-0.11214
-0.113966
-0.115731
-0.117436
-0.119082
-0.120672
-0.122207
-0.123688
-0.125118
-0.126498
-0.127829
-0.129114
-0.130354
-0.131551
-0.132706
-0.133822
-0.134901
-0.135943
-0.136953
-0.13793
-0.13888
-0.139802
-0.140702
-0.141582
-0.142446
-0.143297
-0.14414
-0.14498
-0.145822
-0.146672
-0.147536
-0.148421
-0.149335
-0.150284
-0.151279
-0.152329
-0.153445
-0.154636
-0.155917
-0.157297
-0.158797
-0.160423
-0.161913
-0.16316
-0.164447
-0.165779
-0.167158
-0.168584
-0.170058
-0.171578
-0.173147
-0.174762
-0.17643
-0.178143
-0.179917
-0.181732
-0.183624
-0.185543
-0.187563
-0.189565
-0.191714
-0.19374
-0.196001
-0.197885
-0.200167
-0.201465
-0.203545
-0.113234
-0.065024
-0.0708504
-0.0721845
-0.073122
-0.0752224
-0.0776693
-0.0801458
-0.0826867
-0.0852542
-0.087804
-0.0903161
-0.0927819
-0.0951916
-0.0975404
-0.0998247
-0.102043
-0.104195
-0.10628
-0.108299
-0.110252
-0.112141
-0.113967
-0.115732
-0.117436
-0.119083
-0.120672
-0.122207
-0.123688
-0.125118
-0.126498
-0.127829
-0.129114
-0.130354
-0.131551
-0.132707
-0.133823
-0.134901
-0.135944
-0.136953
-0.13793
-0.138879
-0.139802
-0.140702
-0.141582
-0.142445
-0.143296
-0.14414
-0.144979
-0.145821
-0.146671
-0.147535
-0.148419
-0.149332
-0.15028
-0.151275
-0.152323
-0.153438
-0.154627
-0.155906
-0.157285
-0.158781
-0.160404
-0.161891
-0.163134
-0.164417
-0.165745
-0.167119
-0.168538
-0.170005
-0.171516
-0.173075
-0.174678
-0.176332
-0.178028
-0.17978
-0.181571
-0.183427
-0.185308
-0.187267
-0.189211
-0.191256
-0.193192
-0.195273
-0.197032
-0.199039
-0.200234
-0.202049
-0.113633
-0.0653372
-0.0709798
-0.0722755
-0.0731829
-0.0752683
-0.0777057
-0.0801748
-0.0827101
-0.0852734
-0.0878197
-0.0903291
-0.0927927
-0.0952005
-0.0975479
-0.099831
-0.102049
-0.104199
-0.106284
-0.108302
-0.110255
-0.112143
-0.113969
-0.115734
-0.117438
-0.119084
-0.120674
-0.122208
-0.123689
-0.125119
-0.126499
-0.12783
-0.129115
-0.130355
-0.131552
-0.132707
-0.133823
-0.134901
-0.135944
-0.136953
-0.137931
-0.13888
-0.139802
-0.140702
-0.141582
-0.142445
-0.143296
-0.144139
-0.144978
-0.145819
-0.146668
-0.147531
-0.148415
-0.149327
-0.150274
-0.151267
-0.152314
-0.153426
-0.154613
-0.155889
-0.157264
-0.158756
-0.160374
-0.161854
-0.163093
-0.16437
-0.16569
-0.167056
-0.168466
-0.169921
-0.171419
-0.172963
-0.174549
-0.176181
-0.177852
-0.179572
-0.181327
-0.183134
-0.184961
-0.186842
-0.188706
-0.190624
-0.192445
-0.194332
-0.195946
-0.197699
-0.198786
-0.200391
-0.11384
-0.0656921
-0.0711228
-0.0723797
-0.0732515
-0.0753204
-0.0777477
-0.080209
-0.0827384
-0.0852972
-0.0878398
-0.0903462
-0.0928073
-0.0952131
-0.0975587
-0.0998404
-0.102057
-0.104206
-0.10629
-0.108307
-0.11026
-0.112148
-0.113973
-0.115737
-0.117441
-0.119087
-0.120676
-0.12221
-0.123691
-0.125121
-0.1265
-0.127832
-0.129116
-0.130356
-0.131553
-0.132708
-0.133824
-0.134902
-0.135945
-0.136954
-0.137931
-0.13888
-0.139803
-0.140702
-0.141582
-0.142445
-0.143295
-0.144137
-0.144976
-0.145817
-0.146665
-0.147527
-0.148409
-0.149319
-0.150265
-0.151256
-0.1523
-0.153409
-0.154592
-0.155863
-0.157232
-0.158717
-0.160326
-0.161798
-0.163028
-0.164297
-0.165606
-0.166959
-0.168354
-0.169793
-0.171272
-0.172793
-0.174353
-0.175953
-0.177589
-0.179264
-0.180968
-0.182709
-0.184462
-0.186243
-0.188001
-0.189773
-0.191453
-0.19314
-0.194594
-0.196118
-0.197094
-0.198523
-0.113796
-0.066083
-0.0712761
-0.0724979
-0.0733275
-0.0753779
-0.0777946
-0.0802477
-0.0827709
-0.085325
-0.0878639
-0.0903672
-0.0928256
-0.0952292
-0.0975729
-0.099853
-0.102068
-0.104216
-0.106299
-0.108315
-0.110267
-0.112154
-0.113979
-0.115742
-0.117446
-0.119091
-0.12068
-0.122214
-0.123695
-0.125124
-0.126504
-0.127835
-0.129119
-0.130359
-0.131555
-0.132711
-0.133826
-0.134904
-0.135947
-0.136955
-0.137933
-0.138881
-0.139804
-0.140703
-0.141582
-0.142444
-0.143294
-0.144136
-0.144973
-0.145813
-0.14666
-0.14752
-0.1484
-0.149308
-0.150251
-0.151238
-0.152278
-0.153381
-0.154558
-0.155822
-0.157183
-0.158657
-0.160253
-0.161711
-0.162929
-0.164184
-0.165477
-0.166811
-0.168186
-0.1696
-0.171051
-0.172539
-0.174061
-0.175617
-0.177201
-0.178815
-0.180448
-0.182102
-0.183756
-0.185415
-0.187041
-0.188649
-0.190167
-0.191652
-0.19294
-0.194255
-0.195123
-0.19639
-0.113457
-0.0664999
-0.0714331
-0.0726316
-0.0734108
-0.07544
-0.0778455
-0.0802898
-0.0828066
-0.085356
-0.0878911
-0.0903913
-0.0928471
-0.0952485
-0.0975903
-0.0998687
-0.102082
-0.104229
-0.106311
-0.108326
-0.110277
-0.112163
-0.113987
-0.11575
-0.117453
-0.119098
-0.120687
-0.12222
-0.123701
-0.125129
-0.126508
-0.127839
-0.129123
-0.130363
-0.131559
-0.132714
-0.13383
-0.134908
-0.13595
-0.136958
-0.137935
-0.138884
-0.139805
-0.140704
-0.141582
-0.142444
-0.143293
-0.144133
-0.14497
-0.145808
-0.146652
-0.14751
-0.148387
-0.149291
-0.150229
-0.151211
-0.152244
-0.153341
-0.154508
-0.155761
-0.157108
-0.158566
-0.160143
-0.161581
-0.162781
-0.164015
-0.165284
-0.166591
-0.167934
-0.169312
-0.170723
-0.172164
-0.173633
-0.175127
-0.176641
-0.178172
-0.179711
-0.181253
-0.182783
-0.184297
-0.185767
-0.187196
-0.188536
-0.189822
-0.190941
-0.192063
-0.192823
-0.193933
-0.112808
-0.0669245
-0.0715834
-0.0727821
-0.0735014
-0.0755061
-0.0778997
-0.0803345
-0.0828444
-0.0853889
-0.0879203
-0.0904173
-0.0928706
-0.0952698
-0.0976098
-0.0998866
-0.102099
-0.104245
-0.106325
-0.108339
-0.110289
-0.112175
-0.113998
-0.11576
-0.117463
-0.119107
-0.120695
-0.122228
-0.123708
-0.125137
-0.126515
-0.127846
-0.12913
-0.130369
-0.131565
-0.13272
-0.133835
-0.134912
-0.135954
-0.136962
-0.137939
-0.138887
-0.139808
-0.140706
-0.141583
-0.142444
-0.143291
-0.14413
-0.144964
-0.145799
-0.146641
-0.147494
-0.148367
-0.149265
-0.150197
-0.151171
-0.152195
-0.153279
-0.154433
-0.15567
-0.156997
-0.15843
-0.159978
-0.161386
-0.162559
-0.163763
-0.164997
-0.166264
-0.167563
-0.168891
-0.170244
-0.171621
-0.173016
-0.174427
-0.175846
-0.177269
-0.178687
-0.180092
-0.181471
-0.182818
-0.184112
-0.185351
-0.186504
-0.187594
-0.188545
-0.189484
-0.190135
-0.191086
-0.111866
-0.0673217
-0.0717118
-0.0729509
-0.0735992
-0.0755757
-0.0779568
-0.0803811
-0.0828833
-0.0854227
-0.0879501
-0.090444
-0.0928948
-0.095292
-0.0976302
-0.0999055
-0.102116
-0.104261
-0.10634
-0.108354
-0.110303
-0.112188
-0.11401
-0.115772
-0.117474
-0.119118
-0.120705
-0.122238
-0.123717
-0.125145
-0.126524
-0.127854
-0.129138
-0.130376
-0.131572
-0.132727
-0.133841
-0.134919
-0.13596
-0.136968
-0.137944
-0.138891
-0.139811
-0.140708
-0.141584
-0.142443
-0.143288
-0.144124
-0.144955
-0.145787
-0.146623
-0.147471
-0.148337
-0.149227
-0.150149
-0.15111
-0.15212
-0.153188
-0.154322
-0.155533
-0.156831
-0.158229
-0.159734
-0.161099
-0.162232
-0.163392
-0.164576
-0.165788
-0.167024
-0.168281
-0.169556
-0.170844
-0.172141
-0.173441
-0.174738
-0.176025
-0.177294
-0.178537
-0.179742
-0.180902
-0.182005
-0.183047
-0.184009
-0.184906
-0.185689
-0.186453
-0.18699
-0.187781
-0.110652
-0.0676503
-0.0717921
-0.0731386
-0.0737043
-0.0756483
-0.0780164
-0.080429
-0.0829227
-0.0854565
-0.0879797
-0.0904703
-0.0929186
-0.0953137
-0.0976502
-0.0999241
-0.102134
-0.104277
-0.106356
-0.108368
-0.110317
-0.112201
-0.114023
-0.115784
-0.117485
-0.119129
-0.120716
-0.122248
-0.123728
-0.125155
-0.126533
-0.127863
-0.129146
-0.130385
-0.13158
-0.132735
-0.133849
-0.134926
-0.135967
-0.136974
-0.137949
-0.138895
-0.139814
-0.140709
-0.141583
-0.14244
-0.143282
-0.144115
-0.144941
-0.145767
-0.146596
-0.147436
-0.148291
-0.149169
-0.150076
-0.15102
-0.152009
-0.153052
-0.154156
-0.155332
-0.156587
-0.157933
-0.159377
-0.160679
-0.161756
-0.162853
-0.163968
-0.165102
-0.166252
-0.167414
-0.168583
-0.169754
-0.170923
-0.172084
-0.173229
-0.174351
-0.175444
-0.1765
-0.177512
-0.178472
-0.179373
-0.180214
-0.180982
-0.181689
-0.182305
-0.182897
-0.183314
-0.183941
-0.1092
-0.0679066
-0.0717718
-0.0733368
-0.0738148
-0.0757224
-0.0780784
-0.0804783
-0.0829622
-0.0854899
-0.0880086
-0.0904956
-0.092941
-0.095334
-0.0976687
-0.0999412
-0.10215
-0.104292
-0.10637
-0.108382
-0.110329
-0.112213
-0.114035
-0.115795
-0.117497
-0.11914
-0.120726
-0.122258
-0.123737
-0.125165
-0.126543
-0.127872
-0.129155
-0.130394
-0.131589
-0.132742
-0.133857
-0.134933
-0.135973
-0.136979
-0.137954
-0.138898
-0.139816
-0.140709
-0.14158
-0.142433
-0.143271
-0.144098
-0.144918
-0.145735
-0.146555
-0.147382
-0.148223
-0.149082
-0.149968
-0.150887
-0.151845
-0.152851
-0.153912
-0.155036
-0.15623
-0.157503
-0.158859
-0.160074
-0.161072
-0.162082
-0.163101
-0.16413
-0.165165
-0.166201
-0.167233
-0.168257
-0.169266
-0.170255
-0.171219
-0.17215
-0.173044
-0.173895
-0.174697
-0.175447
-0.176141
-0.176778
-0.177352
-0.177872
-0.17832
-0.178744
-0.179033
-0.179495
-0.107651
-0.0681301
-0.0716043
-0.0735133
-0.0739187
-0.0757916
-0.0781403
-0.0805277
-0.0830014
-0.0855226
-0.0880363
-0.0905194
-0.0929618
-0.0953525
-0.0976854
-0.0999563
-0.102163
-0.104305
-0.106382
-0.108393
-0.11034
-0.112224
-0.114045
-0.115805
-0.117506
-0.119149
-0.120735
-0.122267
-0.123746
-0.125173
-0.126551
-0.12788
-0.129163
-0.130401
-0.131596
-0.132749
-0.133863
-0.134938
-0.135978
-0.136983
-0.137956
-0.138899
-0.139814
-0.140704
-0.141571
-0.142419
-0.143251
-0.14407
-0.14488
-0.145686
-0.146491
-0.1473
-0.148119
-0.148953
-0.149808
-0.15069
-0.151605
-0.152559
-0.153558
-0.154609
-0.155716
-0.156886
-0.15812
-0.159214
-0.160104
-0.160997
-0.16189
-0.162781
-0.163667
-0.164544
-0.165405
-0.166247
-0.167065
-0.167855
-0.16861
-0.169328
-0.170004
-0.170634
-0.171218
-0.171751
-0.172234
-0.172667
-0.173047
-0.173382
-0.173661
-0.173918
-0.174075
-0.174367
-0.106236
-0.0684041
-0.0713496
-0.0736341
-0.0739851
-0.0758371
-0.0781913
-0.0805702
-0.0830352
-0.0855511
-0.0880605
-0.09054
-0.0929796
-0.095368
-0.0976991
-0.0999686
-0.102175
-0.104316
-0.106391
-0.108402
-0.110348
-0.112231
-0.114052
-0.115812
-0.117513
-0.119155
-0.120741
-0.122273
-0.123752
-0.125179
-0.126556
-0.127885
-0.129168
-0.130406
-0.1316
-0.132753
-0.133866
-0.134941
-0.135979
-0.136983
-0.137954
-0.138895
-0.139806
-0.140692
-0.141554
-0.142395
-0.143218
-0.144026
-0.144822
-0.14561
-0.146394
-0.147178
-0.147967
-0.148765
-0.149576
-0.150405
-0.151258
-0.152139
-0.153051
-0.154
-0.154988
-0.156017
-0.157087
-0.158019
-0.158768
-0.159509
-0.16024
-0.160958
-0.161659
-0.162341
-0.162999
-0.163629
-0.164228
-0.164792
-0.165319
-0.165807
-0.166252
-0.166655
-0.167014
-0.16733
-0.167603
-0.167834
-0.168024
-0.168177
-0.168289
-0.168382
-0.168407
-0.168524
-0.1049
-0.0686883
-0.0712007
-0.0737531
-0.0740205
-0.075845
-0.0782101
-0.0805852
-0.0830478
-0.0855626
-0.0880707
-0.0905486
-0.0929869
-0.0953741
-0.0977042
-0.0999729
-0.102178
-0.104318
-0.106394
-0.108404
-0.11035
-0.112233
-0.114053
-0.115813
-0.117514
-0.119156
-0.120742
-0.122274
-0.123752
-0.125179
-0.126557
-0.127886
-0.129168
-0.130406
-0.1316
-0.132752
-0.133865
-0.134938
-0.135975
-0.136977
-0.137946
-0.138882
-0.13979
-0.140669
-0.141523
-0.142354
-0.143165
-0.143957
-0.144734
-0.145498
-0.146253
-0.147002
-0.147748
-0.148494
-0.149244
-0.150001
-0.150768
-0.151548
-0.152343
-0.153154
-0.153981
-0.154824
-0.155679
-0.156405
-0.156975
-0.157527
-0.158058
-0.158567
-0.159051
-0.159507
-0.159933
-0.160326
-0.160684
-0.161006
-0.161291
-0.161537
-0.161746
-0.161917
-0.16205
-0.162147
-0.16221
-0.16224
-0.162238
-0.162208
-0.16215
-0.162074
-0.161959
-0.161887
-0.103923
-0.0687368
-0.0710989
-0.0738272
-0.0740499
-0.075853
-0.0782176
-0.0805842
-0.0830418
-0.0855541
-0.0880592
-0.0905354
-0.0929726
-0.0953591
-0.0976886
-0.099957
-0.102162
-0.104303
-0.106378
-0.108388
-0.110335
-0.112218
-0.114039
-0.115799
-0.1175
-0.119142
-0.120729
-0.122261
-0.12374
-0.125167
-0.126545
-0.127874
-0.129157
-0.130394
-0.131588
-0.13274
-0.133852
-0.134925
-0.13596
-0.13696
-0.137925
-0.138858
-0.139759
-0.140632
-0.141477
-0.142296
-0.143091
-0.143865
-0.144618
-0.145354
-0.146074
-0.14678
-0.147475
-0.14816
-0.148838
-0.14951
-0.150177
-0.150839
-0.151498
-0.152151
-0.152797
-0.153432
-0.154053
-0.154555
-0.154936
-0.155291
-0.155619
-0.155918
-0.156187
-0.156425
-0.156629
-0.1568
-0.156937
-0.15704
-0.157109
-0.157146
-0.15715
-0.157124
-0.157069
-0.156986
-0.156877
-0.156745
-0.156592
-0.15642
-0.15623
-0.156026
-0.155805
-0.155593
-0.103453
-0.0687239
-0.0710437
-0.073838
-0.0740441
-0.0758394
-0.0782029
-0.0805655
-0.08302
-0.0855307
-0.0880341
-0.09051
-0.092947
-0.0953333
-0.0976632
-0.099932
-0.102138
-0.104279
-0.106355
-0.108366
-0.110313
-0.112197
-0.114018
-0.115779
-0.117481
-0.119124
-0.120711
-0.122244
-0.123723
-0.125151
-0.126529
-0.127858
-0.129141
-0.130379
-0.131573
-0.132724