/*--------------------------------*- C++ -*----------------------------------*\
| =========                 |                                                 |
| \\      /  F ield         | OpenFOAM: The Open Source CFD Toolbox           |
|  \\    /   O peration     | Version:  2306                                  |
|   \\  /    A nd           | Website:  www.openfoam.com                      |
|    \\/     M anipulation  |                                                 |
\*---------------------------------------------------------------------------*/
FoamFile
{
    version     2.0;
    format      ascii;
    arch        "LSB;label=32;scalar=64";
    class       volScalarField;
    location    "1600";
    object      epsilon;
}
// * * * * * * * * * * * * * * * * * * * * * * * * * * * * * * * * * * * * * //

dimensions      [0 2 -3 0 0 0 0];

internalField   nonuniform List<scalar> 
20540
(
54863.3
81528.5
54856.5
81524.3
54790.2
81493.3
54670.7
81438.6
54486.3
81354.5
54222.2
81234.3
53861.1
81070
53381.9
80852.3
52759.7
80570.6
51964.9
80212
50962.6
79761.6
49712.3
79201.3
48168.4
78509.5
46280.6
77660.8
43997.2
76621.2
41268.1
75342.2
38051.2
73756.8
34320.8
71776.8
30078.9
69288.9
25372.5
66136.4
20329.1
62093.6
15209.9
56819.6
10430.2
49879.5
6308.39
41128.1
3262.16
30763
1639.45
19561.4
905.877
9171.33
544.813
2876.86
380.845
881.794
318.383
414.411
291.043
307.603
281.689
278.242
281.807
277.602
291.174
305.432
318.009
404.093
377.434
806.819
529.735
2462.62
866.302
7909.96
1528.01
17652.7
2974.79
28543.9
5809.5
38876.3
9763.92
47820.6
14444.9
55072
19544.4
60691.5
24659.3
65057.1
29516
68505.3
33970.9
71260.2
37954.1
73478.5
41444.4
75274.7
44451.3
76734.5
47004.7
77928.3
49146.2
78909.4
50922.7
79717.8
52381.8
80381
53568.9
80921.6
54525.2
81358.8
55287.4
81708.6
55886.9
81984.7
56350.8
82198.9
56702
82361.3
56959.8
82480.6
57140.4
82564.2
57257.3
82618.6
57321
82649
57340.1
82658.8
6.42478e+06
2.51308e+06
1.98533e+06
1.70698e+06
1.54461e+06
1.44342e+06
1.37495e+06
1.3259e+06
1.28956e+06
1.26184e+06
1.24022e+06
1.22303e+06
1.2092e+06
1.1979e+06
1.18865e+06
1.18089e+06
1.17449e+06
1.16903e+06
1.16447e+06
1.16055e+06
1.15721e+06
1.15434e+06
1.15186e+06
1.14971e+06
1.14783e+06
1.14619e+06
1.14476e+06
1.14348e+06
1.14236e+06
1.14136e+06
1.14047e+06
1.13966e+06
1.13895e+06
1.13829e+06
1.13772e+06
1.13718e+06
1.13671e+06
1.13627e+06
1.13589e+06
1.13554e+06
1.13525e+06
1.13498e+06
1.13478e+06
1.13461e+06
1.13451e+06
1.13446e+06
1.1345e+06
1.1346e+06
1.13483e+06
1.13513e+06
1.13556e+06
1.13613e+06
1.13686e+06
1.13777e+06
1.13889e+06
1.14024e+06
1.14184e+06
1.14377e+06
1.14599e+06
1.14862e+06
1.15164e+06
1.15517e+06
1.15919e+06
1.1631e+06
1.16644e+06
1.17007e+06
1.17389e+06
1.17801e+06
1.18232e+06
1.18693e+06
1.19176e+06
1.19692e+06
1.20232e+06
1.20807e+06
1.21415e+06
1.22063e+06
1.22765e+06
1.23496e+06
1.24338e+06
1.25159e+06
1.26244e+06
1.27111e+06
1.28761e+06
1.29356e+06
1.3244e+06
1.3287e+06
1.40558e+06
1.24661e+06
2.27626e+06
925399
725708
621350
560452
522542
496994
478741
465240
454958
446947
440584
435470
431293
427874
425008
422646
420633
418950
417506
416271
415213
414300
413506
412815
412211
411681
411212
410798
410428
410100
409803
409540
409298
409085
408885
408712
408548
408407
408275
408164
408063
407984
407916
407872
407844
407845
407866
407930
408017
408149
408323
408551
408837
409187
409617
410123
410734
411439
412276
413231
414353
415625
416859
417915
419062
420255
421548
422887
424321
425812
427402
429049
430809
432636
434599
436660
438845
441240
443659
446625
449112
453519
454897
462946
463295
480068
460753
1.14459e+06
530954
434590
379403
344948
322757
307492
296435
288183
281861
276914
272972
269795
267196
265064
263276
261799
260540
259486
258581
257807
257144
256571
256072
255638
255259
254926
254632
254372
254139
253933
253747
253582
253430
253296
253171
253062
252960
252871
252789
252720
252657
252607
252565
252538
252521
252522
252536
252576
252631
252714
252825
252968
253148
253368
253638
253956
254339
254781
255305
255903
256603
257397
258163
258818
259528
260264
261059
261882
262759
263670
264636
265638
266696
267799
268957
270188
271444
272854
274189
275913
277192
279682
280332
284334
284098
290722
287598
704469
336596
285492
255272
234968
221340
211728
204645
199299
195171
191923
189323
187222
185498
184081
182890
181905
181065
180360
179755
179237
178793
178408
178074
177783
177528
177305
177107
176933
176776
176638
176513
176402
176300
176210
176127
176054
175985
175926
175871
175824
175782
175749
175720
175702
175690
175691
175700
175725
175761
175816
175888
175983
176101
176246
176423
176632
176883
177173
177515
177906
178363
178881
179378
179803
180261
180736
181246
181773
182332
182912
183522
184156
184816
185507
186217
186977
187727
188582
189345
190369
191046
192458
192792
194715
194492
196845
194042
493577
227981
195406
178006
165629
156950
150656
145929
142312
139494
137262
135466
134009
132811
131823
130992
130303
129715
129220
128796
128432
128119
127849
127613
127408
127229
127071
126932
126808
126698
126601
126512
126434
126362
126299
126240
126188
126139
126097
126058
126025
125995
125971
125950
125935
125926
125924
125928
125942
125964
125998
126043
126102
126177
126268
126381
126514
126674
126858
127076
127324
127614
127941
128256
128522
128811
129107
129425
129752
130097
130453
130826
131210
131609
132020
132443
132884
133321
133801
134229
134782
135132
135851
136012
136785
136670
137143
135681
373728
163940
138529
127836
120172
114576
110391
107172
104666
102691
101112
99834.5
98792.3
97931.4
97219.9
96619.7
96120.6
95694
95334.6
95025.7
94760.6
94532.7
94335.2
94163.4
94013.4
93882.1
93766.8
93664.7
93574.4
93493.7
93422.1
93357.4
93299.9
93247.2
93200.6
93157.1
93119.2
93083.5
93052.4
93023.4
92998.6
92975.8
92957.3
92941
92929.3
92920.6
92917.2
92917.6
92924.5
92936.5
92956.2
92983
93019.3
93065.3
93122.3
93192.6
93275.6
93375.9
93491.1
93628
93782.8
93964.2
94168
94364
94528.3
94707.8
94889.8
95085.5
95283.9
95494.2
95707.7
95932
96158.2
96394.8
96631.6
96878.6
97124.3
97374.6
97628.7
97865.4
98142.1
98316.1
98648.1
98717.7
98938.8
98885.2
98534
98878.5
296734
124155
101247
93885.3
89053
85461.5
82693.7
80504.8
78762.9
77367.5
76239.5
75318
74561.1
73932.4
73410.4
72968.5
72599.9
72284
72017.3
71787.7
71590.2
71420.2
71272.7
71144.2
71031.9
70933.6
70847.1
70770.4
70702.7
70642
70588.2
70539.5
70496.3
70456.6
70421.5
70388.7
70360
70333
70309.4
70287.3
70268.3
70250.6
70236.1
70222.9
70213
70205
70200.6
70198.6
70201.1
70206.6
70217.1
70232.2
70253.2
70280.5
70314.5
70357.1
70407.3
70468.6
70538.5
70622.3
70716.2
70827.1
70950.1
71069.4
71167.8
71276.5
71384.9
71502.1
71618.8
71743.2
71866.5
71997.3
72124.7
72260.6
72389.5
72529
72656.2
72794.3
72916.6
73040.4
73162
73241.9
73361.9
73382.1
73369.3
73307.1
72827.2
73819.8
242999
98211.4
76157.8
70225.5
67002
64703.1
62906.8
61446.2
60252.6
59276.3
58474.6
57811.5
57261.5
56801.2
56416.5
56089.2
55815
55579.1
55379.4
55206.9
55058.2
54930
54818.6
54721.3
54636.2
54561.5
54495.8
54437.5
54385.9
54339.6
54298.6
54261.5
54228.4
54198.1
54171.2
54146.1
54124.1
54103.3
54085.1
54067.9
54053.1
54039.1
54027.5
54016.7
54008.2
54000.8
53996
53992.5
53992.3
53993.7
53998.3
54005.6
54016.7
54031.6
54050.5
54074.8
54103.3
54138.8
54178.9
54227.7
54281.6
54346
54416.2
54485.4
54540.9
54603.5
54664.3
54730.9
54795.3
54864.7
54930.9
55002.5
55068.3
55141.1
55204
55276.4
55333.8
55402
55450.5
55505.4
55543.6
55569.8
55581.7
55570
55490.6
55390.1
54949.3
56057.3
203324
80527.1
58943.2
53455.2
51027.1
49508.4
48361.7
47416.2
46622.5
45957.2
45399.6
44930.8
44536.8
44203.4
43922.4
43681.5
43478.7
43303.1
43153.9
43024.5
42912.6
42815.9
42731.6
42657.8
42593.2
42536.3
42486.2
42441.7
42402.2
42366.8
42335.4
42306.9
42281.5
42258.1
42237.5
42218.1
42201.1
42184.9
42170.8
42157.4
42145.7
42134.6
42125.2
42116.2
42109
42102.4
42097.5
42093.3
42091.4
42090.3
42091.1
42093.5
42098.2
42104.9
42114
42126.2
42140.6
42159.1
42179.7
42205.4
42233.2
42267.2
42303
42339.5
42367.6
42400.1
42430.4
42464.3
42495.6
42529.9
42560.5
42594.6
42622.7
42655.9
42679.9
42710
42728.2
42752.6
42761.7
42774.3
42771
42763.1
42735.4
42699.5
42603.4
42490.5
42117.3
43129.7
172847
67983.2
46923.2
41459.9
39319.9
38205.8
37459.6
36864
36357.5
35922.8
35549.9
35229.8
34956.1
34721.1
34520.8
34347.2
34200
34071.5
33961.8
33866
33782.9
33710.8
33647.6
33592.2
33543.5
33500.6
33462.7
33428.9
33398.9
33372
33348
33326.2
33306.8
33288.9
33273.1
33258.1
33245
33232.5
33221.6
33211.1
33201.9
33193.1
33185.5
33178.2
33172.1
33166.2
33161.6
33157.2
33154.3
33151.8
33150.4
33149.8
33150.4
33152
33154.8
33159.3
33164.6
33172.1
33180.2
33191.1
33202.1
33216.6
33230.5
33246.1
33256.8
33270.2
33281.5
33294.6
33305.5
33317.8
33326.8
33337.9
33343.7
33352.7
33354.4
33358.7
33356
33353.9
33343.8
33333.8
33309.4
33286.9
33238.9
33194.8
33101.9
32994.3
32684.2
33532.6
148754
58770.7
38377.2
32828
30703.7
29735.2
29195.4
28814.3
28502.4
28233.1
27997.8
27791
27610.5
27452.6
27315.9
27195.7
27092.8
27002
26923.9
26855.1
26795.1
26742.7
26696.7
26656
26620.2
26588.5
26560.5
26535.4
26513
26492.9
26474.9
26458.6
26444
26430.5
26418.5
26407.2
26397.3
26387.7
26379.4
26371.3
26364.2
26357.3
26351.3
26345.3
26340.2
26335.2
26331.1
26326.8
26323.6
26320.4
26317.8
26315.5
26313.7
26312.3
26311.2
26311
26310.7
26311.5
26311.8
26313.5
26314.2
26316.7
26317.3
26319.8
26320.1
26321.8
26321.6
26322.2
26321.1
26320.2
26316.9
26314.4
26307.7
26302.9
26292.2
26284.2
26268.1
26255.8
26232
26214.1
26178.7
26151.3
26097.9
26052.8
25968.7
25876
25623.7
26292.9
129296
51799.4
32187.8
26576.5
24358.7
23380.1
22904.6
22628.4
22431.6
22271.4
22132.9
22009.6
21899.8
21801.5
21714.9
21637.1
21569.8
21509.3
21456.9
21410.2
21369
21332.9
21300.9
21272.5
21247.3
21224.9
21204.9
21187
21171.1
21156.6
21143.7
21131.8
21121.3
21111.4
21102.7
21094.3
21087.1
21080
21073.8
21067.7
21062.4
21057.1
21052.5
21047.8
21043.8
21039.6
21036.1
21032.2
21029.1
21025.7
21022.7
21019.5
21016.5
21013.5
21010.3
21007.5
21004
21001
20996.7
20993.3
20987.9
20983.7
20976.3
20971.8
20965.9
20961.5
20954.4
20948.7
20940.1
20933.1
20922
20913.4
20899.3
20888.7
20870.9
20857.7
20835.1
20818.8
20789.6
20769.2
20730.7
20703
20651.5
20608.5
20535.7
20459.5
20260.5
20764.7
113322
46385.5
27625.9
22012.6
19685.7
18624.5
18122.9
17868.6
17720.9
17620.3
17541.9
17474.8
17415.3
17361.2
17312.7
17267.9
17228.7
17192.5
17160.9
17132.1
17106.5
17083.8
17063.4
17045.2
17028.9
17014.3
17001.3
16989.4
16978.8
16969.1
16960.5
16952.5
16945.4
16938.6
16932.7
16926.9
16921.9
16917
16912.6
16908.3
16904.5
16900.7
16897.3
16893.8
16890.7
16887.5
16884.6
16881.4
16878.5
16875.4
16872.3
16869
16865.6
16862
16857.8
16853.8
16848.6
16843.8
16837.3
16831.4
16822.8
16815.3
16803.9
16796
16786.9
16779.6
16769.1
16760.6
16748.3
16738.6
16724.1
16713
16695.8
16683
16662.6
16647.9
16623.4
16606.4
16576.6
16556.5
16519.6
16493.6
16447.4
16409.4
16346.7
16285.3
16133.5
16502.3
100039
42081.2
24211.9
18650.3
16239.3
15078.7
14506.3
14219.7
14070.7
13987.8
13936.8
13900.8
13872.4
13847.7
13826
13805.4
13787.2
13769.8
13754.4
13740
13726.9
13715.1
13704.4
13694.6
13685.7
13677.7
13670.4
13663.8
13657.8
13652.2
13647.2
13642.5
13638.3
13634.3
13630.8
13627.2
13624.2
13621.1
13618.4
13615.6
13613.2
13610.7
13608.5
13606.1
13603.9
13601.5
13599.3
13596.8
13594.5
13591.7
13589
13586
13582.6
13579
13574.6
13570.3
13564.7
13559.3
13552
13545.2
13535.5
13527
13514.1
13505.1
13494.9
13486.7
13475
13465.7
13452.3
13442
13426.7
13415.2
13397.6
13384.7
13364.5
13350.1
13326.7
13310.5
13282.9
13264.3
13231.3
13208.2
13168.1
13136.3
13083.2
13033.8
12920.8
13188.7
88890.5
38579.3
21627
16152.1
13690
12442.2
11787.5
11441.7
11258.7
11162.1
11111.2
11083.8
11068.6
11059.1
11053
11047.7
11043.6
11039.4
11035.8
11032.2
11028.6
11025.3
11022.1
11019.1
11016.3
11013.6
11011.2
11008.8
11006.6
11004.5
11002.6
11000.7
10999.1
10997.4
10996
10994.3
10993
10991.6
10990.3
10988.9
10987.7
10986.4
10985.2
10983.7
10982.4
10980.9
10979.4
10977.6
10975.9
10973.8
10971.6
10969
10966
10962.8
10958.7
10954.7
10949.3
10944.2
10937
10930.4
10920.8
10912.5
10899.9
10891
10880.9
10873
10861.6
10852.7
10839.8
10829.9
10815.4
10804.6
10788.2
10776.3
10757.9
10744.7
10723.7
10709.2
10685
10668.6
10640.1
10620.5
10586.3
10560.5
10516.6
10476.5
10394.5
10589.4
79486.2
35656.3
19655.2
14284.9
11798.2
10484.4
9755.04
9343.43
9110.89
8980.97
8910.35
8873.44
8855.79
8848.47
8847.34
8848.56
8851.44
8854.71
8858.21
8861.48
8864.3
8866.93
8869.25
8871.2
8872.89
8874.33
8875.61
8876.62
8877.54
8878.22
8878.88
8879.3
8879.77
8879.97
8880.29
8880.29
8880.42
8880.37
8880.34
8880.16
8880.01
8879.66
8879.37
8878.85
8878.31
8877.53
8876.8
8875.72
8874.6
8873.13
8871.47
8869.52
8867.06
8864.49
8861
8857.6
8852.78
8848.31
8841.79
8835.97
8827.29
8819.77
8808.38
8800.33
8791.2
8784.01
8773.73
8765.75
8754.18
8745.42
8732.52
8722.92
8708.56
8698.05
8682.05
8670.57
8652.59
8640.03
8619.49
8605.52
8581.65
8565.28
8536.85
8516.16
8480.55
8448.22
8389.48
8530.89
71537.6
33135.8
18147
12888
10392.5
9032
8242.31
7770.64
7485.87
7314.29
7212.58
7153.86
7121.86
7105.86
7100.09
7099.84
7102.77
7107.73
7113.49
7119.66
7125.51
7131.25
7136.66
7141.6
7146.13
7150.25
7154.04
7157.4
7160.49
7163.19
7165.72
7167.86
7169.92
7171.6
7173.28
7174.58
7175.87
7176.91
7177.89
7178.64
7179.38
7179.86
7180.34
7180.57
7180.67
7180.6
7180.5
7180.06
7179.51
7178.66
7177.6
7176.26
7174.43
7172.53
7169.71
7167.04
7163.02
7159.37
7153.83
7148.97
7141.54
7135.16
7125.41
7118.49
7110.66
7104.46
7095.67
7088.8
7078.97
7071.43
7060.51
7052.26
7040.19
7031.2
7017.84
7008.06
6993.15
6982.5
6965.6
6953.85
6934.31
6920.84
6897.64
6881.18
6852.66
6828.12
6785.09
6887.57
64799.6
30909.7
16996.8
11849.3
9351.72
7957.51
7121.28
6599.73
6267.62
6054.34
5917.78
5831.12
5777.5
5745.26
5727.57
5718.83
5716.22
5717.3
5720.65
5725.73
5731.12
5737
5742.97
5748.69
5754.17
5759.35
5764.25
5768.74
5772.95
5776.75
5780.33
5783.51
5786.54
5789.15
5791.69
5793.85
5795.93
5797.7
5799.4
5800.82
5802.19
5803.28
5804.32
5805.11
5805.8
5806.24
5806.62
5806.64
5806.6
5806.27
5805.76
5804.95
5803.72
5802.43
5800.3
5798.34
5795.15
5792.33
5787.83
5783.94
5777.86
5772.64
5764.65
5758.89
5752.45
5747.27
5740.05
5734.29
5726.24
5719.89
5710.99
5704.04
5694.22
5686.66
5675.82
5667.61
5655.56
5646.64
5633.04
5623.24
5607.58
5596.54
5577.99
5564.93
5542.46
5524.33
5492.84
5566.66
59016.2
28959.4
16127.9
11089.8
8590.13
7168.92
6296.06
5734.36
5362.39
5111.85
4941.92
4826.35
4748.36
4696.02
4661.99
4640.19
4627.3
4620.32
4617.47
4617.74
4619.38
4622.57
4626.55
4630.78
4635.22
4639.73
4644.2
4648.46
4652.58
4656.41
4660.11
4663.48
4666.73
4669.62
4672.43
4674.9
4677.29
4679.38
4681.4
4683.13
4684.8
4686.22
4687.56
4688.67
4689.68
4690.45
4691.14
4691.56
4691.83
4691.8
4691.69
4691.25
4690.58
4689.77
4688.24
4686.87
4684.43
4682.31
4678.8
4675.76
4670.96
4666.76
4660.43
4655.72
4650.6
4646.32
4640.58
4635.81
4629.41
4624.14
4617.07
4611.28
4603.49
4597.19
4588.6
4581.76
4572.21
4564.79
4554.04
4545.92
4533.56
4524.55
4509.99
4499.69
4482.25
4469.11
4446.13
4498.86
53946.5
27271.7
15481.6
10551.3
8046.5
6600.09
5696.17
5101.45
4696.56
4414.44
4215.1
4072.84
3971.1
3898.02
3846.08
3809.03
3783.25
3765.47
3753.61
3746.27
3741.83
3739.79
3739.53
3740.18
3741.72
3743.85
3746.34
3748.98
3751.75
3754.48
3757.28
3759.91
3762.55
3764.96
3767.36
3769.52
3771.65
3773.55
3775.4
3777.02
3778.6
3779.98
3781.3
3782.42
3783.46
3784.29
3785.05
3785.59
3786.02
3786.18
3786.2
3785.95
3785.65
3785.11
3784.07
3783.09
3781.25
3779.64
3776.95
3774.56
3770.85
3767.47
3762.56
3758.73
3754.73
3751.23
3746.75
3742.82
3737.83
3733.48
3727.96
3723.17
3717.09
3711.87
3705.15
3699.48
3692.03
3685.88
3677.5
3670.8
3661.2
3653.88
3642.63
3634.55
3621.24
3611.83
3595.12
3632.35
49336.6
25835
15008.3
10187.9
7675.07
6202.74
5270.04
4646.58
4213.8
3905.09
3680.71
3515.2
3392.14
3299.75
3230.45
3178.04
3138.66
3108.98
3086.74
3070.29
3058.08
3049.21
3043.01
3038.63
3035.77
3034.05
3033.23
3033
3033.25
3033.82
3034.72
3035.71
3036.89
3038.05
3039.32
3040.51
3041.76
3042.91
3044.09
3045.11
3046.16
3047.1
3048
3048.78
3049.51
3050.09
3050.62
3051.01
3051.32
3051.42
3051.41
3051.19
3050.94
3050.5
3049.67
3048.87
3047.43
3046.12
3044.02
3042.06
3039.17
3036.39
3032.57
3029.42
3026.32
3023.43
3019.95
3016.71
3012.84
3009.25
3004.96
3001.01
2996.29
2991.98
2986.77
2982.09
2976.31
2971.24
2964.77
2959.28
2951.91
2946
2937.45
2931.15
2921.13
2914.48
2902.33
2928.22
44901.4
24611.9
14657.5
9957.45
7438.11
5939.42
4978.82
4328.9
3871.48
3539.83
3294.07
3108.68
2967.16
2857.79
2772.86
2706.25
2653.94
2612.61
2579.89
2553.98
2533.38
2516.99
2504.03
2493.7
2485.52
2479.03
2473.96
2469.95
2466.84
2464.39
2462.57
2461.14
2460.13
2459.34
2458.84
2458.46
2458.26
2458.13
2458.11
2458.06
2458.16
2458.24
2458.34
2458.43
2458.45
2458.46
2458.45
2458.43
2458.3
2458.17
2457.85
2457.49
2456.94
2456.4
2455.51
2454.67
2453.38
2452.13
2450.36
2448.61
2446.25
2443.85
2440.78
2438.12
2435.65
2433.24
2430.48
2427.79
2424.74
2421.76
2418.4
2415.14
2411.44
2407.89
2403.83
2399.98
2395.5
2391.35
2386.37
2381.91
2376.3
2371.56
2365.16
2360.28
2352.85
2348.15
2339.32
2356.97
40327
23474.1
14365.1
9813.4
7298.3
5776.87
4790.3
4115.93
3636.26
3284.38
3020.08
2817.62
2660.31
2536.35
2437.87
2358.79
2294.94
2243.01
2200.56
2165.71
2136.97
2113.14
2093.37
2076.86
2063.06
2051.46
2041.72
2033.46
2026.49
2020.53
2015.5
2011.15
2007.46
2004.24
2001.49
1999.07
1997
1995.15
1993.55
1992.1
1990.83
1989.68
1988.65
1987.69
1986.81
1985.96
1985.15
1984.38
1983.58
1982.83
1981.99
1981.18
1980.22
1979.29
1978.16
1977.05
1975.67
1974.28
1972.58
1970.82
1968.7
1966.47
1963.83
1961.48
1959.42
1957.33
1955.06
1952.77
1950.29
1947.79
1945.08
1942.36
1939.41
1936.48
1933.27
1930.1
1926.6
1923.21
1919.38
1915.76
1911.54
1907.73
1903.05
1899.18
1893.9
1890.25
1884.1
1895.79
35194.3
22270.4
14035.7
9692.19
7209.76
5678.44
4672.5
3977.87
3479.21
3109.97
2829.84
2612.89
2442.21
2305.92
2195.97
2106.26
2032.51
1971.4
1920.41
1877.63
1841.53
1810.9
1784.82
1762.47
1743.28
1726.69
1712.34
1699.82
1688.92
1679.34
1670.93
1663.48
1656.91
1651.04
1645.82
1641.13
1636.94
1633.13
1629.71
1626.58
1623.74
1621.13
1618.74
1616.53
1614.47
1612.55
1610.73
1609.03
1607.38
1605.82
1604.26
1602.78
1601.25
1599.77
1598.19
1596.64
1594.96
1593.27
1591.41
1589.49
1587.36
1585.12
1582.63
1580.43
1578.58
1576.69
1574.71
1572.69
1570.57
1568.41
1566.14
1563.83
1561.4
1558.94
1556.34
1553.73
1550.94
1548.17
1545.19
1542.27
1539.07
1536.05
1532.6
1529.57
1525.79
1522.98
1518.66
1526.17
29080.4
20679.6
13511
9495.7
7105.26
5594.26
4585.56
3880.74
3369.84
2988.22
2696.18
2468.01
2286.79
2140.68
2021.5
1923.17
1841.34
1772.64
1714.54
1665.09
1622.75
1586.27
1554.7
1527.23
1503.24
1482.17
1463.62
1447.19
1432.62
1419.62
1408.01
1397.58
1388.21
1379.74
1372.08
1365.11
1358.77
1352.98
1347.68
1342.81
1338.32
1334.18
1330.35
1326.79
1323.47
1320.37
1317.45
1314.72
1312.11
1309.65
1307.27
1305.01
1302.78
1300.64
1298.5
1296.41
1294.29
1292.18
1290
1287.79
1285.47
1283.08
1280.56
1278.38
1276.59
1274.79
1272.95
1271.09
1269.18
1267.23
1265.24
1263.22
1261.13
1259.02
1256.85
1254.65
1252.37
1250.09
1247.71
1245.35
1242.87
1240.48
1237.88
1235.53
1232.76
1230.63
1227.47
1232.14
21994.5
17948
12531.6
9066.31
6878.23
5447.59
4470.8
3777.33
3268.43
2884.38
2587.76
2354.01
2166.77
2014.52
1889.23
1784.96
1697.34
1623.09
1559.68
1505.15
1457.97
1416.89
1380.96
1349.36
1321.45
1296.67
1274.62
1254.89
1237.2
1221.26
1206.87
1193.82
1181.98
1171.18
1161.32
1152.29
1144
1136.37
1129.33
1122.83
1116.81
1111.21
1106.01
1101.16
1096.62
1092.38
1088.39
1084.63
1081.08
1077.72
1074.51
1071.46
1068.53
1065.71
1062.96
1060.3
1057.67
1055.1
1052.52
1049.96
1047.37
1044.75
1042.06
1039.8
1038
1036.21
1034.41
1032.61
1030.79
1028.98
1027.14
1025.3
1023.44
1021.57
1019.67
1017.77
1015.84
1013.92
1011.96
1010.02
1008.03
1006.12
1004.09
1002.25
1000.13
998.519
996.078
998.886
14163.7
13459.4
10773.4
8162.04
6360.89
5117.74
4237.05
3595.78
3116.22
2748.84
2461.52
2232.65
2047.46
1895.51
1769.33
1663.41
1573.66
1496.94
1430.88
1373.58
1323.59
1279.7
1240.99
1206.67
1176.1
1148.76
1124.23
1102.12
1082.13
1064
1047.52
1032.48
1018.73
1006.12
994.53
983.856
974.005
964.894
956.449
948.61
941.317
934.522
928.176
922.245
916.683
911.468
906.557
901.934
897.561
893.426
889.495
885.757
882.182
878.761
875.464
872.286
869.195
866.188
863.235
860.332
857.446
854.577
851.693
849.325
847.458
845.626
843.816
842.026
840.253
838.496
836.75
835.016
833.289
831.574
829.864
828.168
826.474
824.801
823.125
821.485
819.828
818.241
816.592
815.106
813.408
812.164
810.162
811.809
6126.45
7956.23
7563.15
6461.72
5318.62
4430.12
3749.51
3229
2825.59
2508.06
2254.37
2048.7
1879.77
1739.3
1621.25
1521.06
1435.28
1361.25
1296.91
1240.62
1191.08
1147.25
1108.28
1073.47
1042.25
1014.13
988.722
965.684
944.732
925.619
908.139
892.109
877.377
863.804
851.275
839.685
828.944
818.972
809.696
801.056
792.993
785.459
778.405
771.794
765.585
759.748
754.248
749.061
744.155
739.511
735.101
730.909
726.908
723.086
719.418
715.892
712.484
709.186
705.972
702.837
699.751
696.713
693.697
691.253
689.345
687.49
685.675
683.9
682.159
680.45
678.772
677.122
675.499
673.904
672.333
670.791
669.27
667.782
666.313
664.886
663.464
662.112
660.726
659.485
658.075
657.08
655.368
656.312
1594.01
3005.36
3768.1
3759.57
3585.59
3222.17
2860.89
2550.51
2287.84
2067.98
1884.11
1729.54
1598.74
1487.25
1391.52
1308.75
1236.7
1173.59
1118.01
1068.78
1024.98
985.823
950.675
919.002
890.362
864.375
840.726
819.142
799.391
781.27
764.609
749.254
735.075
721.957
709.796
698.505
688.004
678.221
669.094
660.567
652.589
645.115
638.102
631.515
625.317
619.48
613.972
608.769
603.845
599.178
594.746
590.53
586.509
582.668
578.986
575.451
572.043
568.751
565.554
562.447
559.405
556.424
553.484
551.122
549.288
547.516
545.795
544.12
542.49
540.903
539.355
537.846
536.374
534.939
533.538
532.174
530.843
529.549
528.285
527.065
525.864
524.724
523.574
522.542
521.385
520.583
519.139
519.64
536.934
813.851
1215.65
1465.14
1625.89
1645.64
1620.55
1560.86
1476.24
1390.61
1308.87
1232.6
1162.79
1099.5
1042.37
990.882
944.464
902.573
864.705
830.403
799.266
770.936
745.103
721.495
699.873
680.028
661.78
644.965
629.445
615.093
601.8
589.467
578.008
567.346
557.411
548.14
539.479
531.377
523.79
516.675
509.996
503.719
497.812
492.249
487.003
482.049
477.366
472.933
468.73
464.741
460.947
457.334
453.885
450.587
447.425
444.388
441.462
438.635
435.895
433.233
430.635
428.093
425.598
423.607
422.068
420.587
419.155
417.769
416.426
415.126
413.866
412.645
411.461
410.315
409.205
408.131
407.09
406.086
405.113
404.177
403.268
402.402
401.547
400.766
399.925
399.319
398.245
398.451
335.611
392.591
498.304
598.897
691.768
756.962
795.59
817.86
817.605
811.909
798.652
778.881
757.202
734.685
711.98
689.682
668.123
647.499
627.918
609.421
592.012
575.664
560.339
545.986
532.552
519.98
508.216
497.205
486.895
477.238
468.187
459.7
451.736
444.258
437.233
430.627
424.412
418.56
413.046
407.846
402.941
398.307
393.929
389.788
385.868
382.154
378.632
375.288
372.111
369.088
366.209
363.462
360.84
358.329
355.924
353.613
351.393
349.249
347.181
345.174
343.231
341.335
339.495
338.046
336.935
335.875
334.859
333.884
332.949
332.052
331.192
330.368
329.579
328.823
328.1
327.408
326.747
326.115
325.512
324.936
324.387
323.863
323.362
322.889
322.426
322.019
321.521
321.436
284.503
302.564
340.652
387.769
436.632
481.436
516.842
545.046
563.194
574.116
578.809
577.968
574.637
568.367
559.679
549.78
539.123
528.068
516.887
505.774
494.869
484.268
474.033
464.204
454.801
445.834
437.301
429.196
421.508
414.222
407.322
400.79
394.608
388.759
383.224
377.986
373.03
368.337
363.895
359.687
355.701
351.923
348.341
344.943
341.719
338.658
335.752
332.99
330.365
327.867
325.491
323.227
321.072
319.016
317.056
315.182
313.396
311.683
310.049
308.477
306.979
305.529
304.155
303.09
302.285
301.529
300.814
300.138
299.501
298.902
298.341
297.816
297.327
296.871
296.446
296.051
295.683
295.339
295.019
294.719
294.439
294.177
293.931
293.701
293.483
293.278
293.081
292.917
283.415
300.705
336.099
382.034
429.318
473.876
509.47
537.76
556.798
568.081
573.695
573.212
570.329
564.827
556.556
547.034
536.709
525.941
515.008
504.109
493.388
482.946
472.848
463.138
453.839
444.961
436.508
428.472
420.845
413.613
406.76
400.269
394.125
388.309
382.804
377.593
372.661
367.991
363.569
359.381
355.413
351.653
348.088
344.709
341.504
338.463
335.579
332.843
330.248
327.785
325.449
323.232
321.131
319.138
317.25
315.459
313.767
312.162
310.65
309.216
307.87
306.593
305.407
304.518
303.86
303.255
302.695
302.177
301.697
301.255
300.846
300.471
300.125
299.808
299.517
299.251
299.007
298.784
298.58
298.394
298.225
298.069
297.927
297.797
297.679
297.564
297.479
297.314
330.636
384.345
474.659
571.993
658.939
725.902
765.893
790.798
794.693
790.79
780.64
763.396
743.853
723.209
702.093
681.124
660.685
641.008
622.227
604.41
587.579
571.727
556.826
542.838
529.72
517.422
505.895
495.091
484.963
475.465
466.554
458.19
450.336
442.956
436.018
429.491
423.347
417.56
412.107
406.965
402.114
397.536
393.213
389.129
385.271
381.625
378.179
374.92
371.839
368.927
366.176
363.578
361.128
358.817
356.642
354.595
352.676
350.876
349.196
347.628
346.173
344.823
343.585
342.689
342.038
341.453
340.923
340.445
340.015
339.629
339.285
338.978
338.707
338.469
338.26
338.078
337.922
337.785
337.672
337.576
337.494
337.422
337.362
337.305
337.288
337.15
337.155
336.962
513.349
766.181
1113.81
1370.64
1528.97
1571.61
1553.49
1506.38
1432.04
1354.11
1278.6
1207.22
1141.32
1081.19
1026.63
977.244
932.557
892.103
855.433
822.137
791.848
764.238
739.019
715.937
694.767
675.313
657.403
640.883
625.619
611.492
598.396
586.237
574.932
564.406
554.593
545.432
536.869
528.858
521.355
514.319
507.717
501.516
495.688
490.206
485.048
480.192
475.619
471.312
467.256
463.436
459.839
456.456
453.275
450.288
447.487
444.865
442.415
440.133
438.012
436.049
434.237
432.575
431.056
429.967
429.18
428.478
427.848
427.285
426.783
426.339
425.947
425.604
425.304
425.047
424.824
424.637
424.48
424.348
424.245
424.161
424.101
424.049
424.039
423.935
423.977
423.816
423.867
423.625
1414.02
2680.98
3419.41
3522.67
3389.94
3092.07
2764.25
2477.44
2231.24
2023.17
1847.93
1699.79
1573.84
1466.08
1373.25
1292.77
1222.55
1160.91
1106.51
1058.25
1015.24
976.729
942.117
910.89
882.619
856.941
833.55
812.181
792.609
774.64
758.104
742.854
728.763
715.717
703.618
692.379
681.921
672.178
663.086
654.592
646.647
639.209
632.237
625.698
619.559
613.794
608.376
603.285
598.498
594.001
589.773
585.805
582.08
578.592
575.324
572.275
569.43
566.789
564.337
562.078
559.996
558.096
556.364
555.123
554.229
553.433
552.721
552.087
551.524
551.027
550.59
550.21
549.88
549.597
549.356
549.154
548.987
548.85
548.74
548.661
548.58
548.6
548.361
548.383
548.419
548.415
548.287
548.066
5349.56
7282.25
7049.93
6192.35
5139.25
4311.27
3666.63
3168.78
2780.24
2472.88
2226.28
2025.71
1860.48
1722.76
1606.75
1508.09
1423.47
1350.32
1286.64
1230.84
1181.66
1138.09
1099.3
1064.61
1033.45
1005.37
979.959
956.896
935.9
916.728
899.178
883.071
868.254
854.593
841.973
830.293
819.461
809.401
800.04
791.321
783.186
775.588
768.482
761.833
755.602
749.764
744.286
739.151
734.329
729.81
725.568
721.598
717.877
714.404
711.158
708.141
705.334
702.742
700.346
698.153
696.144
694.328
692.686
691.529
690.705
689.981
689.341
688.78
688.291
687.869
687.507
687.199
686.941
686.731
686.559
686.426
686.321
686.251
686.204
686.183
686.179
686.171
686.224
686.084
686.075
686.099
686.115
685.771
12950.4
12587.3
10359.5
7939.11
6227.17
5032.89
4180.02
3555.32
3086.04
2725.34
2442.39
2216.49
2033.27
1882.66
1757.35
1651.98
1562.53
1485.96
1419.9
1362.53
1312.39
1268.31
1229.36
1194.78
1163.94
1136.32
1111.49
1089.08
1068.8
1050.38
1033.61
1018.29
1004.26
991.386
979.54
968.619
958.529
949.191
940.531
932.49
925.009
918.044
911.546
905.484
899.816
894.522
889.564
884.933
880.593
876.544
872.75
869.219
865.918
862.859
860.01
857.388
854.961
852.749
850.722
848.9
847.253
845.802
844.521
843.664
843.075
842.576
842.159
841.817
841.535
841.297
841.181
840.862
840.823
840.761
840.774
840.62
840.649
840.766
840.894
841.038
841.188
841.365
841.534
841.745
841.902
842.172
842.231
842.006
20562.8
17175.9
12193.7
8901.42
6786.83
5391.86
4433.84
3750.7
3247.61
2866.93
2572.15
2339.41
2152.53
2000.34
1874.81
1770.17
1682.06
1607.26
1543.25
1488.09
1440.27
1398.55
1361.98
1329.75
1301.22
1275.86
1253.22
1232.93
1214.69
1198.23
1183.34
1169.82
1157.51
1146.27
1135.99
1126.56
1117.89
1109.9
1102.52
1095.7
1089.38
1083.52
1078.07
1073.01
1068.3
1063.91
1059.82
1056.02
1052.47
1049.18
1046.11
1043.28
1040.65
1038.25
1036.02
1034.02
1032.18
1030.57
1029.1
1027.86
1026.76
1025.87
1025.13
1024.73
1024.48
1024.32
1024.25
1024.2
1024.1
1024.18
1024.3
1024.47
1024.68
1024.93
1025.21
1025.5
1025.82
1026.15
1026.48
1026.83
1027.19
1027.55
1027.92
1028.3
1028.66
1029.05
1029.38
1029.13
27521.5
20065.9
13246.5
9373.64
7040.27
5554.13
4557.06
3857.77
3349.26
2968.47
2676.3
2447.59
2265.44
2118.31
1997.94
1898.45
1815.39
1745.5
1686.22
1635.62
1592.16
1554.6
1522
1493.53
1468.58
1446.61
1427.19
1409.94
1394.58
1380.84
1368.51
1357.41
1347.4
1338.32
1330.08
1322.57
1315.72
1309.45
1303.7
1298.41
1293.54
1289.05
1284.9
1281.07
1277.52
1274.24
1271.2
1268.39
1265.8
1263.42
1261.22
1259.23
1257.4
1255.79
1254.31
1253.06
1251.92
1251.03
1250.24
1249.71
1249.23
1249.1
1248.91
1249.03
1249.22
1249.51
1249.85
1250.25
1250.68
1251.15
1251.66
1252.19
1252.75
1253.33
1253.94
1254.55
1255.18
1255.81
1256.45
1257.07
1257.71
1258.33
1258.98
1259.56
1260.22
1260.75
1261.44
1261.12
33639.2
21706.6
13809.8
9589.86
7152.62
5638.76
4639.66
3947.32
3448.71
3078.52
2796.79
2578.08
2405.37
2267.14
2155.12
2063.49
1987.8
1924.85
1872.09
1827.61
1789.9
1757.74
1730.2
1706.49
1685.99
1668.19
1652.68
1639.09
1627.16
1616.63
1607.31
1599.02
1591.64
1585.03
1579.11
1573.77
1568.95
1564.59
1560.63
1557.02
1553.73
1550.72