/*--------------------------------*- C++ -*----------------------------------*\
| =========                 |                                                 |
| \\      /  F ield         | OpenFOAM: The Open Source CFD Toolbox           |
|  \\    /   O peration     | Version:  2306                                  |
|   \\  /    A nd           | Website:  www.openfoam.com                      |
|    \\/     M anipulation  |                                                 |
\*---------------------------------------------------------------------------*/
FoamFile
{
    version     2.0;
    format      ascii;
    arch        "LSB;label=32;scalar=64";
    class       volScalarField;
    location    "1600";
    object      k;
}
// * * * * * * * * * * * * * * * * * * * * * * * * * * * * * * * * * * * * * //

dimensions      [0 2 -2 0 0 0 0];

internalField   nonuniform List<scalar> 
20540
(
110.384
222.304
110.367
222.294
110.273
222.249
110.097
222.164
109.823
222.033
109.428
221.842
108.887
221.58
108.166
221.228
107.227
220.765
106.024
220.167
104.501
219.4
102.595
218.423
100.229
217.182
97.3139
215.608
93.753
213.607
89.4389
211.056
84.2617
207.787
78.1174
203.569
70.9261
198.077
62.6674
190.852
53.466
181.213
43.6546
168.252
33.5964
151.102
23.9197
129.009
15.8756
101.838
11.1752
70.7861
8.9575
39.2376
7.90005
17.1767
7.3805
9.23717
7.01758
7.29432
6.85447
6.74389
6.8107
6.54484
6.81161
6.5347
6.85445
6.70745
7.00247
7.21376
7.34161
8.83645
7.82609
15.3868
8.80154
34.5459
10.7789
64.181
14.9468
94.2809
22.4519
121.074
31.7794
143.241
41.6669
160.693
51.4615
174.027
60.7783
184.022
69.2471
191.566
76.7091
197.335
83.1585
201.794
88.6543
205.27
93.2847
207.999
97.1489
210.154
100.346
211.861
102.972
213.218
105.112
214.296
106.843
215.152
108.23
215.828
109.332
216.359
110.195
216.772
110.86
217.088
111.362
217.325
111.728
217.498
111.984
217.618
112.148
217.695
112.236
217.737
112.259
217.748
35.6075
19.0434
16.274
14.7152
13.7667
13.1587
12.7393
12.4345
12.2062
12.0307
11.8929
11.7828
11.6938
11.6208
11.5609
11.5105
11.4689
11.4334
11.4036
11.378
11.3561
11.3373
11.3211
11.307
11.2947
11.2839
11.2745
11.2662
11.2588
11.2522
11.2463
11.2411
11.2364
11.2321
11.2283
11.2247
11.2216
11.2187
11.2162
11.2139
11.212
11.2103
11.2089
11.2078
11.2072
11.2069
11.2071
11.2078
11.2093
11.2113
11.2142
11.2179
11.2227
11.2287
11.2361
11.245
11.2556
11.2683
11.2829
11.3002
11.3201
11.3433
11.3697
11.3954
11.4174
11.4412
11.4662
11.4931
11.5212
11.5512
11.5826
11.616
11.651
11.6882
11.7274
11.7691
11.8141
11.8607
11.9142
11.9657
12.0333
12.0866
12.187
12.223
12.4037
12.4412
12.8203
12.1349
31.1991
11.9024
9.29377
8.01114
7.2832
6.83343
6.53339
6.32037
6.16304
6.04338
5.95025
5.87632
5.81691
5.7684
5.7287
5.69541
5.66801
5.64463
5.6251
5.60833
5.59399
5.58173
5.57112
5.5619
5.55387
5.54686
5.54071
5.53525
5.53044
5.52613
5.52232
5.51885
5.51579
5.51295
5.51046
5.5081
5.50606
5.5041
5.50241
5.5008
5.49942
5.49811
5.49703
5.49603
5.49527
5.49461
5.49421
5.49394
5.49409
5.49432
5.49492
5.49582
5.49712
5.49884
5.50101
5.50377
5.50701
5.51105
5.51562
5.52122
5.52743
5.53493
5.5432
5.55137
5.5582
5.56589
5.57346
5.58189
5.59019
5.59927
5.60824
5.61807
5.62751
5.63818
5.64796
5.6598
5.66967
5.68287
5.69219
5.70739
5.71533
5.73209
5.74197
5.74338
5.77065
5.76256
5.76063
5.77215
38.3245
16.1357
12.9804
11.3734
10.4318
9.83775
9.43578
9.14744
8.93291
8.76883
8.6406
8.53846
8.45616
8.38881
8.33359
8.28723
8.24901
8.21637
8.18908
8.16563
8.14557
8.1284
8.11354
8.10062
8.08937
8.07954
8.07091
8.06326
8.05651
8.05047
8.04512
8.04026
8.03596
8.03199
8.02849
8.02519
8.02234
8.01959
8.01723
8.01496
8.01304
8.01121
8.00972
8.00832
8.00727
8.00637
8.00583
8.00548
8.0057
8.00607
8.00696
8.00827
8.01017
8.01264
8.01576
8.01973
8.02437
8.03016
8.0367
8.04468
8.05355
8.06424
8.07601
8.0876
8.09726
8.1081
8.11877
8.13063
8.1423
8.15506
8.16765
8.18141
8.19466
8.20951
8.22317
8.23938
8.25307
8.27075
8.28368
8.30358
8.31461
8.33635
8.34969
8.35203
8.38424
8.37525
8.36014
8.21423
44.1212
18.9921
15.5125
13.8146
12.8235
12.1961
11.77
11.4632
11.2343
11.0588
10.9213
10.8117
10.7232
10.6507
10.5912
10.5413
10.5
10.4648
10.4353
10.41
10.3883
10.3698
10.3537
10.3397
10.3276
10.3169
10.3076
10.2993
10.292
10.2855
10.2797
10.2744
10.2698
10.2655
10.2617
10.2581
10.2551
10.2521
10.2495
10.2471
10.245
10.243
10.2414
10.2399
10.2388
10.2379
10.2373
10.237
10.2372
10.2377
10.2387
10.2401
10.2423
10.245
10.2485
10.2529
10.258
10.2644
10.2716
10.2804
10.2902
10.302
10.3149
10.3276
10.3382
10.35
10.3617
10.3746
10.3874
10.4012
10.415
10.4299
10.4443
10.4604
10.4753
10.4926
10.5076
10.5261
10.5405
10.5608
10.5737
10.595
10.6104
10.615
10.6441
10.6417
10.6471
10.3099
48.8618
20.7616
16.7932
14.987
13.9619
13.319
12.8842
12.5719
12.3389
12.1602
12.0203
11.9087
11.8186
11.7448
11.6842
11.6332
11.5912
11.5553
11.5253
11.4995
11.4774
11.4584
11.442
11.4278
11.4154
11.4045
11.395
11.3866
11.3791
11.3724
11.3665
11.3611
11.3564
11.352
11.3481
11.3445
11.3413
11.3383
11.3357
11.3331
11.331
11.3289
11.3273
11.3257
11.3244
11.3233
11.3227
11.3221
11.3222
11.3224
11.3232
11.3243
11.3261
11.3284
11.3313
11.3351
11.3395
11.3451
11.3513
11.359
11.3674
11.3777
11.3889
11.3999
11.409
11.4193
11.4293
11.4405
11.4512
11.4631
11.4745
11.4872
11.499
11.5124
11.5243
11.5387
11.5502
11.5653
11.5754
11.5917
11.5996
11.616
11.6231
11.6276
11.6371
11.6435
11.6368
11.2917
53.0543
22.2273
17.6133
15.6353
14.5594
13.8981
13.4561
13.1407
12.9061
12.7265
12.5859
12.4739
12.3835
12.3094
12.2487
12.1976
12.1555
12.1195
12.0894
12.0635
12.0413
12.0223
12.0059
11.9916
11.9792
11.9683
11.9587
11.9503
11.9428
11.9361
11.9301
11.9248
11.92
11.9156
11.9117
11.908
11.9048
11.9017
11.8991
11.8965
11.8943
11.8922
11.8904
11.8887
11.8874
11.8862
11.8853
11.8846
11.8844
11.8843
11.8846
11.8853
11.8865
11.8881
11.8903
11.8931
11.8965
11.9008
11.9055
11.9115
11.918
11.9261
11.9346
11.9433
11.9502
11.9583
11.9658
11.9745
11.9825
11.9915
11.9999
12.0094
12.0178
12.0277
12.0358
12.0463
12.0534
12.0643
12.0696
12.0807
12.0833
12.0938
12.0929
12.0969
12.0885
12.0994
12.0819
11.7549
56.9602
23.6759
18.3122
16.0862
14.9281
14.2373
13.7847
13.4656
13.2298
13.0501
12.9098
12.7981
12.7081
12.6345
12.574
12.5233
12.4815
12.4457
12.4158
12.3901
12.3681
12.3493
12.333
12.3188
12.3065
12.2957
12.2862
12.2778
12.2703
12.2637
12.2578
12.2524
12.2477
12.2433
12.2394
12.2357
12.2326
12.2295
12.2268
12.2242
12.222
12.2198
12.218
12.2162
12.2147
12.2134
12.2123
12.2113
12.2109
12.2104
12.2104
12.2106
12.2111
12.212
12.2133
12.2152
12.2174
12.2203
12.2235
12.2277
12.232
12.2377
12.2434
12.2495
12.2542
12.2599
12.2649
12.271
12.2761
12.2823
12.2875
12.2938
12.2988
12.3052
12.3096
12.3162
12.3194
12.3258
12.3271
12.3329
12.3313
12.3364
12.3298
12.3324
12.3122
12.3226
12.2989
12.0153
60.7152
25.2005
19.0315
16.4837
15.2002
14.4607
13.9893
13.6634
13.4256
13.2456
13.1058
12.995
12.9059
12.8331
12.7735
12.7234
12.6822
12.647
12.6176
12.5923
12.5707
12.5522
12.5362
12.5222
12.5101
12.4995
12.4902
12.4819
12.4746
12.4681
12.4623
12.457
12.4523
12.448
12.4442
12.4405
12.4374
12.4343
12.4316
12.429
12.4268
12.4246
12.4227
12.4209
12.4193
12.4178
12.4166
12.4154
12.4146
12.4138
12.4134
12.4131
12.4131
12.4132
12.4137
12.4146
12.4155
12.4172
12.4187
12.4212
12.4234
12.4267
12.4297
12.4333
12.4358
12.4393
12.4418
12.4453
12.4478
12.4512
12.4535
12.4568
12.4586
12.4618
12.463
12.4658
12.4659
12.4679
12.4661
12.4675
12.4624
12.4635
12.4527
12.4532
12.4267
12.4321
12.4066
12.1758
64.3951
26.8327
19.8331
16.9044
15.4466
14.6305
14.1263
13.7871
13.5442
13.3628
13.2233
13.1133
13.0254
12.9537
12.8952
12.8461
12.806
12.7715
12.7429
12.7183
12.6972
12.6793
12.6637
12.6501
12.6384
12.6281
12.619
12.611
12.6039
12.5975
12.5919
12.5868
12.5822
12.578
12.5743
12.5707
12.5676
12.5646
12.562
12.5594
12.5572
12.5549
12.553
12.5511
12.5495
12.5478
12.5465
12.5451
12.5441
12.5429
12.5422
12.5413
12.5408
12.5403
12.5399
12.5399
12.5397
12.5401
12.5402
12.5409
12.5412
12.5423
12.5427
12.544
12.5445
12.5458
12.5461
12.5474
12.5474
12.5483
12.548
12.5486
12.5478
12.5479
12.5465
12.5461
12.5434
12.5423
12.5376
12.536
12.5277
12.526
12.5119
12.51
12.4814
12.4798
12.454
12.2809
68.0454
28.5868
20.7427
17.3944
15.7151
14.7883
14.231
13.8673
13.6136
13.4278
13.2871
13.1774
13.0904
13.02
12.9628
12.9149
12.876
12.8426
12.815
12.7913
12.771
12.7537
12.7388
12.7258
12.7145
12.7046
12.696
12.6883
12.6815
12.6754
12.67
12.6651
12.6607
12.6566
12.6531
12.6496
12.6466
12.6437
12.6411
12.6386
12.6364
12.6342
12.6323
12.6303
12.6287
12.6269
12.6255
12.6239
12.6227
12.6212
12.6201
12.6189
12.6178
12.6167
12.6156
12.6148
12.6136
12.6128
12.6115
12.6108
12.6092
12.6085
12.6066
12.6059
12.6045
12.604
12.6024
12.6016
12.5995
12.5984
12.5958
12.5943
12.591
12.5891
12.5848
12.5825
12.5769
12.574
12.5663
12.5629
12.552
12.5482
12.532
12.5277
12.5003
12.4927
12.4645
12.3409
71.6947
30.4742
21.7696
17.9802
16.0415
14.968
14.3318
13.9275
13.6534
13.4577
13.3127
13.2015
13.1146
13.045
12.989
12.9424
12.9048
12.8727
12.8463
12.8236
12.8043
12.7879
12.7738
12.7615
12.7508
12.7415
12.7334
12.7262
12.7198
12.714
12.7089
12.7043
12.7002
12.6963
12.6929
12.6896
12.6868
12.684
12.6816
12.6791
12.677
12.6748
12.673
12.671
12.6693
12.6675
12.666
12.6642
12.6629
12.6612
12.6598
12.6582
12.6567
12.6551
12.6534
12.6518
12.6497
12.6481
12.6455
12.6436
12.6405
12.6383
12.6342
12.632
12.6289
12.6271
12.6236
12.6215
12.6173
12.6149
12.6101
12.6073
12.6017
12.5984
12.5918
12.5881
12.5803
12.576
12.5663
12.5614
12.5488
12.5435
12.5263
12.52
12.494
12.4832
12.4524
12.3614
75.3601
32.5065
22.9179
18.6754
16.4514
15.199
14.4557
13.9899
13.6816
13.4673
13.3124
13.1965
13.1075
13.0375
12.982
12.9363
12.8998
12.8689
12.8438
12.8222
12.804
12.7887
12.7755
12.7641
12.7542
12.7456
12.7381
12.7314
12.7255
12.7202
12.7156
12.7112
12.7075
12.7039
12.7008
12.6977
12.6951
12.6924
12.6901
12.6878
12.6858
12.6837
12.6819
12.6799
12.6783
12.6765
12.6749
12.6731
12.6716
12.6697
12.6681
12.6662
12.6644
12.6624
12.6602
12.658
12.6553
12.6528
12.6494
12.6465
12.642
12.6387
12.6329
12.6296
12.6251
12.6223
12.6173
12.6142
12.6084
12.6051
12.5986
12.5948
12.5875
12.5833
12.575
12.5703
12.5609
12.5556
12.5446
12.5388
12.5252
12.5187
12.5011
12.4933
12.4684
12.4559
12.4241
12.3524
79.0497
34.6963
24.1919
19.4858
16.961
15.5051
14.6277
14.0774
13.7174
13.4721
13.2989
13.1724
13.0777
13.0047
12.9481
12.9022
12.8663
12.8361
12.812
12.7915
12.7744
12.7601
12.7479
12.7374
12.7284
12.7206
12.7138
12.7077
12.7025
12.6977
12.6935
12.6896
12.6863
12.683
12.6802
12.6774
12.6751
12.6726
12.6705
12.6683
12.6665
12.6645
12.6628
12.6609
12.6593
12.6575
12.6559
12.6541
12.6525
12.6505
12.6488
12.6467
12.6447
12.6423
12.6398
12.6372
12.6339
12.6309
12.6268
12.6232
12.6178
12.6136
12.6066
12.6024
12.597
12.5935
12.5874
12.5836
12.5768
12.5727
12.5651
12.5606
12.5522
12.5474
12.538
12.5327
12.5223
12.5165
12.5046
12.4982
12.4841
12.477
12.4593
12.4505
12.4265
12.4123
12.3822
12.32
82.7624
37.0564
25.5977
20.4146
17.5793
15.9032
14.8699
14.2125
13.7813
13.4895
13.2866
13.1412
13.0347
12.9546
12.8938
12.8456
12.8087
12.7783
12.7545
12.7346
12.7182
12.7047
12.6934
12.6837
12.6755
12.6685
12.6625
12.6571
12.6525
12.6482
12.6446
12.6412
12.6383
12.6354
12.633
12.6304
12.6284
12.6262
12.6244
12.6224
12.6207
12.6188
12.6173
12.6155
12.614
12.6122
12.6107
12.6088
12.6073
12.6053
12.6035
12.6012
12.5991
12.5966
12.5938
12.5909
12.5873
12.584
12.5793
12.5753
12.5694
12.5645
12.5568
12.5521
12.5461
12.5421
12.5354
12.5312
12.5237
12.5192
12.5109
12.5061
12.4971
12.4919
12.482
12.4764
12.4654
12.4593
12.4471
12.4404
12.4262
12.4186
12.4011
12.3917
12.3688
12.3524
12.3253
12.2726
86.4866
39.5976
27.1447
21.4655
18.3109
16.4041
15.1992
14.4158
13.8943
13.5393
13.2926
13.1174
12.9908
12.897
12.8273
12.7732
12.7327
12.7001
12.675
12.6545
12.6381
12.6248
12.6139
12.6047
12.5971
12.5907
12.5852
12.5804
12.5764
12.5727
12.5696
12.5666
12.5641
12.5616
12.5595
12.5573
12.5556
12.5536
12.552
12.5502
12.5488
12.547
12.5457
12.544
12.5426
12.5409
12.5394
12.5376
12.5361
12.5341
12.5323
12.53
12.5278
12.5252
12.5223
12.5193
12.5156
12.512
12.5072
12.5029
12.4967
12.4916
12.4835
12.4785
12.4723
12.468
12.4611
12.4566
12.4489
12.4441
12.4357
12.4307
12.4214
12.4161
12.406
12.4003
12.3893
12.3831
12.3708
12.364
12.3499
12.3421
12.3249
12.315
12.293
12.2756
12.249
12.2082
90.1976
42.3272
28.8437
22.644
19.159
17.0135
15.6266
14.7033
14.0755
13.6411
13.3359
13.1182
12.9608
12.8451
12.7597
12.6944
12.646
12.6078
12.579
12.5559
12.5377
12.5234
12.5118
12.5024
12.4947
12.4884
12.4831
12.4786
12.4748
12.4714
12.4686
12.466
12.4638
12.4615
12.4598
12.4578
12.4563
12.4545
12.4531
12.4515
12.4502
12.4486
12.4473
12.4458
12.4445
12.4428
12.4415
12.4397
12.4382
12.4363
12.4345
12.4322
12.43
12.4274
12.4245
12.4215
12.4177
12.4141
12.4092
12.4049
12.3986
12.3934
12.3854
12.3802
12.374
12.3697
12.3628
12.3582
12.3506
12.3458
12.3374
12.3324
12.3232
12.3179
12.308
12.3023
12.2914
12.2852
12.2731
12.2663
12.2524
12.2445
12.2276
12.2175
12.1954
12.1803
12.1496
12.1224
93.8522
45.2445
30.7067
23.9581
20.128
17.7354
16.1589
15.0859
14.3399
13.8126
13.4353
13.162
12.9624
12.8145
12.7049
12.6214
12.5592
12.5107
12.4742
12.4453
12.4228
12.4053
12.3913
12.3801
12.3711
12.3639
12.3579
12.3529
12.3489
12.3453
12.3424
12.3396
12.3374
12.3352
12.3335
12.3316
12.3301
12.3284
12.327
12.3254
12.3242
12.3226
12.3214
12.3199
12.3186
12.317
12.3156
12.3139
12.3124
12.3105
12.3087
12.3064
12.3042
12.3016
12.2988
12.2957
12.292
12.2884
12.2836
12.2793
12.2732
12.268
12.2603
12.2551
12.2491
12.2447
12.2382
12.2335
12.2262
12.2214
12.2134
12.2083
12.1995
12.1942
12.1846
12.179
12.1684
12.1623
12.1505
12.1436
12.1301
12.122
12.1055
12.0953
12.0736
12.0592
12.027
12.011
97.3791
48.3366
32.7439
25.4172
21.2231
18.5729
16.7997
15.5702
14.6974
14.0671
13.6066
13.2663
13.0132
12.8228
12.6796
12.5695
12.4863
12.4214
12.3717
12.3326
12.302
12.278
12.2588
12.2435
12.2313
12.2213
12.2133
12.2066
12.2011
12.1964
12.1925
12.189
12.1862
12.1834
12.1812
12.1789
12.1771
12.1751
12.1735
12.1717
12.1702
12.1685
12.1671
12.1654
12.1639
12.1622
12.1607
12.1589
12.1573
12.1553
12.1534
12.1511
12.1488
12.1462
12.1433
12.1403
12.1366
12.133
12.1283
12.124
12.1181
12.1129
12.1056
12.1004
12.0948
12.0904
12.0842
12.0795
12.0727
12.0678
12.0603
12.0551
12.0468
12.0414
12.0323
12.0266
12.0165
12.0103
11.9988
11.992
11.9787
11.9705
11.9543
11.9441
11.9232
11.9095
11.8771
11.8699
100.662
51.5753
34.9611
27.0298
22.4505
19.5295
17.5515
16.1592
15.1535
14.4132
13.8612
13.4449
13.1289
12.8865
12.7005
12.5553
12.4432
12.3547
12.2856
12.2306
12.1869
12.1521
12.124
12.1013
12.0829
12.0678
12.0554
12.045
12.0364
12.029
12.0229
12.0174
12.0128
12.0086
12.0051
12.0016
11.9987
11.9958
11.9934
11.9908
11.9887
11.9863
11.9844
11.9821
11.9802
11.9781
11.9762
11.974
11.972
11.9697
11.9675
11.9651
11.9625
11.9597
11.9567
11.9535
11.9497
11.946
11.9414
11.937
11.9313
11.926
11.919
11.9137
11.9084
11.904
11.8981
11.8934
11.887
11.882
11.8749
11.8696
11.8619
11.8563
11.8477
11.8417
11.8321
11.8256
11.8146
11.8075
11.7945
11.7862
11.7704
11.7601
11.7403
11.7276
11.6958
11.6952
103.51
54.9124
37.3537
28.8005
23.8146
20.608
18.4156
16.854
15.7101
14.8547
14.2056
13.7068
13.3207
13.0186
12.782
12.5941
12.4456
12.3263
12.2312
12.1541
12.0917
12.041
11.9993
11.965
11.9367
11.9131
11.8933
11.8765
11.8624
11.8502
11.8398
11.8305
11.8227
11.8155
11.8093
11.8035
11.7985
11.7937
11.7895
11.7854
11.7818
11.7781
11.7749
11.7716
11.7686
11.7656
11.7627
11.7598
11.757
11.7541
11.7512
11.7482
11.7451
11.7418
11.7383
11.7347
11.7307
11.7266
11.7218
11.7171
11.7113
11.7058
11.6988
11.6934
11.6882
11.6836
11.678
11.6731
11.667
11.6618
11.6551
11.6495
11.6422
11.6362
11.6281
11.6217
11.6125
11.6055
11.5951
11.5873
11.5749
11.566
11.551
11.5405
11.5219
11.511
11.4798
11.4826
105.614
58.2654
39.8974
30.7223
25.3132
21.8071
19.3906
17.653
16.3659
15.3911
14.6407
14.0551
13.594
13.227
12.934
12.6971
12.506
12.3498
12.2224
12.1175
12.0307
11.9588
11.8986
11.8481
11.8056
11.7695
11.7387
11.7122
11.6895
11.6696
11.6524
11.6371
11.6237
11.6116
11.6009
11.5911
11.5824
11.5743
11.567
11.5602
11.554
11.548
11.5426
11.5373
11.5324
11.5276
11.5232
11.5188
11.5146
11.5103
11.5063
11.5021
11.498
11.4937
11.4894
11.4849
11.4802
11.4753
11.47
11.4646
11.4584
11.4523
11.445
11.4392
11.434
11.429
11.4234
11.4181
11.4121
11.4065
11.4
11.3939
11.3868
11.3804
11.3725
11.3655
11.3567
11.349
11.339
11.3305
11.3187
11.3092
11.2951
11.2844
11.2673
11.257
11.2297
11.2337
106.49
61.4914
42.5304
32.7651
26.929
23.1152
20.4673
18.5482
17.1139
16.0166
15.1622
14.487
13.9479
13.5126
13.1593
12.8694
12.6311
12.4333
12.2688
12.1311
12.0151
11.9172
11.8339
11.7628
11.7018
11.6491
11.6036
11.5638
11.5291
11.4984
11.4714
11.4472
11.4258
11.4063
11.389
11.3731
11.3588
11.3455
11.3335
11.3222
11.312
11.3023
11.2934
11.2849
11.277
11.2694
11.2624
11.2555
11.2491
11.2427
11.2366
11.2306
11.2247
11.2188
11.213
11.207
11.2009
11.1948
11.1883
11.1818
11.1747
11.1674
11.1594
11.1528
11.1472
11.1416
11.1357
11.1299
11.1236
11.1174
11.1107
11.1041
11.0969
11.0899
11.0819
11.0743
11.0656
11.0572
11.0474
11.0382
11.0269
11.0169
11.0036
10.993
10.9772
10.9676
10.9438
10.9481
105.394
64.3368
45.1216
34.8538
28.6138
24.4981
21.6199
19.5188
17.9365
16.7159
15.7567
14.991
14.3728
13.8678
13.4524
13.1073
12.8193
12.577
12.3723
12.1983
12.0496
11.922
11.8119
11.7165
11.6334
11.5607
11.4969
11.4404
11.3905
11.3459
11.3061
11.2703
11.2381
11.2088
11.1823
11.158
11.1359
11.1155
11.0968
11.0793
11.0633
11.0483
11.0343
11.0212
11.0089
10.9973
10.9864
10.976
10.9661
10.9566
10.9475
10.9387
10.9302
10.9218
10.9136
10.9054
10.8973
10.8892
10.8808
10.8725
10.8637
10.8548
10.8454
10.8375
10.8311
10.8246
10.818
10.8114
10.8045
10.7975
10.7903
10.783
10.7753
10.7675
10.7592
10.7509
10.7419
10.733
10.723
10.7134
10.7023
10.692
10.6794
10.669
10.6544
10.6454
10.6244
10.6284
101.176
66.342
47.4127
36.8296
30.2606
25.8788
22.7892
20.5173
18.7944
17.4555
16.3951
15.5416
14.8461
14.2725
13.7957
13.3953
13.0573
12.7696
12.5234
12.3116
12.1283
11.969
11.8298
11.7076
11.5999
11.5045
11.4198
11.3441
11.2763
11.2152
11.1602
11.1102
11.0649
11.0235
10.9856
10.9508
10.9189
10.8893
10.862
10.8365
10.813
10.7909
10.7704
10.7511
10.733
10.7159
10.6999
10.6846
10.6702
10.6564
10.6432
10.6306
10.6184
10.6066
10.5951
10.5839
10.5728
10.5619
10.5509
10.54
10.5289
10.5176
10.506
10.4964
10.4887
10.481
10.4733
10.4655
10.4576
10.4496
10.4415
10.4332
10.4247
10.4161
10.4071
10.3981
10.3886
10.379
10.3688
10.3587
10.3477
10.3373
10.3252
10.3149
10.3015
10.2929
10.2741
10.2775
92.1891
66.7957
48.8967
38.3772
31.6556
27.1014
23.8546
21.4466
19.6068
18.1668
17.0181
16.0864
15.3212
14.6849
14.1512
13.6991
13.3136
12.9823
12.696
12.447
12.2294
12.0382
11.8694
11.7197
11.5864
11.4672
11.3602
11.2638
11.1767
11.0975
11.0256
10.9598
10.8997
10.8444
10.7936
10.7466
10.7032
10.6628
10.6254
10.5905
10.558
10.5275
10.4991
10.4723
10.4471
10.4233
10.401
10.3797
10.3596
10.3405
10.3222
10.3047
10.288
10.2718
10.2562
10.241
10.2262
10.2117
10.1973
10.1831
10.1689
10.1546
10.1401
10.1282
10.1188
10.1095
10.1002
10.091
10.0817
10.0724
10.063
10.0536
10.044
10.0344
10.0245
10.0146
10.0044
9.99412
9.9835
9.97299
9.96192
9.95132
9.93969
9.92948
9.9169
9.90809
9.89173
9.89417
77.166
63.8125
48.723
38.9345
32.3977
27.8657
24.5817
22.1184
20.2179
18.7175
17.5108
16.5245
15.708
15.0237
14.4449
13.9506
13.5254
13.1569
12.8356
12.5537
12.3051
12.0847
11.8884
11.7128
11.5551
11.4128
11.2841
11.1672
11.0608
10.9634
10.8743
10.7923
10.7168
10.6471
10.5826
10.5227
10.4671
10.4152
10.3669
10.3217
10.2794
10.2397
10.2024
10.1673
10.1343
10.1031
10.0736
10.0456
10.0191
9.99388
9.96983
9.94685
9.92482
9.90367
9.88324
9.8635
9.84429
9.82558
9.80719
9.78911
9.77113
9.75328
9.73529
9.72072
9.70929
9.69803
9.6869
9.67589
9.66495
9.65406
9.6432
9.63235
9.62148
9.61061
9.59967
9.58873
9.57769
9.56668
9.55554
9.54453
9.53328
9.52244
9.51101
9.50079
9.4887
9.48028
9.46457
9.46651
56.5021
53.9328
45.4164
37.5214
31.8047
27.6681
24.5766
22.2093
20.3554
18.8735
17.6688
16.6745
15.8436
15.1411
14.5416
14.0252
13.577
13.1853
12.8406
12.5357
12.2645
12.022
11.8043
11.608
11.4303
11.2688
11.1216
10.987
10.8637
10.7501
10.6455
10.5488
10.4593
10.3762
10.2989
10.2269
10.1597
10.0968
10.038
9.98286
9.93107
9.88235
9.83649
9.79322
9.75238
9.71375
9.67717
9.64246
9.60949
9.57811
9.54817
9.51957
9.49216
9.46585
9.44049
9.416
9.39223
9.36912
9.34651
9.32433
9.30242
9.28072
9.25904
9.24155
9.22791
9.21454
9.20141
9.18849
9.17574
9.16315
9.15069
9.13835
9.1261
9.11395
9.10187
9.0899
9.07798
9.0662
9.05447
9.04295
9.03141
9.0203
9.00888
8.99857
8.98673
8.97861
8.96313
8.96482
30.4307
37.5676
36.2741
32.6381
28.7723
25.6709
23.171
21.174
19.561
18.2405
17.1462
16.2284
15.4502
14.7838
14.2079
13.7063
13.2662
12.8774
12.5319
12.2233
11.9462
11.6963
11.4699
11.2641
11.0764
10.9046
10.7469
10.6017
10.4677
10.3437
10.2289
10.1221
10.0228
9.93023
9.84377
9.76288
9.68713
9.61606
9.54932
9.48654
9.42744
9.37171
9.31912
9.26941
9.22238
9.17782
9.13556
9.09541
9.05721
9.02081
8.98606
8.95283
8.92097
8.89036
8.86087
8.83238
8.80476
8.7779
8.75168
8.72598
8.70065
8.67562
8.65071
8.63068
8.6151
8.59989
8.58502
8.57045
8.55615
8.5421
8.52829
8.51471
8.50133
8.48816
8.47518
8.46243
8.44987
8.43754
8.42541
8.41358
8.40189
8.39065
8.37932
8.36898
8.35747
8.34944
8.33448
8.33601
12.467
18.9307
22.432
22.7466
22.1686
20.9043
19.5156
18.284
17.2012
16.2599
15.4446
14.7363
14.1178
13.5746
13.0948
12.6686
12.2879
11.9463
11.6383
11.3594
11.1059
10.8746
10.6629
10.4685
10.2896
10.1244
9.97166
9.83002
9.69848
9.57603
9.4619
9.35532
9.25567
9.16234
9.07484
8.99267
8.91546
8.84279
8.77434
8.70978
8.64885
8.59126
8.5368
8.48521
8.43632
8.38992
8.34583
8.30388
8.26393
8.22579
8.18934
8.15444
8.12095
8.08873
8.05768
8.02764
7.99852
7.97018
7.94252
7.9154
7.88871
7.86233
7.83616
7.81517
7.7989
7.78306
7.76761
7.75253
7.7378
7.7234
7.70931
7.69554
7.68206
7.66889
7.656
7.64342
7.63113
7.61916
7.60747
7.59613
7.58505
7.5744
7.56386
7.55411
7.54362
7.53596
7.52238
7.52352
7.76348
9.02525
10.9894
12.3771
13.2206
13.5378
13.4767
13.2963
12.9657
12.6004
12.2342
11.8784
11.5398
11.2224
10.9267
10.6524
10.3981
10.1626
9.94435
9.74195
9.55407
9.37946
9.21701
9.06565
8.92448
8.79262
8.66936
8.55396
8.44584
8.34441
8.24917
8.15966
8.07545
7.99616
7.92145
7.85097
7.78445
7.72161
7.6622
7.60598
7.55276
7.50232
7.45449
7.40908
7.36594
7.32491
7.28585
7.24861
7.21309
7.17912
7.14662
7.11544
7.0855
7.05665
7.02882
7.00188
6.97576
6.95031
6.92549
6.90114
6.87724
6.85361
6.83027
6.8117
6.79737
6.78347
6.76997
6.75686
6.74413
6.73175
6.71972
6.70803
6.69667
6.68565
6.67496
6.6646
6.65456
6.64485
6.63546
6.62639
6.61763
6.60921
6.60102
6.59333
6.58541
6.57923
6.56898
6.5693
6.77382
6.94825
7.35361
7.87104
8.32937
8.70703
8.93948
9.08604
9.13423
9.11968
9.0761
8.99304
8.88912
8.77663
8.65797
8.53684
8.41577
8.29644
8.18004
8.06729
7.95869
7.85446
7.75474
7.65951
7.56875
7.48233
7.40013
7.32198
7.24772
7.17718
7.11018
7.04655
6.98612
6.92872
6.8742
6.8224
6.77317
6.72637
6.68188
6.63956
6.5993
6.56097
6.52447
6.48969
6.45655
6.42492
6.39474
6.3659
6.33833
6.31193
6.28666
6.26238
6.23909
6.21665
6.19506
6.17417
6.15402
6.13442
6.11546
6.09692
6.07894
6.06123
6.04406
6.03069
6.02052
6.01077
6.00143
5.99247
5.98388
5.97565
5.96776
5.96021
5.95299
5.94608
5.93948
5.93317
5.92714
5.92138
5.91589
5.91064
5.90563
5.90084
5.89627
5.8919
5.88768
5.88376
5.87947
5.87812
6.46078
6.47852
6.55049
6.71133
6.9161
7.12441
7.31236
7.4535
7.56843
7.62968
7.67174
7.67252
7.65849
7.63343
7.58922
7.53563
7.47526
7.41033
7.34262
7.27348
7.20396
7.13483
7.06669
6.99994
6.93492
6.87181
6.81078
6.75191
6.69523
6.64077
6.5885
6.5384
6.49041
6.44449
6.40057
6.35857
6.31844
6.2801
6.24347
6.20848
6.17506
6.14315
6.11267
6.08356
6.05576
6.02919
6.00382
5.97957
5.9564
5.93425
5.91308
5.89282
5.87347
5.85493
5.83722
5.82022
5.80401
5.78841
5.77355
5.7592
5.74561
5.73236
5.71997
5.71057
5.70359
5.69704
5.69087
5.68508
5.67963
5.67451
5.6697
5.66518
5.66094
5.65695
5.6532
5.64967
5.64636
5.64323
5.64029
5.6375
5.63487
5.63237
5.63
5.62774
5.62557
5.62349
5.62145
5.61975
6.44658
6.45977
6.52006
6.66872
6.86699
7.07239
7.26376
7.40213
7.52317
7.58691
7.63442
7.63785
7.62873
7.60693
7.56584
7.51492
7.45691
7.39406
7.32818
7.26063
7.1925
7.12458
7.0575
6.99168
6.92747
6.86509
6.80469
6.74637
6.69018
6.63615
6.58427
6.53451
6.48684
6.44119
6.39751
6.35573
6.3158
6.27763
6.24117
6.20634
6.17307
6.1413
6.11096
6.08199
6.05433
6.02792
6.00272
5.97867
5.95574
5.93386
5.91301
5.89312
5.87419
5.85614
5.83899
5.82265
5.80718
5.79243
5.77854
5.76528
5.7529
5.74103
5.73013
5.72216
5.71637
5.71105
5.70616
5.70167
5.69756
5.69381
5.6904
5.68729
5.68447
5.68192
5.67962
5.67755
5.67566
5.67396
5.67243
5.67102
5.66975
5.66859
5.66752
5.66655
5.66565
5.6648
5.6641
5.66275
6.72463
6.87262
7.20326
7.69544
8.12251
8.50292
8.74877
8.89482
8.9748
8.96952
8.9413
8.87928
8.78939
8.68931
8.58138
8.46951
8.35643
8.24401
8.13358
8.02601
7.92189
7.82157
7.72524
7.63299
7.54483
7.46068
7.38048
7.30409
7.23139
7.16222
7.09644
7.03389
6.97443
6.91789
6.86414
6.81304
6.76445
6.71824
6.67429
6.63249
6.59274
6.55492
6.51895
6.48472
6.45218
6.42123
6.39181
6.36384
6.33727
6.31204
6.28812
6.26544
6.244
6.22372
6.20462
6.18661
6.16975
6.15393
6.13923
6.12551
6.11292
6.10124
6.0907
6.08345
6.07836
6.07386
6.06988
6.0664
6.06338
6.06076
6.05857
6.0567
6.05521
6.05397
6.05301
6.05249
6.05024
6.04992
6.04975
6.04795
6.04789
6.04765
6.04649
6.0464
6.04672
6.04616
6.04611
6.04583
7.6044
8.73366
10.4015
11.837
12.6708
13.0934
13.0681
12.9411
12.6798
12.3568
12.0242
11.6979
11.3836
11.0865
10.8078
10.5477
10.3055
10.0802
9.8707
9.67576
9.49429
9.32521
9.16752
9.02031
8.88274
8.75404
8.63352
8.52054
8.41454
8.31497
8.22138
8.13333
8.05041
7.97227
7.89858
7.82902
7.76334
7.70127
7.64258
7.58706
7.53451
7.48475
7.43763
7.39298
7.3507
7.31063
7.27268
7.23674
7.20274
7.17057
7.14018
7.11148
7.08446
7.05902
7.03517
7.01282
6.99199
6.97262
6.9547
6.93818
6.92307
6.90933
6.89694
6.8885
6.88262
6.87747
6.87298
6.86911
6.86581
6.863
6.86074
6.85877
6.85749
6.85567
6.85405
6.85309
6.85207
6.85174
6.84997
6.85011
6.84897
6.8495
6.84996
6.85057
6.85107
6.85124
6.85149
6.85135
11.5617
17.3965
20.7697
21.6522
21.232
20.2358
19.0003
17.8731
16.8722
15.9918
15.2219
14.5491
13.9584
13.4375
12.9756
12.564
12.1954
11.8636
11.5637
11.2916
11.0436
10.817
10.6092
10.4181
10.2419
10.079
9.9281
9.78804
9.65777
9.53641
9.42314
9.31728
9.2182
9.12534
9.03819
8.95633
8.87935
8.80687
8.73859
8.6742
8.61344
8.55606
8.50186
8.45062
8.40219
8.35639
8.31308
8.27213
8.23343
8.19687
8.16237
8.12984
8.09921
8.07042
8.04342
8.01816
7.99459
7.97268
7.95239
7.93369
7.91654
7.90092
7.88677
7.87695
7.87004
7.86394
7.85856
7.85384
7.84976
7.84622
7.84325
7.84068
7.83863
7.8369
7.83555
7.83448
7.83376
7.83321
7.83274
7.83231
7.83181
7.83154
7.83025
7.82995
7.82952
7.82941
7.82849
7.82744
27.2288
34.9575
34.2824
31.5708
28.0194
25.1424
22.7869
20.8838
19.3376
18.0661
17.0078
16.1172
15.3598
14.7095
14.1462
13.6544
13.2219
12.8391
12.4982
12.1931
11.9187
11.6707
11.4457
11.2409
11.0537
10.8821
10.7243
10.5789
10.4445
10.32
10.2045
10.0971
9.997
9.9036
9.81628
9.73454
9.65792
9.58601
9.51845
9.45489
9.39506
9.33867
9.28551
9.23534
9.188
9.14328
9.10106
9.06117
9.02352
8.98798
8.95446
8.92288
8.89316
8.86523
8.83904
8.81454
8.79168
8.77042
8.75071
8.73254
8.71584
8.70062
8.68677
8.6771
8.67027
8.6642
8.65882
8.65408
8.64993
8.64631
8.6432
8.64053
8.63828
8.6364
8.63487
8.63363
8.63266
8.63199
8.63133
8.63148
8.62952
8.62924
8.62954
8.62984
8.62863
8.62842
8.62836
8.62764
52.3909
51.1121
44.0948
36.7935
31.351
27.3743
24.3828
22.0788
20.2671
18.8152
17.6315
16.6525
15.8324
15.1378
14.5436
14.031
13.5852
13.1949
12.8508
12.5457
12.2739
12.0305
11.8115
11.6136
11.4342
11.2709
11.1218
10.9852
10.8597
10.7442
10.6375
10.5388
10.4472
10.3621
10.2828
10.2089
10.1398
10.0752
10.0147
9.95791
9.90458
9.85443
9.80725
9.7628
9.72094
9.68145
9.64424
9.60913
9.57604
9.54483
9.51545
9.48779
9.46179
9.4374
9.41454
9.3932
9.37329
9.35483
9.33773
9.322
9.30756
9.29444
9.28252
9.27426
9.26845
9.26331
9.25876
9.25478
9.25131
9.24831
9.24574
9.24355
9.24176
9.24025
9.23904
9.23812
9.23724
9.23722
9.23501
9.23464
9.23509
9.23374
9.23365
9.23347
9.23339
9.23365
9.23452
9.23355
72.9341
61.8181
47.9035
38.5667
32.2194
27.7842
24.5565
22.1253
20.2443
18.7563
17.557
16.575
15.7601
15.0762
14.4963
14.0003
13.5727
13.2015
12.877
12.5918
12.3397
12.1157
11.9158
11.7366
11.5752
11.4294
11.2972
11.1768
11.0669
10.9663
10.8739
10.7889
10.7103
10.6377
10.5704
10.5078
10.4496
10.3953
10.3445
10.2971
10.2527
10.211
10.1719
10.1351
10.1006
10.068
10.0374
10.0086
9.98149
9.95596
9.93199
9.90945
9.88833
9.86854
9.85006
9.83285
9.81686
9.80208
9.78846
9.77602
9.76465
9.75443
9.74518
9.73895
9.73463
9.73087
9.72759
9.72478
9.72241
9.72039
9.7188
9.71734
9.71642
9.71542
9.71475
9.71402
9.71356
9.71282
9.71247
9.71125
9.71082
9.71129
9.71202
9.7128
9.71365
9.71341
9.71357
9.71325
88.1424
65.7965
48.54
38.298
31.6866
27.1792
23.9545
21.5558
19.7178
18.2762
17.1235
16.1871
15.4159
14.7738
14.2336
13.7754
13.3834
13.046
12.7534
12.4985
12.275
12.0781
11.9038
11.7487
11.6104
11.4862
11.3745
11.2735
11.182
11.0987
11.0227
10.9531
10.8892
10.8304
10.7762
10.726
10.6795
10.6363
10.5961
10.5586
10.5236
10.4909
10.4602
10.4315
10.4046
10.3792
10.3555
10.3331
10.3122
10.2925
10.2741
10.2568
10.2407
10.2256
10.2116
10.1986
10.1867
10.1757
10.1657
10.1566
10.1484
10.1412
10.1348
10.1308
10.128
10.1257
10.1238
10.1223
10.121
10.12
10.1196
10.1176
10.1175
10.1176
10.1165
10.1164
10.1166
10.1169
10.1177
10.1188
10.1196
10.1205
10.1214
10.1225
10.1234
10.1249
10.1253
10.1252
97.9556
65.8183
47.3869
36.9641
30.4414
26.0679
22.9742
20.6935
18.9592
17.6084
16.5358
15.6707
14.9636
14.3794
13.8919
13.4819
13.1341
12.8376
12.5829
12.363
12.172
12.0054
11.8593
11.7306
11.6168
11.5155
11.4252
11.3442
11.2715
11.2057
11.1462
11.092
11.0426
10.9974
10.9559
10.9177
10.8825