/*--------------------------------*- C++ -*----------------------------------*\
| =========                 |                                                 |
| \\      /  F ield         | OpenFOAM: The Open Source CFD Toolbox           |
|  \\    /   O peration     | Version:  2306                                  |
|   \\  /    A nd           | Website:  www.openfoam.com                      |
|    \\/     M anipulation  |                                                 |
\*---------------------------------------------------------------------------*/
FoamFile
{
    version     2.0;
    format      ascii;
    arch        "LSB;label=32;scalar=64";
    class       volScalarField;
    location    "1600";
    object      nut;
}
// * * * * * * * * * * * * * * * * * * * * * * * * * * * * * * * * * * * * * //

dimensions      [0 2 -1 0 0 0 0];

internalField   nonuniform List<scalar> 
20540
(
0.0348549
0.101067
0.0230817
0.0727513
0.0198407
0.065302
0.018288
0.0613042
0.0172707
0.058229
0.0165338
0.0557497
0.0159916
0.0537513
0.0155968
0.0521279
0.0153164
0.0507913
0.0151243
0.0496714
0.0149985
0.0487111
0.0149184
0.0478617
0.0148634
0.0470807
0.0148112
0.0463293
0.014736
0.0455712
0.0146078
0.0447716
0.0143906
0.0438934
0.0140429
0.0428907
0.0135212
0.0416973
0.0127928
0.040212
0.0118644
0.0382846
0.0107948
0.0357515
0.00964975
0.03254
0.00876135
0.0286013
0.00914794
0.0239431
0.0137767
0.0186202
0.0154792
0.0131451
0.0130426
0.0101772
0.015059
0.015661
0.0201124
0.0238778
0.0252751
0.024816
0.0275107
0.0262776
0.0275344
0.0263389
0.0254372
0.0248617
0.0206156
0.0238101
0.0157074
0.0164681
0.0133599
0.00986264
0.0151511
0.0120435
0.0146372
0.01719
0.00925635
0.0223852
0.00858637
0.0269354
0.00937573
0.0307913
0.0105084
0.0339432
0.0116071
0.0364269
0.0125827
0.0383061
0.0133612
0.0397414
0.0139275
0.0408841
0.0143115
0.0418358
0.0145555
0.0426618
0.0147003
0.0434069
0.0147812
0.0441042
0.0148281
0.0447829
0.0148662
0.0454721
0.0149171
0.0462033
0.0149999
0.0470105
0.0151333
0.0479321
0.015336
0.0490122
0.015629
0.0503038
0.0160377
0.0518725
0.0165956
0.053803
0.0173515
0.0561999
0.0183928
0.0591813
0.0199685
0.0630506
0.0231982
0.0701149
0.0348109
0.0966618
2.08277e-05
1.62779e-05
1.53731e-05
1.48446e-05
1.45112e-05
1.42908e-05
1.41359e-05
1.40216e-05
1.3935e-05
1.38677e-05
1.38145e-05
1.37717e-05
1.37369e-05
1.37083e-05
1.36846e-05
1.36647e-05
1.36483e-05
1.36342e-05
1.36223e-05
1.36121e-05
1.36034e-05
1.35959e-05
1.35894e-05
1.35838e-05
1.35789e-05
1.35746e-05
1.35708e-05
1.35674e-05
1.35645e-05
1.35618e-05
1.35595e-05
1.35574e-05
1.35555e-05
1.35537e-05
1.35522e-05
1.35508e-05
1.35495e-05
1.35483e-05
1.35473e-05
1.35464e-05
1.35456e-05
1.35449e-05
1.35443e-05
1.35438e-05
1.35435e-05
1.35432e-05
1.35432e-05
1.35434e-05
1.35438e-05
1.35444e-05
1.35453e-05
1.35466e-05
1.35481e-05
1.35501e-05
1.35526e-05
1.35556e-05
1.35592e-05
1.35635e-05
1.35685e-05
1.35744e-05
1.35811e-05
1.35889e-05
1.35979e-05
1.36066e-05
1.36141e-05
1.36222e-05
1.36306e-05
1.36397e-05
1.36491e-05
1.36591e-05
1.36695e-05
1.36807e-05
1.3692e-05
1.37043e-05
1.3717e-05
1.37307e-05
1.37449e-05
1.37603e-05
1.37766e-05
1.37935e-05
1.38129e-05
1.38303e-05
1.38581e-05
1.3869e-05
1.39158e-05
1.39382e-05
1.39975e-05
1.38075e-05
4.85124e-05
1.7818e-05
1.41694e-05
1.25041e-05
1.15911e-05
1.10319e-05
1.06639e-05
1.0405e-05
1.02142e-05
1.00694e-05
9.95686e-06
9.86759e-06
9.79588e-06
9.73734e-06
9.68946e-06
9.64928e-06
9.61629e-06
9.58806e-06
9.56455e-06
9.54432e-06
9.52704e-06
9.51227e-06
9.49948e-06
9.48836e-06
9.47868e-06
9.47023e-06
9.46281e-06
9.45621e-06
9.4504e-06
9.44518e-06
9.44056e-06
9.43636e-06
9.43263e-06
9.42917e-06
9.42612e-06
9.42319e-06
9.42068e-06
9.4182e-06
9.41605e-06
9.41393e-06
9.41208e-06
9.41023e-06
9.40863e-06
9.40698e-06
9.40556e-06
9.40411e-06
9.40281e-06
9.40148e-06
9.40047e-06
9.39923e-06
9.39812e-06
9.397e-06
9.39594e-06
9.39487e-06
9.39376e-06
9.39273e-06
9.39148e-06
9.39042e-06
9.3889e-06
9.38767e-06
9.38572e-06
9.38415e-06
9.38164e-06
9.37973e-06
9.37763e-06
9.37624e-06
9.3736e-06
9.37146e-06
9.36802e-06
9.36498e-06
9.3605e-06
9.3566e-06
9.35043e-06
9.34574e-06
9.33703e-06
9.33202e-06
9.31908e-06
9.31422e-06
9.29344e-06
9.29081e-06
9.25566e-06
9.25733e-06
9.20235e-06
9.18262e-06
9.11246e-06
9.0896e-06
8.82417e-06
8.93665e-06
0.00013589
4.4656e-05
3.50428e-05
3.09224e-05
2.87211e-05
2.73831e-05
2.65052e-05
2.58884e-05
2.54336e-05
2.50881e-05
2.48194e-05
2.4606e-05
2.44344e-05
2.42943e-05
2.41795e-05
2.40832e-05
2.40041e-05
2.39363e-05
2.38799e-05
2.38313e-05
2.37898e-05
2.37544e-05
2.37236e-05
2.36969e-05
2.36736e-05
2.36533e-05
2.36355e-05
2.36196e-05
2.36057e-05
2.35931e-05
2.3582e-05
2.35719e-05
2.35629e-05
2.35546e-05
2.35472e-05
2.35402e-05
2.35341e-05
2.35281e-05
2.3523e-05
2.35178e-05
2.35133e-05
2.35088e-05
2.35049e-05
2.35009e-05
2.34974e-05
2.34938e-05
2.34905e-05
2.34871e-05
2.34845e-05
2.34812e-05
2.34782e-05
2.34751e-05
2.34721e-05
2.3469e-05
2.34657e-05
2.34625e-05
2.34585e-05
2.3455e-05
2.34501e-05
2.34458e-05
2.34395e-05
2.34339e-05
2.34258e-05
2.34194e-05
2.34126e-05
2.34075e-05
2.33991e-05
2.33921e-05
2.33817e-05
2.33724e-05
2.33593e-05
2.33479e-05
2.33306e-05
2.33175e-05
2.3294e-05
2.32802e-05
2.32463e-05
2.32331e-05
2.31801e-05
2.31734e-05
2.30855e-05
2.3093e-05
2.29599e-05
2.29237e-05
2.27553e-05
2.27527e-05
2.21697e-05
2.15633e-05
0.000317363
9.63038e-05
7.33159e-05
6.46121e-05
6.03506e-05
5.78899e-05
5.63292e-05
5.52593e-05
5.44832e-05
5.38999e-05
5.34501e-05
5.30952e-05
5.28111e-05
5.25799e-05
5.23913e-05
5.22332e-05
5.21039e-05
5.19931e-05
5.19012e-05
5.1822e-05
5.17545e-05
5.16969e-05
5.1647e-05
5.16036e-05
5.15659e-05
5.1533e-05
5.15041e-05
5.14784e-05
5.14558e-05
5.14354e-05
5.14174e-05
5.1401e-05
5.13864e-05
5.13728e-05
5.13609e-05
5.13494e-05
5.13395e-05
5.13296e-05
5.13211e-05
5.13126e-05
5.13051e-05
5.12975e-05
5.12908e-05
5.12838e-05
5.12776e-05
5.1271e-05
5.12649e-05
5.12583e-05
5.1253e-05
5.12462e-05
5.12396e-05
5.12324e-05
5.12251e-05
5.1217e-05
5.12081e-05
5.11988e-05
5.11876e-05
5.11764e-05
5.1162e-05
5.11478e-05
5.1129e-05
5.11109e-05
5.10865e-05
5.10667e-05
5.10469e-05
5.10298e-05
5.10068e-05
5.09862e-05
5.09589e-05
5.09339e-05
5.09016e-05
5.08731e-05
5.08333e-05
5.08021e-05
5.07514e-05
5.07201e-05
5.06519e-05
5.06235e-05
5.05244e-05
5.051e-05
5.03556e-05
5.03702e-05
5.01488e-05
5.01149e-05
4.98387e-05
4.99535e-05
4.9272e-05
4.75798e-05
0.00061002
0.000178483
0.0001284
0.000110782
0.000102874
9.8602e-05
9.60246e-05
9.43272e-05
9.31315e-05
9.22517e-05
9.15845e-05
9.10648e-05
9.06531e-05
9.03208e-05
9.00516e-05
8.98268e-05
8.96446e-05
8.94885e-05
8.936e-05
8.92494e-05
8.91552e-05
8.90753e-05
8.90062e-05
8.89461e-05
8.8894e-05
8.88486e-05
8.88087e-05
8.87733e-05
8.8742e-05
8.87139e-05
8.86891e-05
8.86664e-05
8.86463e-05
8.86274e-05
8.86109e-05
8.85946e-05
8.8581e-05
8.85669e-05
8.85549e-05
8.85425e-05
8.85318e-05
8.85205e-05
8.85107e-05
8.84998e-05
8.84902e-05
8.84795e-05
8.84694e-05
8.84576e-05
8.84481e-05
8.84354e-05
8.84225e-05
8.84078e-05
8.83921e-05
8.83745e-05
8.83545e-05
8.83329e-05
8.83068e-05
8.82797e-05
8.82456e-05
8.82107e-05
8.81663e-05
8.81215e-05
8.80639e-05
8.8016e-05
8.79701e-05
8.79281e-05
8.78759e-05
8.78281e-05
8.77685e-05
8.77133e-05
8.76454e-05
8.75849e-05
8.75052e-05
8.74412e-05
8.73456e-05
8.72825e-05
8.71629e-05
8.71057e-05
8.69463e-05
8.69105e-05
8.66849e-05
8.66902e-05
8.63815e-05
8.63506e-05
8.60011e-05
8.62159e-05
8.58064e-05
8.34739e-05
0.00102052
0.00030246
0.00020522
0.000171089
0.000156554
0.000149147
0.000144899
0.000142228
0.000140415
0.000139121
0.000138163
0.000137431
0.000136861
0.000136406
0.000136043
0.000135741
0.0001355
0.000135294
0.000135126
0.000134982
0.00013486
0.000134757
0.000134668
0.000134592
0.000134525
0.000134467
0.000134417
0.000134371
0.000134332
0.000134296
0.000134265
0.000134236
0.00013421
0.000134186
0.000134165
0.000134144
0.000134126
0.000134108
0.000134092
0.000134076
0.000134061
0.000134046
0.000134032
0.000134017
0.000134003
0.000133987
0.000133972
0.000133954
0.000133938
0.000133918
0.000133897
0.000133872
0.000133844
0.000133814
0.000133778
0.000133739
0.000133692
0.000133643
0.000133581
0.000133517
0.000133437
0.000133355
0.000133252
0.000133165
0.000133084
0.000133008
0.000132917
0.000132833
0.000132731
0.000132636
0.000132524
0.000132422
0.000132294
0.000132188
0.000132041
0.000131937
0.000131765
0.000131667
0.000131459
0.000131378
0.000131118
0.000131075
0.000130745
0.000130681
0.000130411
0.000130502
0.000130989
0.000126946
0.0015601
0.000482887
0.000313765
0.000251146
0.000224806
0.000211864
0.000204734
0.000200433
0.00019763
0.000195694
0.000194304
0.000193268
0.000192479
0.000191862
0.000191377
0.000190979
0.000190667
0.000190402
0.000190189
0.000190007
0.000189855
0.000189728
0.000189619
0.000189524
0.000189443
0.000189373
0.000189312
0.000189258
0.00018921
0.000189167
0.000189129
0.000189094
0.000189063
0.000189034
0.000189008
0.000188982
0.000188961
0.000188938
0.000188919
0.000188898
0.00018888
0.000188859
0.000188842
0.000188821
0.000188803
0.000188781
0.000188761
0.000188734
0.000188712
0.000188682
0.000188652
0.000188615
0.000188574
0.000188528
0.000188474
0.000188416
0.000188345
0.00018827
0.000188177
0.00018808
0.000187959
0.000187836
0.000187681
0.000187552
0.000187433
0.00018732
0.000187186
0.000187064
0.000186917
0.000186781
0.000186623
0.000186478
0.000186304
0.000186155
0.000185966
0.000185816
0.000185612
0.000185458
0.000185241
0.000185083
0.000184855
0.000184719
0.000184495
0.000184313
0.00018435
0.000184077
0.000185817
0.000179678
0.00224744
0.000735509
0.000468232
0.000360147
0.000313646
0.000291047
0.000278881
0.000271764
0.000267281
0.000264287
0.000262201
0.000260692
0.000259572
0.000258717
0.000258059
0.000257529
0.000257123
0.000256782
0.000256514
0.000256287
0.000256099
0.000255945
0.000255814
0.000255701
0.000255606
0.000255524
0.000255453
0.00025539
0.000255335
0.000255285
0.000255242
0.000255201
0.000255166
0.000255131
0.000255102
0.000255071
0.000255047
0.000255019
0.000254996
0.00025497
0.000254949
0.000254924
0.000254902
0.000254876
0.000254853
0.000254825
0.000254799
0.000254764
0.000254735
0.000254694
0.000254655
0.000254605
0.000254552
0.00025449
0.000254418
0.000254339
0.000254244
0.000254144
0.000254019
0.00025389
0.000253729
0.000253566
0.000253362
0.000253193
0.000253038
0.000252892
0.00025272
0.000252562
0.000252377
0.000252204
0.00025201
0.000251827
0.000251622
0.000251434
0.000251227
0.000251029
0.00025083
0.00025061
0.000250434
0.000250204
0.000250066
0.000249826
0.00024984
0.00024945
0.000249977
0.000249244
0.000252369
0.000244379
0.00310598
0.00107608
0.000686064
0.00051106
0.000431986
0.000393067
0.000372204
0.000360186
0.000352791
0.000347979
0.000344715
0.000342417
0.000340757
0.00033952
0.000338593
0.000337862
0.000337316
0.000336865
0.00033652
0.000336233
0.000335999
0.000335812
0.000335654
0.000335522
0.00033541
0.000335316
0.000335236
0.000335165
0.000335103
0.000335048
0.000335
0.000334955
0.000334916
0.000334877
0.000334846
0.00033481
0.000334783
0.00033475
0.000334725
0.000334695
0.00033467
0.00033464
0.000334615
0.000334583
0.000334555
0.00033452
0.00033449
0.000334447
0.000334411
0.00033436
0.000334313
0.000334251
0.000334186
0.00033411
0.000334022
0.000333927
0.000333811
0.000333689
0.000333537
0.000333382
0.000333188
0.000332995
0.000332751
0.00033255
0.000332371
0.0003322
0.000332003
0.000331821
0.000331611
0.000331413
0.000331202
0.000330996
0.000330784
0.000330571
0.000330378
0.000330154
0.000329989
0.000329752
0.000329635
0.000329384
0.000329377
0.000329058
0.00032938
0.000328754
0.000329929
0.000328779
0.000333338
0.000323959
0.00416175
0.00152051
0.00098665
0.000720744
0.000592366
0.000527102
0.000491655
0.000471231
0.000458781
0.000450803
0.000445488
0.000441822
0.000439228
0.000437339
0.000435955
0.000434888
0.000434109
0.000433481
0.000433012
0.00043263
0.000432327
0.000432089
0.000431894
0.000431733
0.0004316
0.000431491
0.000431399
0.000431319
0.000431251
0.00043119
0.000431139
0.000431089
0.000431048
0.000431005
0.000430972
0.000430931
0.000430904
0.000430866
0.000430839
0.000430803
0.000430776
0.00043074
0.000430713
0.000430675
0.000430643
0.000430602
0.000430568
0.000430519
0.000430477
0.000430417
0.000430365
0.000430293
0.000430219
0.000430135
0.000430035
0.00042993
0.000429797
0.000429667
0.000429493
0.00042933
0.000429111
0.00042891
0.00042864
0.000428436
0.000428241
0.000428069
0.000427862
0.000427684
0.000427465
0.000427283
0.000427065
0.000426883
0.000426674
0.000426494
0.000426311
0.000426143
0.000426
0.000425834
0.000425783
0.000425573
0.000425755
0.000425378
0.000426128
0.000425274
0.000427248
0.000425805
0.00043203
0.00042114
0.00544147
0.00208549
0.00138991
0.00100939
0.000811494
0.000706058
0.00064718
0.000612762
0.000591704
0.000578252
0.000569353
0.000563278
0.000559034
0.000555987
0.000553789
0.000552126
0.000550929
0.000549985
0.000549292
0.000548739
0.00054831
0.000547981
0.000547718
0.000547505
0.000547335
0.000547198
0.000547086
0.00054699
0.000546912
0.00054684
0.000546783
0.000546727
0.000546683
0.000546634
0.000546599
0.000546553
0.000546523
0.00054648
0.000546451
0.00054641
0.00054638
0.000546338
0.000546307
0.000546263
0.000546229
0.000546181
0.000546144
0.000546089
0.000546044
0.000545978
0.000545923
0.000545846
0.000545769
0.000545681
0.000545577
0.000545473
0.000545332
0.00054521
0.000545028
0.00054488
0.000544653
0.000544481
0.000544199
0.00054404
0.000543837
0.000543713
0.0005435
0.000543383
0.00054316
0.000543054
0.00054284
0.000542748
0.000542558
0.000542481
0.000542332
0.000542273
0.000542208
0.000542144
0.000542248
0.000542104
0.000542578
0.000542169
0.000543459
0.000542447
0.000545356
0.000543662
0.000552256
0.000539132
0.00697049
0.00278902
0.0019152
0.00139911
0.00111007
0.000947244
0.000852699
0.000795974
0.000760727
0.000738031
0.000722966
0.000712685
0.000705522
0.000700407
0.000696735
0.000693984
0.000692009
0.000690476
0.000689355
0.000688477
0.000687802
0.00068729
0.000686887
0.000686568
0.000686317
0.000686118
0.000685959
0.000685826
0.000685719
0.000685624
0.00068555
0.000685478
0.000685423
0.000685362
0.000685319
0.000685262
0.000685227
0.000685174
0.000685139
0.000685088
0.000685054
0.000685003
0.000684967
0.000684914
0.000684875
0.00068482
0.00068478
0.000684719
0.000684673
0.000684603
0.000684548
0.00068447
0.000684397
0.000684313
0.000684216
0.000684125
0.000683995
0.000683896
0.00068373
0.000683623
0.000683416
0.000683309
0.000683056
0.000682979
0.0006828
0.000682762
0.000682577
0.000682563
0.000682379
0.000682391
0.000682232
0.000682272
0.000682157
0.000682228
0.000682182
0.000682275
0.000682359
0.000682439
0.000682783
0.000682745
0.000683615
0.000683226
0.000685171
0.000684079
0.000688179
0.000686047
0.000697946
0.000682029
0.00876975
0.00365056
0.00258054
0.00191201
0.00151152
0.0012723
0.00112678
0.00103636
0.000978764
0.000941028
0.000915676
0.000898227
0.000885996
0.00087723
0.000870914
0.00086619
0.000862773
0.000860137
0.000858194
0.00085668
0.000855517
0.000854631
0.000853937
0.000853389
0.000852958
0.000852618
0.000852347
0.000852123
0.000851944
0.000851787
0.000851665
0.000851549
0.000851461
0.000851367
0.000851299
0.000851214
0.000851161
0.000851085
0.000851034
0.000850963
0.000850914
0.000850845
0.000850798
0.000850728
0.00085068
0.000850612
0.000850566
0.000850495
0.000850448
0.000850373
0.000850322
0.000850246
0.000850184
0.000850112
0.000850034
0.00084997
0.000849869
0.000849813
0.00084969
0.000849651
0.000849505
0.0008495
0.00084933
0.000849375
0.000849264
0.000849346
0.000849242
0.000849368
0.000849281
0.000849453
0.000849407
0.00084963
0.000849653
0.000849922
0.000850049
0.00085035
0.000850661
0.000850942
0.000851608
0.000851736
0.000853103
0.000852799
0.000855559
0.000854388
0.00086016
0.000857298
0.000873232
0.000854351
0.0108516
0.00469103
0.0034021
0.0025682
0.00203977
0.00170588
0.00149246
0.00135429
0.0012634
0.00120236
0.00116056
0.00113134
0.00111059
0.00109557
0.00108463
0.00107641
0.00107038
0.00106571
0.00106222
0.0010595
0.00105738
0.00105575
0.00105446
0.00105344
0.00105263
0.00105198
0.00105145
0.00105102
0.00105067
0.00105036
0.00105012
0.0010499
0.00104972
0.00104954
0.00104941
0.00104926
0.00104915
0.00104902
0.00104893
0.00104881
0.00104872
0.00104861
0.00104854
0.00104843
0.00104836
0.00104827
0.0010482
0.00104811
0.00104806
0.00104797
0.00104792
0.00104785
0.0010478
0.00104774
0.00104769
0.00104766
0.00104761
0.00104762
0.00104757
0.00104762
0.00104758
0.00104771
0.00104768
0.00104789
0.0010479
0.00104814
0.00104817
0.00104848
0.00104855
0.00104893
0.00104906
0.00104951
0.00104974
0.00105027
0.00105064
0.00105121
0.00105182
0.00105237
0.00105344
0.00105381
0.00105579
0.00105563
0.00105944
0.00105814
0.00106617
0.0010624
0.0010827
0.00106133
0.0132125
0.00593252
0.00439343
0.00338399
0.00271635
0.00227306
0.00197562
0.00177446
0.00163716
0.00154212
0.00147538
0.00142775
0.00139333
0.00136802
0.00134931
0.00133509
0.00132448
0.00131622
0.00130992
0.00130496
0.00130107
0.00129801
0.00129556
0.00129359
0.00129201
0.00129071
0.00128966
0.00128877
0.00128804
0.00128742
0.0012869
0.00128643
0.00128605
0.00128568
0.00128539
0.00128509
0.00128486
0.0012846
0.00128441
0.00128419
0.00128402
0.00128382
0.00128367
0.00128349
0.00128337
0.00128321
0.00128311
0.00128297
0.00128288
0.00128277
0.00128271
0.00128262
0.00128258
0.00128253
0.00128251
0.00128252
0.00128253
0.00128261
0.00128265
0.00128283
0.00128292
0.00128322
0.00128339
0.0012838
0.00128398
0.0012844
0.00128463
0.00128515
0.00128544
0.00128606
0.00128644
0.00128718
0.00128767
0.00128851
0.00128919
0.0012901
0.00129109
0.00129198
0.00129356
0.00129423
0.00129698
0.00129702
0.00130219
0.00130078
0.00131149
0.00130701
0.00133146
0.00130762
0.0158231
0.00739803
0.00556441
0.00437027
0.00355753
0.00299569
0.00260182
0.00232376
0.00212641
0.00198513
0.00188298
0.00180825
0.00175304
0.00171166
0.0016805
0.00165649
0.00163824
0.00162384
0.00161269
0.00160379
0.0015967
0.00159104
0.00158644
0.0015827
0.00157963
0.00157709
0.00157499
0.0015732
0.00157171
0.00157042
0.00156933
0.00156836
0.00156754
0.00156679
0.00156615
0.00156553
0.00156503
0.00156452
0.0015641
0.00156366
0.00156331
0.00156293
0.00156263
0.0015623
0.00156204
0.00156176
0.00156155
0.00156131
0.00156115
0.00156096
0.00156085
0.00156071
0.00156065
0.00156059
0.00156058
0.00156061
0.00156067
0.00156082
0.00156097
0.00156126
0.00156152
0.001562
0.00156241
0.00156304
0.00156343
0.00156406
0.00156454
0.0015653
0.00156586
0.00156677
0.00156745
0.00156851
0.00156934
0.00157054
0.00157159
0.0015729
0.00157434
0.00157565
0.00157785
0.00157893
0.00158261
0.00158298
0.00158976
0.00158846
0.00160196
0.00159749
0.00162525
0.00159856
0.018617
0.00911046
0.00691962
0.00553092
0.00457179
0.00388859
0.0033918
0.00302711
0.00275824
0.00255888
0.00241015
0.00229825
0.0022135
0.00214858
0.00209867
0.00205953
0.00202921
0.00200494
0.00198581
0.0019703
0.0019578
0.00194764
0.00193927
0.00193235
0.00192662
0.0019218
0.00191775
0.0019143
0.00191135
0.0019088
0.00190661
0.00190466
0.00190299
0.00190146
0.00190014
0.0018989
0.00189785
0.00189683
0.00189595
0.0018951
0.00189436
0.00189363
0.00189301
0.00189238
0.00189187
0.00189133
0.0018909
0.00189046
0.00189012
0.00188976
0.00188951
0.00188925
0.00188911
0.00188896
0.00188892
0.00188891
0.001889
0.00188916
0.0018894
0.00188978
0.0018902
0.00189085
0.00189152
0.00189238
0.00189299
0.00189385
0.0018946
0.00189563
0.0018965
0.00189772
0.00189875
0.00190017
0.00190138
0.001903
0.00190449
0.00190627
0.00190824
0.00191008
0.00191298
0.00191465
0.0019194
0.00192036
0.00192893
0.00192816
0.0019446
0.00193995
0.00197125
0.00194073
0.0214867
0.0110793
0.00845568
0.00686113
0.00575766
0.00495613
0.0043568
0.00390215
0.00355519
0.00328911
0.00308419
0.00292544
0.00280195
0.00270505
0.00262886
0.002568
0.00251973
0.00248059
0.00244914
0.00242325
0.00240209
0.00238461
0.00237001
0.00235779
0.00234752
0.00233879
0.00233136
0.00232495
0.00231943
0.00231461
0.00231043
0.0023067
0.00230345
0.0023005
0.00229792
0.00229553
0.00229344
0.00229148
0.00228974
0.0022881
0.00228664
0.00228525
0.00228402
0.00228283
0.0022818
0.00228079
0.00227992
0.00227909
0.00227839
0.0022777
0.00227716
0.00227663
0.00227627
0.0022759
0.00227572
0.00227557
0.00227558
0.00227568
0.00227593
0.00227633
0.00227687
0.00227763
0.00227853
0.00227958
0.00228042
0.0022815
0.00228253
0.00228383
0.00228503
0.00228657
0.00228799
0.00228978
0.00229145
0.00229351
0.00229552
0.00229784
0.00230044
0.00230296
0.00230667
0.00230918
0.00231511
0.00231711
0.00232755
0.00232785
0.00234721
0.00234232
0.00237713
0.00234171
0.0242886
0.0132736
0.0101574
0.00834577
0.00710209
0.00618979
0.00549458
0.00495377
0.004529
0.00419328
0.00392689
0.00371451
0.00354475
0.00340818
0.0032982
0.00320859
0.00313586
0.00307593
0.00302679
0.00298575
0.00295171
0.0029231
0.00289889
0.00287839
0.00286091
0.00284589
0.00283294
0.00282167
0.00281188
0.00280326
0.00279569
0.00278894
0.00278297
0.00277757
0.00277279
0.00276839
0.00276447
0.00276085
0.00275759
0.00275455
0.00275182
0.00274924
0.00274693
0.00274473
0.00274276
0.00274089
0.00273922
0.00273765
0.00273628
0.002735
0.00273389
0.00273287
0.00273202
0.00273123
0.0027307
0.0027302
0.00272998
0.00272984
0.00272997
0.00273023
0.00273077
0.00273153
0.00273256
0.00273374
0.00273477
0.00273603
0.00273733
0.00273887
0.00274042
0.00274227
0.0027441
0.00274629
0.00274846
0.00275101
0.00275364
0.00275658
0.00275996
0.0027633
0.00276803
0.0027717
0.00277898
0.00278255
0.00279489
0.00279679
0.00281893
0.00281357
0.00285211
0.00281048
0.0268364
0.0156145
0.0119929
0.00995759
0.00857931
0.00756664
0.00678691
0.00616994
0.0056747
0.00527354
0.00494683
0.00467947
0.00446017
0.00427936
0.00413021
0.00400616
0.00390316
0.00381676
0.00374447
0.00368323
0.00363144
0.00358735
0.00354948
0.00351702
0.00348897
0.00346456
0.00344328
0.0034246
0.00340819
0.00339364
0.00338074
0.00336917
0.00335886
0.00334951
0.00334113
0.00333346
0.00332654
0.00332018
0.00331439
0.00330903
0.00330416
0.0032996
0.00329545
0.00329156
0.003288
0.00328468
0.00328165
0.00327882
0.00327627
0.00327391
0.00327182
0.00326991
0.00326819
0.00326664
0.0032654
0.00326426
0.0032635
0.00326285
0.00326259
0.00326251
0.00326282
0.00326339
0.00326437
0.00326557
0.0032667
0.00326807
0.00326959
0.00327134
0.00327321
0.00327537
0.00327765
0.00328025
0.003283
0.0032861
0.00328949
0.00329317
0.00329755
0.00330194
0.00330797
0.00331311
0.00332208
0.0033276
0.00334204
0.00334578
0.00337051
0.00336449
0.00340705
0.00335748
0.0289025
0.0179641
0.0139073
0.0116553
0.0101503
0.00904912
0.00819878
0.00751979
0.00696699
0.00651111
0.00613219
0.00581523
0.00554931
0.00532509
0.00513592
0.00497531
0.00483904
0.00472262
0.00462322
0.00453772
0.00446407
0.00440043
0.00434503
0.00429679
0.00425459
0.00421746
0.0041847
0.00415565
0.00412988
0.00410682
0.00408618
0.00406756
0.00405082
0.00403559
0.00402182
0.0040092
0.00399772
0.00398715
0.00397747
0.00396853
0.00396033
0.00395267
0.00394564
0.00393907
0.00393302
0.00392738
0.00392219
0.00391734
0.0039129
0.00390877
0.00390505
0.00390163
0.00389851
0.00389565
0.00389322
0.00389098
0.00388924
0.0038877
0.00388667
0.00388589
0.00388564
0.00388574
0.00388641
0.00388746
0.00388855
0.00388995
0.00389161
0.00389352
0.00389568
0.00389815
0.00390089
0.00390397
0.00390739
0.00391118
0.0039155
0.00392016
0.0039258
0.00393158
0.00393924
0.0039463
0.00395726
0.00396514
0.00398173
0.0039874
0.00401453
0.00400704
0.00405575
0.00399646
0.030228
0.0201321
0.0158175
0.0133805
0.0117622
0.0105856
0.00967936
0.00895413
0.00835965
0.00786412
0.0074465
0.00709149
0.00678827
0.0065278
0.0063037
0.00610985
0.00594212
0.00579623
0.0056693
0.00555836
0.00546113
0.00537578
0.00530047
0.00523388
0.00517485
0.0051223
0.00507539
0.00503333
0.00499561
0.00496156
0.00493082
0.00490286
0.00487752
0.00485433
0.00483318
0.00481374
0.00479592
0.00477945
0.0047643
0.00475029
0.00473731
0.0047252
0.00471401
0.00470355
0.00469391
0.00468487
0.0046765
0.00466864
0.00466142
0.0046546
0.00464842
0.00464265
0.00463745
0.00463259
0.00462835
0.00462441
0.00462111
0.00461816
0.00461584
0.00461393
0.00461269
0.00461194
0.00461196
0.00461263
0.00461354
0.00461486
0.00461656
0.0046186
0.00462103
0.00462385
0.00462711
0.0046308
0.00463504
0.00463975
0.00464525
0.00465126
0.00465847
0.00466612
0.00467577
0.00468524
0.00469841
0.00470896
0.0047276
0.00473523
0.00476437
0.00475519
0.00481107
0.0047408
0.0305276
0.0219172
0.0176066
0.0150527
0.0133463
0.0121106
0.0111637
0.0104079
0.00978802
0.00926928
0.00882905
0.00845119
0.00812458
0.00784022
0.00759187
0.00737374
0.00718189
0.00701236
0.00686237
0.00672925
0.00661075
0.0065051
0.0064106
0.00632585
0.0062497
0.00618105
0.00611906
0.00606286
0.00601188
0.00596542
0.00592307
0.00588426
0.00584874
0.00581602
0.00578595
0.00575815
0.00573248
0.00570865
0.00568659
0.00566604
0.00564698
0.00562913
0.00561255
0.005597
0.00558254
0.00556897
0.00555637
0.00554451
0.00553354
0.00552319
0.00551369
0.00550475
0.00549664
0.00548905
0.00548224
0.00547597
0.00547046
0.00546552
0.00546137
0.00545783
0.00545515
0.00545317
0.00545218
0.00545228
0.00545287
0.00545405
0.00545574
0.00545792
0.00546066
0.00546395
0.00546788
0.00547241
0.00547771
0.00548372
0.00549073
0.00549857
0.00550777
0.00551779
0.00552979
0.00554205
0.00555755
0.00557091
0.00559126
0.0056009
0.00563136
0.00562097
0.00568434
0.00560201
0.0295104
0.0230937
0.0191167
0.0165599
0.0148122
0.0135428
0.0125731
0.0118026
0.0111727
0.0106463
0.0101992
0.00981423
0.00947962
0.00918614
0.00892741
0.00869781
0.00849342
0.00831063
0.00814673
0.00799934
0.00786637
0.0077462
0.00763731
0.0075384
0.00744839
0.00736626
0.00729123
0.00722245
0.00715938
0.00710131
0.00704786
0.00699845
0.00695281
0.00691046
0.00687121
0.00683468
0.0068007
0.00676898
0.00673941
0.00671172
0.00668588
0.0066616
0.00663892
0.00661757
0.00659761
0.0065788
0.00656125
0.00654468
0.00652928
0.00651474
0.00650127
0.0064886
0.00647694
0.00646606
0.00645614
0.00644701
0.00643882
0.00643144
0.00642504
0.00641952
0.00641507
0.00641161
0.00640945
0.0064089
0.00640915
0.00641024
0.00641202
0.00641449
0.00641773
0.00642176
0.00642666
0.00643242
0.0064392
0.00644699
0.006456
0.00646616
0.00647781
0.0064906
0.00650522
0.00652039
0.00653815
0.00655413
0.00657577
0.00658728
0.00661842
0.00660724
0.00667816
0.00658303
0.0269306
0.0235183
0.0201286
0.0177399
0.0160348
0.014776
0.0138105
0.0130446
0.0124209
0.0119016
0.0114619
0.0110839
0.0107554
0.0104669
0.0102117
0.0099842
0.00978034
0.00959668
0.00943055
0.00927974
0.00914235
0.00901685
0.00890192
0.00879639
0.00869933
0.0086098
0.00852713
0.00845056
0.00837962
0.00831367
0.00825239
0.00819523
0.00814197
0.00809214
0.00804559
0.00800194
0.00796105
0.00792262
0.00788657
0.0078526
0.0078207
0.00779059
0.0077623
0.00773555
0.00771042
0.00768665
0.00766433
0.00764324
0.00762347
0.00760482
0.00758741
0.00757105
0.00755585
0.00754169
0.00752865
0.00751665
0.00750578
0.00749598
0.00748739
0.00747994
0.00747386
0.00746907
0.00746598
0.00746507
0.00746526
0.00746658
0.00746881
0.00747198
0.00747618
0.00748144
0.00748784
0.0074954
0.00750424
0.00751436
0.00752591
0.00753884
0.00755329
0.00756899
0.00758626
0.00760409
0.0076238
0.00764189
0.00766429
0.00767735
0.00770853
0.00769649
0.00777516
0.00766733
0.0229644
0.0228005
0.0203797
0.018375
0.0168351
0.0156604
0.0147453
0.0140157
0.0134207
0.0129259
0.0125083
0.0121506
0.0118408
0.0115695
0.0113298
0.0111162
0.0109247
0.0107517
0.0105947
0.0104516
0.0103205
0.0102001
0.0100889
0.00998611
0.00989077
0.00980207
0.00971947
0.00964231
0.0095702
0.0095026
0.00943925
0.00937967
0.00932371
0.00927096
0.00922129
0.00917438
0.00913014
0.00908828
0.00904876
0.0090113
0.0089759
0.00894233
0.00891059
0.00888046
0.008852
0.00882499
0.00879949
0.00877534
0.00875258
0.00873109
0.00871092
0.00869197
0.00867429
0.00865783
0.00864263
0.00862866
0.00861601
0.00860466
0.00859475
0.00858625
0.00857944
0.00857425
0.00857124
0.00857086
0.00857174
0.00857407
0.00857755
0.00858221
0.00858818
0.00859548
0.00860417
0.00861428
0.00862586
0.0086389
0.00865343
0.00866938
0.00868672
0.00870516
0.00872477
0.00874473
0.00876581
0.00878534
0.0088079
0.00882214
0.00885249
0.00884099
0.00892438
0.00880639
0.0184845
0.0200908
0.0194763
0.0181706
0.0169824
0.0160107
0.01522
0.0145731
0.014039
0.0135928
0.0132161
0.0128942
0.0126163
0.0123739
0.0121606
0.0119713
0.011802
0.0116496
0.0115113
0.0113853
0.0112698
0.0111635
0.0110652
0.0109739
0.0108889
0.0108095
0.0107352
0.0106653
0.0105997
0.0105378
0.0104794
0.0104241
0.0103719
0.0103223
0.0102754
0.0102308
0.0101884
0.0101481
0.0101098
0.0100734
0.0100387
0.0100057
0.00997436
0.00994448
0.0099161
0.00988911
0.00986352
0.00983924
0.0098163
0.00979462
0.00977425
0.00975514
0.00973732
0.0097208
0.00970563
0.00969181
0.00967946
0.00966858
0.00965939
0.00965185
0.00964635
0.0096428
0.00964196
0.00964391
0.00964694
0.00965169
0.00965779
0.00966529
0.0096743
0.00968485
0.00969694
0.00971055
0.00972567
0.00974223
0.00976015
0.00977927
0.00979947
0.00982041
0.00984201
0.0098636
0.00988565
0.00990612
0.00992856
0.00994377
0.00997287
0.00996296
0.0100484
0.00992472
0.0135245
0.0162833
0.0170324
0.0168382
0.0162022
0.0155923
0.015025
0.0145331
0.0141137
0.0137567
0.013452
0.0131903
0.0129641
0.0127671
0.0125942
0.0124415
0.0123055
0.0121838
0.012074
0.0119744
0.0118835
0.0118001
0.0117233
0.0116521
0.0115858
0.011524
0.011466
0.0114115
0.0113601
0.0113116
0.0112656
0.011222
0.0111806
0.0111411
0.0111036
0.0110677
0.0110336
0.0110009
0.0109698
0.01094
0.0109116
0.0108844
0.0108584
0.0108337
0.0108101
0.0107877
0.0107664
0.0107462
0.0107272
0.0107093
0.0106926
0.0106771
0.0106628
0.0106498
0.0106382
0.0106281
0.0106195
0.0106126
0.0106076
0.0106046
0.010604
0.0106058
0.0106108
0.0106183
0.010626
0.0106357
0.0106468
0.0106594
0.0106737
0.0106895
0.0107069
0.0107257
0.0107459
0.0107672
0.0107896
0.0108128
0.0108366
0.0108607
0.0108849
0.0109087
0.0109324
0.0109545
0.0109778
0.0109947
0.0110236
0.0110166
0.0111025
0.0109795
0.0113492
0.0126712
0.0139708
0.0143587
0.014473
0.0143356
0.0140552
0.0137997
0.013562