/*--------------------------------*- C++ -*----------------------------------*\
| =========                 |                                                 |
| \\      /  F ield         | OpenFOAM: The Open Source CFD Toolbox           |
|  \\    /   O peration     | Version:  2306                                  |
|   \\  /    A nd           | Website:  www.openfoam.com                      |
|    \\/     M anipulation  |                                                 |
\*---------------------------------------------------------------------------*/
FoamFile
{
    version     2.0;
    format      ascii;
    arch        "LSB;label=32;scalar=64";
    class       volScalarField;
    location    "1600";
    object      p;
}
// * * * * * * * * * * * * * * * * * * * * * * * * * * * * * * * * * * * * * //

dimensions      [0 2 -2 0 0 0 0];

internalField   nonuniform List<scalar> 
20540
(
252.323
-32.2126
250.547
-44.0976
249.319
-51.2428
248.869
-53.8126
248.666
-54.8394
248.513
-55.5036
248.389
-56.0056
248.298
-56.3722
248.237
-56.635
248.197
-56.8213
248.173
-56.9464
248.159
-57.0168
248.15
-57.0347
248.14
-56.9995
248.122
-56.9086
248.089
-56.7582
248.033
-56.543
247.945
-56.2562
247.819
-55.8903
247.65
-55.437
247.444
-54.8901
247.212
-54.2462
246.969
-53.5068
246.729
-52.6834
246.455
-51.7811
246.023
-50.7106
245.366
-49.2676
244.638
-47.5229
243.914
-45.8777
243.127
-44.5036
242.465
-43.5572
242.118
-43.0955
242.102
-43.1182
242.413
-43.6265
243.028
-44.6105
243.767
-45.9577
244.459
-47.5485
245.165
-49.2686
245.829
-50.7425
246.286
-51.8385
246.577
-52.7435
246.825
-53.565
247.076
-54.3053
247.322
-54.9535
247.546
-55.5074
247.733
-55.9705
247.879
-56.3491
247.983
-56.6515
248.053
-56.8855
248.097
-57.058
248.122
-57.1742
248.135
-57.2384
248.144
-57.2536
248.154
-57.2214
248.171
-57.1416
248.199
-57.0114
248.243
-56.8236
248.31
-56.5627
248.406
-56.2015
248.536
-55.7078
248.697
-55.0509
248.908
-54.0246
249.367
-51.4836
250.597
-44.5587
252.37
-33.1965
-105.219
-62.2149
-68.6211
-70.1611
-71.2164
-73.3393
-75.7739
-78.2227
-80.7246
-83.2462
-85.7464
-88.2071
-90.6206
-92.9779
-95.2748
-97.508
-99.6765
-101.779
-103.817
-105.789
-107.697
-109.543
-111.327
-113.051
-114.716
-116.324
-117.877
-119.376
-120.823
-122.219
-123.567
-124.868
-126.123
-127.334
-128.503
-129.632
-130.722
-131.775
-132.793
-133.779
-134.734
-135.661
-136.563
-137.442
-138.301
-139.145
-139.976
-140.8
-141.621
-142.443
-143.274
-144.118
-144.982
-145.875
-146.802
-147.775
-148.8
-149.891
-151.055
-152.307
-153.657
-155.124
-156.715
-158.174
-159.394
-160.655
-161.961
-163.314
-164.714
-166.164
-167.66
-169.208
-170.804
-172.455
-174.156
-175.925
-177.743
-179.656
-181.606
-183.704
-185.791
-188.14
-190.367
-193.125
-195.543
-199.072
-202.25
-207.638
-105.225
-62.215
-68.621
-70.161
-71.2163
-73.3393
-75.7738
-78.2226
-80.7246
-83.2462
-85.7464
-88.2071
-90.6206
-92.9779
-95.2747
-97.508
-99.6765
-101.779
-103.817
-105.789
-107.697
-109.543
-111.327
-113.051
-114.716
-116.324
-117.877
-119.376
-120.823
-122.219
-123.567
-124.867
-126.123
-127.334
-128.503
-129.632
-130.722
-131.775
-132.793
-133.779
-134.734
-135.661
-136.563
-137.442
-138.301
-139.145
-139.976
-140.8
-141.621
-142.443
-143.274
-144.118
-144.982
-145.875
-146.802
-147.775
-148.8
-149.891
-151.055
-152.307
-153.657
-155.124
-156.715
-158.174
-159.394
-160.655
-161.961
-163.314
-164.714
-166.164
-167.66
-169.209
-170.804
-172.456
-174.156
-175.925
-177.743
-179.657
-181.606
-183.704
-185.791
-188.14
-190.367
-193.126
-195.544
-199.073
-202.249
-207.63
-105.244
-62.2157
-68.6207
-70.1607
-71.2161
-73.3391
-75.7737
-78.2225
-80.7245
-83.2461
-85.7463
-88.207
-90.6205
-92.9779
-95.2747
-97.508
-99.6764
-101.779
-103.817
-105.789
-107.697
-109.543
-111.327
-113.05
-114.716
-116.324
-117.877
-119.376
-120.823
-122.219
-123.567
-124.867
-126.123
-127.334
-128.503
-129.632
-130.722
-131.775
-132.793
-133.779
-134.734
-135.661
-136.563
-137.442
-138.301
-139.145
-139.976
-140.8
-141.621
-142.443
-143.274
-144.118
-144.982
-145.875
-146.802
-147.775
-148.8
-149.891
-151.055
-152.307
-153.657
-155.125
-156.716
-158.174
-159.394
-160.655
-161.961
-163.315
-164.715
-166.164
-167.661
-169.209
-170.804
-172.456
-174.156
-175.926
-177.744
-179.658
-181.607
-183.705
-185.793
-188.142
-190.369
-193.129
-195.546
-199.08
-202.239
-207.555
-105.278
-62.2168
-68.6203
-70.1601
-71.2156
-73.3388
-75.7734
-78.2223
-80.7243
-83.246
-85.7462
-88.2069
-90.6204
-92.9778
-95.2747
-97.508
-99.6764
-101.779
-103.817
-105.789
-107.697
-109.543
-111.327
-113.05
-114.716
-116.324
-117.877
-119.376
-120.823
-122.219
-123.567
-124.867
-126.123
-127.334
-128.503
-129.632
-130.722
-131.775
-132.793
-133.779
-134.734
-135.661
-136.563
-137.442
-138.301
-139.145
-139.976
-140.8
-141.621
-142.443
-143.274
-144.118
-144.982
-145.875
-146.802
-147.775
-148.8
-149.891
-151.055
-152.308
-153.658
-155.125
-156.716
-158.174
-159.394
-160.656
-161.962
-163.315
-164.715
-166.165
-167.662
-169.21
-170.805
-172.457
-174.158
-175.927
-177.745
-179.66
-181.609
-183.708
-185.795
-188.145
-190.372
-193.134
-195.549
-199.091
-202.211
-207.498
-105.333
-62.2195
-68.6202
-70.1594
-71.215
-73.3382
-75.773
-78.222
-80.724
-83.2458
-85.746
-88.2068
-90.6203
-92.9777
-95.2746
-97.5079
-99.6763
-101.779
-103.816
-105.789
-107.697
-109.543
-111.327
-113.05
-114.716
-116.324
-117.877
-119.376
-120.823
-122.219
-123.567
-124.867
-126.123
-127.334
-128.503
-129.632
-130.722
-131.775
-132.793
-133.779
-134.734
-135.661
-136.563
-137.442
-138.301
-139.145
-139.976
-140.8
-141.621
-142.443
-143.274
-144.118
-144.982
-145.875
-146.803
-147.775
-148.801
-149.891
-151.055
-152.308
-153.658
-155.125
-156.717
-158.175
-159.395
-160.656
-161.963
-163.316
-164.716
-166.166
-167.663
-169.211
-170.807
-172.459
-174.16
-175.93
-177.748
-179.662
-181.612
-183.711
-185.798
-188.15
-190.376
-193.14
-195.552
-199.104
-202.162
-207.444
-105.416
-62.2251
-68.621
-70.1589
-71.2142
-73.3376
-75.7724
-78.2215
-80.7237
-83.2454
-85.7458
-88.2066
-90.6201
-92.9775
-95.2744
-97.5077
-99.6762
-101.779
-103.816
-105.789
-107.697
-109.543
-111.327
-113.05
-114.716
-116.324
-117.877
-119.376
-120.823
-122.219
-123.567
-124.867
-126.122
-127.334
-128.503
-129.632
-130.722
-131.775
-132.793
-133.779
-134.734
-135.661
-136.563
-137.442
-138.301
-139.145
-139.976
-140.8
-141.621
-142.443
-143.274
-144.118
-144.982
-145.875
-146.803
-147.775
-148.801
-149.891
-151.056
-152.308
-153.659
-155.126
-156.717
-158.176
-159.396
-160.657
-161.964
-163.318
-164.718
-166.168
-167.665
-169.213
-170.809
-172.461
-174.162
-175.932
-177.751
-179.666
-181.615
-183.715
-185.802
-188.155
-190.38
-193.147
-195.553
-199.114
-202.088
-207.362
-105.534
-62.2352
-68.6235
-70.1589
-71.2136
-73.3369
-75.7718
-78.221
-80.7232
-83.245
-85.7454
-88.2063
-90.6199
-92.9773
-95.2742
-97.5076
-99.6761
-101.779
-103.816
-105.789
-107.697
-109.543
-111.326
-113.05
-114.716
-116.324
-117.877
-119.376
-120.823
-122.219
-123.567
-124.867
-126.122
-127.334
-128.503
-129.632
-130.722
-131.775
-132.793
-133.779
-134.734
-135.661
-136.563
-137.442
-138.301
-139.145
-139.976
-140.8
-141.621
-142.443
-143.274
-144.118
-144.983
-145.875
-146.803
-147.775
-148.801
-149.892
-151.056
-152.309
-153.659
-155.127
-156.718
-158.177
-159.397
-160.659
-161.965
-163.319
-164.72
-166.17
-167.667
-169.216
-170.811
-172.464
-174.165
-175.936
-177.754
-179.669
-181.619
-183.72
-185.806
-188.16
-190.383
-193.152
-195.549
-199.118
-201.984
-207.232
-105.689
-62.2513
-68.6286
-70.1597
-71.2132
-73.3362
-75.7711
-78.2203
-80.7226
-83.2446
-85.745
-88.2059
-90.6195
-92.977
-95.274
-97.5073
-99.6759
-101.779
-103.816
-105.788
-107.697
-109.542
-111.326
-113.05
-114.715
-116.324
-117.876
-119.376
-120.823
-122.219
-123.567
-124.867
-126.122
-127.334
-128.503
-129.631
-130.722
-131.775
-132.793
-133.779
-134.734
-135.661
-136.563
-137.442
-138.301
-139.145
-139.976
-140.8
-141.621
-142.444
-143.274
-144.118
-144.983
-145.875
-146.803
-147.776
-148.802
-149.892
-151.057
-152.31
-153.66
-155.128
-156.719
-158.178
-159.399
-160.66
-161.967
-163.321
-164.722
-166.172
-167.669
-169.218
-170.814
-172.467
-174.168
-175.939
-177.758
-179.673
-181.623
-183.724
-185.809
-188.165
-190.385
-193.155
-195.539
-199.111
-201.843
-207.037
-105.889
-62.2753
-68.6373
-70.1622
-71.2134
-73.3358
-75.7704
-78.2196
-80.722
-83.244
-85.7445
-88.2054
-90.6191
-92.9767
-95.2737
-97.5071
-99.6756
-101.778
-103.816
-105.788
-107.697
-109.542
-111.326
-113.05
-114.715
-116.324
-117.876
-119.376
-120.822
-122.219
-123.567
-124.867
-126.122
-127.334
-128.503
-129.631
-130.722
-131.775
-132.793
-133.779
-134.734
-135.661
-136.563
-137.442
-138.301
-139.145
-139.976
-140.8
-141.621
-142.444
-143.274
-144.118
-144.983
-145.875
-146.803
-147.776
-148.802
-149.893
-151.057
-152.31
-153.661
-155.129
-156.72
-158.18
-159.4
-160.662
-161.969
-163.323
-164.724
-166.174
-167.672
-169.221
-170.817
-172.47
-174.172
-175.943
-177.761
-179.677
-181.626
-183.727
-185.812
-188.167
-190.383
-193.153
-195.518
-199.086
-201.659
-206.759
-106.139
-62.309
-68.6512
-70.1671
-71.2148
-73.3358
-75.77
-78.219
-80.7213
-83.2433
-85.7439
-88.2049
-90.6187
-92.9762
-95.2733
-97.5067
-99.6753
-101.778
-103.816
-105.788
-107.697
-109.542
-111.326
-113.05
-114.715
-116.323
-117.876
-119.375
-120.822
-122.219
-123.567
-124.867
-126.122
-127.334
-128.503
-129.631
-130.721
-131.775
-132.793
-133.779
-134.734
-135.661
-136.563
-137.442
-138.301
-139.145
-139.976
-140.8
-141.621
-142.444
-143.274
-144.118
-144.983
-145.876
-146.804
-147.776
-148.802
-149.893
-151.058
-152.311
-153.662
-155.13
-156.722
-158.181
-159.402
-160.664
-161.971
-163.325
-164.726
-166.177
-167.674
-169.224
-170.82
-172.474
-174.175
-175.946
-177.764
-179.68
-181.629
-183.729
-185.812
-188.166
-190.375
-193.142
-195.482
-199.035
-201.429
-206.378
-106.445
-62.3544
-68.6715
-70.1755
-71.218
-73.3369
-75.77
-78.2185
-80.7207
-83.2427
-85.7432
-88.2043
-90.6181
-92.9757
-95.2728
-97.5063
-99.6749
-101.778
-103.815
-105.788
-107.696
-109.542
-111.326
-113.05
-114.715
-116.323
-117.876
-119.375
-120.822
-122.219
-123.567
-124.867
-126.122
-127.333
-128.503
-129.631
-130.721
-131.775
-132.793
-133.779
-134.734
-135.661
-136.563
-137.442
-138.301
-139.145
-139.976
-140.8
-141.621
-142.444
-143.274
-144.119
-144.983
-145.876
-146.804
-147.777
-148.803
-149.894
-151.059
-152.312
-153.663
-155.131
-156.723
-158.183
-159.404
-160.666
-161.973
-163.328
-164.729
-166.179
-167.677
-169.227
-170.823
-172.476
-174.177
-175.948
-177.766
-179.682
-181.629
-183.728
-185.807
-188.158
-190.359
-193.117
-195.425
-198.944
-201.147
-205.876
-106.812
-62.4137
-68.6997
-70.1887
-71.2239
-73.3395
-75.7709
-78.2186
-80.7204
-83.2422
-85.7426
-88.2037
-90.6175
-92.9752
-95.2723
-97.5058
-99.6745
-101.777
-103.815
-105.787
-107.696
-109.542
-111.326
-113.05
-114.715
-116.323
-117.876
-119.375
-120.822
-122.219
-123.566
-124.867
-126.122
-127.333
-128.502
-129.631
-130.721
-131.775
-132.793
-133.779
-134.734
-135.661
-136.563
-137.442
-138.301
-139.145
-139.976
-140.8
-141.621
-142.444
-143.274
-144.119
-144.984
-145.876
-146.804
-147.777
-148.803
-149.894
-151.059
-152.313
-153.664
-155.132
-156.725
-158.184
-159.405
-160.667
-161.975
-163.33
-164.731
-166.181
-167.679
-169.229
-170.825
-172.478
-174.178
-175.949
-177.766
-179.68
-181.625
-183.721
-185.796
-188.14
-190.33
-193.071
-195.337
-198.795
-200.809
-205.24
-107.245
-62.4896
-68.737
-70.2079
-71.2336
-73.3445
-75.7734
-78.2196
-80.7206
-83.242
-85.7422
-88.2032
-90.617
-92.9746
-95.2718
-97.5053
-99.674
-101.777
-103.815
-105.787
-107.696
-109.541
-111.325
-113.049
-114.715
-116.323
-117.876
-119.375
-120.822
-122.218
-123.566
-124.867
-126.122
-127.333
-128.502
-129.631
-130.721
-131.774
-132.793
-133.779
-134.734
-135.661
-136.563
-137.442
-138.301
-139.145
-139.976
-140.8
-141.621
-142.444
-143.274
-144.119
-144.984
-145.876
-146.805
-147.778
-148.804
-149.895
-151.06
-152.314
-153.665
-155.133
-156.725
-158.185
-159.406
-160.669
-161.976
-163.331
-164.732
-166.182
-167.68
-169.229
-170.824
-172.477
-174.177
-175.946
-177.761
-179.673
-181.614
-183.705
-185.773
-188.106
-190.28
-192.992
-195.209
-198.568
-200.406
-204.466
-107.741
-62.5853
-68.7845
-70.2345
-71.2482
-73.353
-75.7782
-78.2222
-80.7219
-83.2425
-85.7423
-88.203
-90.6166
-92.9742
-95.2713
-97.5048
-99.6735
-101.776
-103.814
-105.787
-107.695
-109.541
-111.325
-113.049
-114.714
-116.323
-117.875
-119.375
-120.822
-122.218
-123.566
-124.867
-126.122
-127.333
-128.502
-129.631
-130.721
-131.774
-132.793
-133.779
-134.734
-135.661
-136.562
-137.441
-138.301
-139.145
-139.976
-140.8
-141.621
-142.444
-143.274
-144.119
-144.984
-145.876
-146.805
-147.778
-148.804
-149.895
-151.06
-152.314
-153.665
-155.133
-156.726
-158.185
-159.407
-160.669
-161.976
-163.33
-164.731
-166.181
-167.678
-169.226
-170.821
-172.472
-174.17
-175.937
-177.749
-179.657
-181.593
-183.676
-185.734
-188.048
-190.201
-192.865
-195.026
-198.238
-199.925
-203.559
-108.295
-62.7047
-68.8433
-70.2696
-71.269
-73.3659
-75.7863
-78.2272
-80.7248
-83.2442
-85.7432
-88.2034
-90.6167
-92.974
-95.271
-97.5045
-99.6731
-101.776
-103.814
-105.786
-107.695
-109.541
-111.325
-113.049
-114.714
-116.322
-117.875
-119.374
-120.821
-122.218
-123.566
-124.866
-126.122
-127.333
-128.502
-129.631
-130.721
-131.774
-132.793
-133.778
-134.734
-135.661
-136.562
-137.441
-138.301
-139.145
-139.976
-140.8
-141.621
-142.444
-143.274
-144.119
-144.984
-145.876
-146.805
-147.778
-148.804
-149.895
-151.06
-152.313
-153.664
-155.133
-156.725
-158.184
-159.405
-160.667
-161.974
-163.328
-164.727
-166.177
-167.672
-169.219
-170.812
-172.461
-174.156
-175.919
-177.727
-179.627
-181.556
-183.624
-185.668
-187.953
-190.08
-192.673
-194.77
-197.787
-199.347
-202.533
-108.891
-62.8524
-68.9143
-70.3141
-71.2967
-73.3843
-75.7986
-78.2354
-80.7303
-83.2478
-85.7455
-88.2048
-90.6175
-92.9745
-95.2712
-97.5045
-99.673
-101.776
-103.813
-105.786
-107.695
-109.54
-111.324
-113.048
-114.714
-116.322
-117.875
-119.374
-120.821
-122.218
-123.566
-124.866
-126.121
-127.333
-128.502
-129.631
-130.721
-131.774
-132.793
-133.778
-134.733
-135.661
-136.562
-137.441
-138.301
-139.144
-139.976
-140.8
-141.621
-142.444
-143.274
-144.118
-144.983
-145.876
-146.804
-147.777
-148.803
-149.894
-151.059
-152.312
-153.663
-155.13
-156.722
-158.181
-159.401
-160.662
-161.968
-163.321
-164.719
-166.166
-167.66
-169.204
-170.794
-172.439
-174.13
-175.887
-177.687
-179.577
-181.494
-183.541
-185.565
-187.806
-189.898
-192.391
-194.417
-197.194
-198.65
-201.398
-109.502
-63.0338
-68.9983
-70.3688
-71.332
-73.409
-75.8161
-78.2478
-80.7391
-83.2541
-85.7501
-88.208
-90.6198
-92.9761
-95.2723
-97.5052
-99.6735
-101.776
-103.814
-105.786
-107.695
-109.54
-111.324
-113.048
-114.713
-116.322
-117.875
-119.374
-120.821
-122.218
-123.565
-124.866
-126.121
-127.332
-128.502
-129.63
-130.721
-131.774
-132.792
-133.778
-134.733
-135.66
-136.562
-137.441
-138.301
-139.144
-139.976
-140.8
-141.62
-142.443
-143.273
-144.118
-144.982
-145.875
-146.803
-147.775
-148.801
-149.892
-151.056
-152.309
-153.659
-155.125
-156.716
-158.173
-159.393
-160.652
-161.956
-163.307
-164.703
-166.148
-167.638
-169.178
-170.763
-172.402
-174.085
-175.833
-177.622
-179.495
-181.395
-183.411
-185.407
-187.588
-189.631
-191.996
-193.937
-196.445
-197.807
-200.164
-110.092
-63.2541
-69.096
-70.4343
-71.3755
-73.4404
-75.8395
-78.2652
-80.7522
-83.264
-85.7575
-88.2137
-90.6241
-92.9794
-95.2748
-97.5071
-99.6749
-101.777
-103.814
-105.787
-107.695
-109.54
-111.324
-113.048
-114.714
-116.322
-117.875
-119.374
-120.821
-122.218
-123.565
-124.866
-126.121
-127.332
-128.502
-129.63
-130.72
-131.774
-132.792
-133.778
-134.733
-135.66
-136.562
-137.441
-138.3
-139.144
-139.975
-140.799
-141.62
-142.442
-143.273
-144.117
-144.981
-145.873
-146.801
-147.773
-148.798
-149.888
-151.051
-152.303
-153.651
-155.116
-156.705
-158.16
-159.378
-160.635
-161.936
-163.284
-164.676
-166.116
-167.6
-169.134
-170.711
-172.341
-174.013
-175.746
-177.52
-179.368
-181.242
-183.215
-185.171
-187.27
-189.249
-191.458
-193.298
-195.527
-196.795
-198.827
-110.609
-63.5168
-69.2081
-70.5112
-71.427
-73.4787
-75.869
-78.288
-80.77
-83.278
-85.7687
-88.2226
-90.6312
-92.985
-95.2794
-97.5108
-99.6779
-101.78
-103.816
-105.788
-107.696
-109.542
-111.325
-113.049
-114.714
-116.322
-117.875
-119.374
-120.821
-122.218
-123.566
-124.866
-126.121
-127.333
-128.502
-129.63
-130.721
-131.774
-132.792
-133.778
-134.733
-135.66
-136.562
-137.441
-138.3
-139.144
-139.975
-140.798
-141.619
-142.441
-143.271
-144.115
-144.979
-145.87
-146.797
-147.768
-148.792
-149.881
-151.043
-152.292
-153.639
-155.101
-156.686
-158.138
-159.352
-160.606
-161.903
-163.245
-164.631
-166.064
-167.54
-169.063
-170.629
-172.244
-173.901
-175.612
-177.362
-179.175
-181.012
-182.926
-184.825
-186.823
-188.714
-190.746
-192.464
-194.425
-195.592
-197.366
-110.999
-63.8227
-69.3345
-70.6002
-71.4865
-73.5236
-75.9045
-78.3163
-80.7929
-83.2967
-85.784
-88.2353
-90.6417
-92.9938
-95.2867
-97.517
-99.6831
-101.784
-103.82
-105.791
-107.699
-109.544
-111.327
-113.051
-114.716
-116.324
-117.876
-119.375
-120.822
-122.219
-123.566
-124.867
-126.122
-127.333
-128.502
-129.631
-130.721
-131.774
-132.793
-133.778
-134.733
-135.66
-136.562
-137.441
-138.3
-139.143
-139.974
-140.797
-141.617
-142.439
-143.269
-144.112
-144.975
-145.865
-146.791
-147.761
-148.783
-149.87
-151.029
-152.276
-153.619
-155.076
-156.656
-158.103
-159.312
-160.56
-161.849
-163.184
-164.561
-165.982
-167.446
-168.954
-170.503
-172.097
-173.729
-175.41
-177.124
-178.889
-180.674
-182.511
-184.332
-186.206
-187.984
-189.827
-191.404
-193.116
-194.178
-195.746
-111.201
-64.1694
-69.4742
-70.7019
-71.5535
-73.5745
-75.9455
-78.3498
-80.8205
-83.32
-85.8037
-88.252
-90.656
-93.006
-95.2973
-97.5261
-99.691
-101.791
-103.826
-105.797
-107.704
-109.548
-111.331
-113.054
-114.719
-116.326
-117.879
-119.378
-120.824
-122.221
-123.568
-124.869
-126.123
-127.335
-128.504
-129.632
-130.722
-131.775
-132.794
-133.779
-134.734
-135.661
-136.562
-137.441
-138.3
-139.143
-139.973
-140.796
-141.616
-142.437
-143.265
-144.107
-144.969
-145.858
-146.782
-147.749
-148.769
-149.853
-151.008
-152.25
-153.587
-155.038
-156.61
-158.047
-159.249
-160.488
-161.767
-163.089
-164.452
-165.857
-167.302
-168.788
-170.311
-171.875
-173.472
-175.109
-176.773
-178.474
-180.186
-181.925
-183.643
-185.374
-187.015
-188.663
-190.083
-191.572
-192.526
-193.921
-111.158
-64.5512
-69.6239
-70.8174
-71.6278
-73.6307
-75.9913
-78.3875
-80.8523
-83.3472
-85.8273
-88.2725
-90.6739
-93.0218
-95.3112
-97.5384
-99.702
-101.801
-103.835
-105.805
-107.711
-109.554
-111.337
-113.059
-114.724
-116.331
-117.883
-119.381
-120.828
-122.224
-123.571
-124.871
-126.126
-127.337
-128.506
-129.634
-130.724
-131.777
-132.795
-133.781
-134.736
-135.662
-136.563
-137.441
-138.3
-139.142
-139.973
-140.795
-141.613
-142.433
-143.26
-144.1
-144.96
-145.847
-146.768
-147.732
-148.748
-149.826
-150.976
-152.21
-153.539
-154.979
-156.538
-157.963
-159.153
-160.378
-161.641
-162.945
-164.287
-165.668
-167.086
-168.539
-170.026
-171.546
-173.094
-174.67
-176.266
-177.881
-179.497
-181.117
-182.706
-184.276
-185.759
-187.21
-188.468
-189.752
-190.6
-191.838
-110.827
-64.9585
-69.7773
-70.948
-71.7092
-73.6913
-76.041
-78.4287
-80.8872
-83.3775
-85.8538
-88.296
-90.6949
-93.0406
-95.3281
-97.5537
-99.7159
-101.813
-103.846
-105.815
-107.72
-109.563
-111.345
-113.067
-114.731
-116.337
-117.889
-119.387
-120.833
-122.229
-123.576
-124.876
-126.13
-127.341
-128.51
-129.638
-130.728
-131.78
-132.798
-133.783
-134.738
-135.664
-136.565
-137.442
-138.3
-139.142
-139.971
-140.792
-141.609
-142.428
-143.253
-144.09
-144.947
-145.83
-146.747
-147.706
-148.715
-149.786
-150.927
-152.151
-153.466
-154.89
-156.431
-157.835
-159.007
-160.213
-161.452
-162.729
-164.041
-165.387
-166.765
-168.173
-169.608
-171.068
-172.547
-174.042
-175.545
-177.052
-178.547
-180.025
-181.461
-182.857
-184.165
-185.422
-186.515
-187.611
-188.354
-189.438
-110.193
-65.3732
-69.9241
-71.095
-71.7976
-73.7559
-76.094
-78.4724
-80.9241
-83.4096
-85.8823
-88.3214
-90.7179
-93.0615
-95.3472
-97.5712
-99.732
-101.828
-103.86
-105.828
-107.732
-109.575
-111.356
-113.077
-114.74
-116.346
-117.897
-119.395
-120.841
-122.236
-123.583
-124.882
-126.136
-127.347
-128.515
-129.643
-130.733
-131.785
-132.803
-133.787
-134.742
-135.667
-136.567
-137.444
-138.301
-139.142
-139.97
-140.789
-141.604
-142.42
-143.242
-144.076
-144.928
-145.805
-146.715
-147.667
-148.667
-149.726
-150.854
-152.061
-153.358
-154.758
-156.27
-157.645
-158.791
-159.967
-161.172
-162.41
-163.679
-164.976
-166.298
-167.642
-169.006
-170.383
-171.77
-173.16
-174.545
-175.917
-177.265
-178.58
-179.844
-181.054
-182.181
-183.246
-184.174
-185.092
-185.728
-186.657
-109.273
-65.7612
-70.0495
-71.2599
-71.8931
-73.8239
-76.1497
-78.5179
-80.9621
-83.4426
-85.9114
-88.3475
-90.7415
-93.0831
-95.3671
-97.5897
-99.7492
-101.844
-103.875
-105.842
-107.746
-109.587
-111.368
-113.088
-114.751
-116.357
-117.907
-119.404
-120.85
-122.245
-123.591
-124.89
-126.144
-127.354
-128.522
-129.65
-130.739
-131.791
-132.808
-133.793
-134.746
-135.671
-136.57
-137.446
-138.302
-139.141
-139.967
-140.783
-141.595
-142.407
-143.225
-144.053
-144.898
-145.768
-146.668
-147.608
-148.594
-149.637
-150.744
-151.928
-153.196
-154.561
-156.032
-157.365
-158.472
-159.604
-160.762
-161.945
-163.152
-164.38
-165.626
-166.884
-168.151
-169.421
-170.688
-171.945
-173.185
-174.398
-175.576
-176.709
-177.786
-178.804
-179.743
-180.62
-181.385
-182.131
-182.655
-183.428
-108.087
-66.0822
-70.1279
-71.4433
-71.9958
-73.8948
-76.208
-78.5647
-81.0005
-83.4756
-85.9404
-88.3732
-90.7647
-93.1043
-95.3866
-97.6078
-99.7661
-101.86
-103.89
-105.856
-107.759
-109.6
-111.38
-113.1
-114.762
-116.368
-117.918
-119.415
-120.86
-122.254
-123.6
-124.899
-126.153
-127.363
-128.53
-129.658
-130.746
-131.798
-132.815
-133.799
-134.751
-135.675
-136.573
-137.448
-138.302
-139.138
-139.961
-140.774
-141.581
-142.388
-143.198
-144.018
-144.854
-145.711
-146.598
-147.52
-148.486
-149.504
-150.582
-151.731
-152.957
-154.272
-155.683
-156.955
-158.007
-159.078
-160.167
-161.275
-162.398
-163.533
-164.675
-165.819
-166.961
-168.095
-169.213
-170.31
-171.377
-172.409
-173.397
-174.335
-175.216
-176.036
-176.787
-177.478
-178.079
-178.658
-179.064
-179.677
-106.669
-66.3325
-70.1082
-71.6368
-72.1037
-73.9671
-76.2685
-78.6128
-81.0392
-83.5083
-85.9685
-88.3979
-90.7866
-93.1241
-95.4048
-97.6246
-99.7817
-101.875
-103.904
-105.87
-107.772
-109.612
-111.392
-113.111
-114.773
-116.378
-117.928
-119.425
-120.869
-122.264
-123.609
-124.908
-126.161
-127.371
-128.539
-129.666
-130.754
-131.805
-132.821
-133.804
-134.756
-135.679
-136.575
-137.447
-138.298
-139.132
-139.95
-140.758
-141.559
-142.357
-143.158
-143.966
-144.787
-145.627
-146.492
-147.389
-148.325
-149.308
-150.344
-151.443
-152.609
-153.852
-155.177
-156.363
-157.338
-158.325
-159.321
-160.326
-161.336
-162.348
-163.357
-164.357
-165.342
-166.309
-167.25
-168.16
-169.033
-169.864
-170.648
-171.38
-172.058
-172.68
-173.241
-173.749
-174.186
-174.601
-174.883
-175.334
-105.156
-66.5508
-69.9445
-71.8093
-72.2052
-74.0348
-76.329
-78.6611
-81.0774
-83.5402
-85.9956
-88.4211
-90.807
-93.1422
-95.421
-97.6393
-99.7953
-101.888
-103.916
-105.881
-107.783
-109.622
-111.401
-113.121
-114.782
-116.387
-117.937
-119.433
-120.877
-122.272
-123.617
-124.916
-126.169
-127.378
-128.545
-129.672
-130.76
-131.81
-132.826
-133.808
-134.758
-135.679
-136.573
-137.442
-138.29
-139.118
-139.931
-140.731
-141.522
-142.309
-143.095
-143.886
-144.686
-145.501
-146.336
-147.197
-148.09
-149.022
-149.998
-151.025
-152.106
-153.249
-154.455
-155.523
-156.393
-157.266
-158.138
-159.008
-159.874
-160.729
-161.571
-162.394
-163.193
-163.964
-164.702
-165.403
-166.063
-166.679
-167.249
-167.77
-168.242
-168.664
-169.036
-169.363
-169.635
-169.887
-170.04
-170.325
-103.773
-66.8185
-69.6957
-71.9273
-72.2701
-74.0792
-76.3788
-78.7026
-81.1105
-83.568
-86.0193
-88.4413
-90.8243
-93.1574
-95.4344
-97.6513
-99.8062
-101.897
-103.925
-105.889
-107.791
-109.63
-111.408
-113.127
-114.789
-116.393
-117.943
-119.439
-120.883
-122.277
-123.623
-124.921
-126.174
-127.383
-128.55
-129.676
-130.763
-131.813
-132.827
-133.808
-134.756
-135.675
-136.566
-137.431
-138.273
-139.094
-139.898
-140.687
-141.465
-142.235
-143.001
-143.767
-144.537
-145.316
-146.108
-146.919
-147.752
-148.612
-149.504
-150.43
-151.395
-152.4
-153.446
-154.356
-155.088
-155.812
-156.525
-157.227
-157.912
-158.578
-159.221
-159.836
-160.421
-160.973
-161.487
-161.963
-162.398
-162.792
-163.143
-163.451
-163.718
-163.943
-164.129
-164.279
-164.388
-164.479
-164.503
-164.617
-102.468
-67.0961
-69.5503
-72.0435
-72.3047
-74.087
-76.3972
-78.7173
-81.1228
-83.5792
-86.0292
-88.4496
-90.8314
-93.1634
-95.4395
-97.6555
-99.8097
-101.9
-103.928
-105.891
-107.792
-109.631
-111.41
-113.129
-114.79
-116.394
-117.943
-119.44
-120.884
-122.278
-123.623
-124.921
-126.174
-127.383
-128.55
-129.675
-130.762
-131.811
-132.823
-133.802
-134.748
-135.663
-136.549
-137.408
-138.243
-139.055
-139.846
-140.62
-141.379
-142.125
-142.863
-143.594
-144.323
-145.052
-145.784
-146.524
-147.273
-148.035
-148.812
-149.604
-150.412
-151.235
-152.071
-152.779
-153.336
-153.875
-154.394
-154.891
-155.364
-155.81
-156.226
-156.609
-156.959
-157.274
-157.552
-157.793
-157.997
-158.163
-158.294
-158.389
-158.45
-158.479
-158.477
-158.448
-158.391
-158.317
-158.205
-158.135
-101.514
-67.1435
-69.4509
-72.1159
-72.3334
-74.0947
-76.4046
-78.7163
-81.1169
-83.5709
-86.018
-88.4368
-90.8175
-93.1486
-95.4242
-97.64
-99.794
-101.885
-103.912
-105.876
-107.777
-109.617
-111.395
-113.115
-114.776
-116.381
-117.931
-119.427
-120.871
-122.266
-123.611
-124.91
-126.163
-127.372
-128.538
-129.663
-130.749
-131.797
-132.808
-133.785
-134.728
-135.639
-136.52
-137.372
-138.197
-138.998
-139.775
-140.53
-141.266
-141.985
-142.688
-143.378
-144.057
-144.726
-145.388
-146.044
-146.695
-147.343
-147.986
-148.624
-149.255
-149.876
-150.482
-150.973
-151.344
-151.691
-152.012
-152.304
-152.567
-152.799
-152.998
-153.165
-153.299
-153.4
-153.468
-153.503
-153.508
-153.482
-153.428
-153.347
-153.241
-153.112
-152.962
-152.794
-152.608
-152.409
-152.193
-151.986
-101.055
-67.1309
-69.3969
-72.1264
-72.3277
-74.0815
-76.3902
-78.698
-81.0956
-83.5481
-85.9934
-88.412
-90.7925
-93.1234
-95.3994
-97.6156
-99.7702
-101.862
-103.89
-105.854
-107.756
-109.596
-111.376
-113.095
-114.757
-116.363
-117.913
-119.41
-120.855
-122.25
-123.596
-124.894
-126.148
-127.356
-128.523
-129.648
-130.733
-131.78
-132.79
-133.764
-134.704
-135.611
-136.487
-137.332
-138.148
-138.936
-139.698
-140.435
-141.147
-141.837
-142.506
-143.153
-143.781
-144.39
-144.981
-145.553
-146.107
-146.641
-147.153
-147.642
-148.104
-148.534
-148.928
-149.221
-149.427
-149.604
-149.751
-149.866
-149.95
-150.002
-150.023
-150.012
-149.971
-149.9
-149.801
-149.674
-149.522
-149.347
-149.149
-148.932
-148.697
-148.446
-148.181
-147.905
-147.619
-147.326
-147.027
-146.727
-101.005
-67.1188
-69.401
-72.1217
-72.326
-74.0806
-76.389
-78.6968
-81.0943
-83.547
-85.9924
-88.4109
-90.7914
-93.1224
-95.3984
-97.6147
-99.7694
-101.861
-103.889
-105.854
-107.755
-109.596
-111.375
-113.095
-114.757
-116.362
-117.913
-119.41
-120.855
-122.249
-123.595
-124.894
-126.147
-127.355
-128.521
-129.645
-130.73
-131.775
-132.784
-133.755
-134.692
-135.595
-136.465
-137.302
-138.109
-138.885
-139.632
-140.349
-141.038
-141.699
-142.333
-142.938
-143.515
-144.064
-144.584
-145.073
-145.531
-145.955
-146.342
-146.689
-146.991
-147.243
-147.441
-147.556
-147.613
-147.638
-147.631
-147.592
-147.521
-147.42
-147.288
-147.128
-146.941
-146.729
-146.492
-146.235
-145.957
-145.662
-145.352
-145.028
-144.693
-144.349
-143.997
-143.64
-143.279
-142.916
-142.552
-142.181
-101.361
-67.105
-69.4644
-72.1034
-72.3304
-74.0941
-76.4031
-78.7148
-81.1156
-83.5694
-86.0167
-88.4356
-90.8162
-93.1473
-95.4229
-97.6387
-99.7929
-101.884
-103.911
-105.875
-107.776
-109.616
-111.394
-113.114
-114.775
-116.38
-117.93
-119.426
-120.871
-122.265
-123.61
-124.908
-126.161
-127.369
-128.533
-129.657
-130.74
-131.784
-132.79
-133.759
-134.693
-135.591
-136.455
-137.285
-138.082
-138.846
-139.577
-140.276
-140.941
-141.574
-142.172
-142.735
-143.263
-143.753
-144.204
-144.613
-144.978
-145.296
-145.564
-145.776
-145.929
-146.016
-146.034
-145.986
-145.91
-145.8
-145.659
-145.487
-145.284
-145.052
-144.794
-144.51
-144.204
-143.878
-143.533
-143.171
-142.795
-142.408
-142.01
-141.605
-141.194
-140.779
-140.362
-139.944
-139.527
-139.111
-138.701
-138.28
-102.193
-67.0338
-69.5737
-72.0259
-72.3016
-74.0878
-76.3959
-78.7166
-81.1235
-83.579
-86.0294
-88.4501
-90.8316
-93.1634
-95.4395
-97.6554
-99.8095
-101.9
-103.927
-105.891
-107.792
-109.631
-111.409
-113.128
-114.789
-116.394
-117.943
-119.439
-120.883
-122.277
-123.622
-124.919
-126.171
-127.379
-128.543
-129.665
-130.747
-131.79
-132.794
-133.761
-134.691
-135.585
-136.443
-137.266
-138.054
-138.806
-139.523
-140.204
-140.847
-141.452
-142.017
-142.541
-143.022
-143.457
-143.843
-144.177
-144.457
-144.678
-144.836
-144.926
-144.945
-144.886
-144.747
-144.558
-144.367
-144.143
-143.889
-143.604
-143.291
-142.952
-142.59
-142.206
-141.803
-141.384
-140.95
-140.505
-140.051
-139.59
-139.123
-138.653
-138.182
-137.711
-137.242
-136.776
-136.316
-135.858
-135.414
-134.955
-103.367
-66.7607
-69.7186
-71.91
-72.2661
-74.0822
-76.3789
-78.704
-81.1139
-83.5699
-86.0214
-88.4434
-90.8262
-93.1589
-95.4359
-97.6525
-99.8073
-101.898
-103.926
-105.89
-107.791
-109.63
-111.409
-113.128
-114.789
-116.394
-117.943
-119.439
-120.883
-122.277
-123.621
-124.919
-126.171
-127.378
-128.542
-129.664
-130.745
-131.786
-132.789
-133.754
-134.681
-135.572
-136.426
-137.243
-138.024
-138.767
-139.472
-140.138
-140.763
-141.346
-141.884
-142.376
-142.819
-143.209
-143.543
-143.817
-144.029
-144.172
-144.243
-144.238
-144.152
-143.98
-143.72
-143.423
-143.145
-142.835
-142.496
-142.128
-141.733