/*--------------------------------*- C++ -*----------------------------------*\
| =========                 |                                                 |
| \\      /  F ield         | OpenFOAM: The Open Source CFD Toolbox           |
|  \\    /   O peration     | Version:  2306                                  |
|   \\  /    A nd           | Website:  www.openfoam.com                      |
|    \\/     M anipulation  |                                                 |
\*---------------------------------------------------------------------------*/
FoamFile
{
    version     2.0;
    format      ascii;
    arch        "LSB;label=32;scalar=64";
    class       surfaceScalarField;
    location    "1600";
    object      phi;
}
// * * * * * * * * * * * * * * * * * * * * * * * * * * * * * * * * * * * * * //

dimensions      [0 3 -1 0 0 0 0];

oriented        oriented;

internalField   nonuniform List<scalar> 
40747
(
6.99782e-06
7.88268e-06
2.38789e-06
4.60993e-06
8.47413e-06
1.74099e-05
3.88881e-06
6.97321e-06
1.0269e-05
2.89176e-05
4.75392e-06
9.40389e-06
1.24524e-05
4.28091e-05
5.19369e-06
1.20126e-05
1.51118e-05
5.95663e-05
5.29401e-06
1.50115e-05
1.83564e-05
7.97626e-05
5.07163e-06
1.85787e-05
2.23228e-05
0.000104078
4.50823e-06
2.28862e-05
2.71827e-05
0.000133315
3.56649e-06
2.81245e-05
3.31536e-05
0.000168414
2.19891e-06
3.45211e-05
4.05116e-05
0.000210469
3.54968e-07
4.23556e-05
4.9611e-05
0.000260742
-2.01041e-06
5.19763e-05
6.09083e-05
0.000320665
-4.92486e-06
6.38227e-05
7.49968e-05
0.000391842
-8.38086e-06
7.84528e-05
9.26532e-05
0.000476018
-1.23097e-05
9.6582e-05
0.000114901
0.000575033
-1.65437e-05
0.000119135
0.000143102
0.000690711
-2.07633e-05
0.000147322
0.000179075
0.00082469
-2.44242e-05
0.000182736
0.00022527
0.00097813
-2.66615e-05
0.000227507
0.000285006
0.00115126
-2.61678e-05
0.000284513
0.000362802
0.00134268
-2.10489e-05
0.000357683
0.000464829
0.0015483
-8.6811e-06
0.000452462
0.000599519
0.00175985
1.43572e-05
0.00057648
0.000778239
0.00196278
5.2092e-05
0.000740504
0.00101564
0.00213408
0.000108103
0.000959631
0.00132826
0.00224171
0.000181859
0.0012545
0.0017321
0.00224664
0.000262601
0.00165135
0.00224446
0.00210351
0.000330324
0.00217673
0.00285338
0.00179216
0.000352398
0.00283131
0.00349451
0.00137282
0.000302539
0.00354437
0.00421455
0.000878389
0.000211387
0.0043057
0.00401752
0.000425378
0.000113212
0.00411569
0.00400697
-1.7089e-05
1.16382e-05
0.00410854
0.00400665
-0.000459235
-8.9825e-05
0.00410811
0.00401629
-0.000911019
-0.000187943
0.00411441
0.00408298
-0.00138674
-0.000278085
0.00417312
0.00340644
-0.00179231
-0.000332064
0.00346042
0.00280714
-0.00210305
-0.000319615
0.00279469
0.0022329
-0.0022592
-0.000260049
0.00217333
0.00173982
-0.00227138
-0.000184743
0.00166451
0.00134658
-0.00218074
-0.000112857
0.00127469
0.00103852
-0.00202365
-5.61994e-05
0.000981866
0.000801778
-0.00183081
-1.67802e-05
0.000762359
0.000621782
-0.00162517
8.14421e-06
0.000596858
0.000485
-0.00142184
2.21954e-05
0.000470949
0.000380636
-0.00122986
2.86269e-05
0.000374205
0.000300549
-0.00105405
3.00244e-05
0.000299151
0.000238702
-0.00089647
2.83124e-05
0.000240414
0.000190631
-0.000757437
2.48602e-05
0.000194084
0.000153025
-0.000636217
2.06042e-05
0.000157281
0.000123418
-0.000531491
1.6157e-05
0.000127865
9.99666e-05
-0.000441666
1.18979e-05
0.000104226
8.12834e-05
-0.000365063
8.04291e-06
8.51384e-05
6.63187e-05
-0.000300036
4.69733e-06
6.96643e-05
5.4273e-05
-0.000245044
1.89507e-06
5.70753e-05
4.45332e-05
-0.00019868
-3.73903e-07
4.68022e-05
3.66259e-05
-0.000159688
-2.1442e-06
3.83962e-05
3.01829e-05
-0.000126966
-3.46183e-06
3.15005e-05
2.49162e-05
-9.9551e-05
-4.37503e-06
2.58294e-05
2.05988e-05
-7.6616e-05
-4.92758e-06
2.11514e-05
1.70508e-05
-5.74513e-05
-5.15266e-06
1.72759e-05
1.41289e-05
-4.14527e-05
-5.06465e-06
1.40409e-05
1.1718e-05
-2.81078e-05
-4.64339e-06
1.12968e-05
9.72576e-06
-1.69837e-05
-3.80085e-06
8.88322e-06
8.07734e-06
-7.71629e-06
-2.32928e-06
6.60577e-06
6.71278e-06
4.3835e-06
2.47382e-06
2.13611e-06
1.70441e-06
7.69404e-07
1.51615e-06
1.88262e-07
1.40521e-06
1.10938e-07
1.33568e-06
6.95344e-08
1.28944e-06
4.62391e-08
1.25667e-06
3.27714e-08
1.23247e-06
2.41953e-08
1.2141e-06
1.83691e-08
1.19982e-06
1.42835e-08
1.1885e-06
1.13201e-08
1.1794e-06
9.09992e-09
1.17199e-06
7.40745e-09
1.16591e-06
6.08363e-09
1.16086e-06
5.05292e-09
1.15664e-06
4.21583e-09
1.1531e-06
3.53848e-09
1.15011e-06
2.99573e-09
1.14757e-06
2.54036e-09
1.14539e-06
2.17879e-09
1.14352e-06
1.86707e-09
1.14192e-06
1.60744e-09
1.14052e-06
1.3939e-09
1.13931e-06
1.2134e-09
1.13825e-06
1.05896e-09
1.13732e-06
9.27269e-10
1.13651e-06
8.1749e-10
1.13578e-06
7.22842e-10
1.13514e-06
6.4212e-10
1.13457e-06
5.71363e-10
1.13406e-06
5.11167e-10
1.1336e-06
4.57971e-10
1.13319e-06
4.12771e-10
1.13282e-06
3.71481e-10
1.13248e-06
3.36697e-10
1.13218e-06
3.02899e-10
1.1319e-06
2.72925e-10
1.13166e-06
2.45437e-10
1.13144e-06
2.18108e-10
1.13125e-06
1.91313e-10
1.13108e-06
1.64298e-10
1.13095e-06
1.35542e-10
1.13084e-06
1.05113e-10
1.13077e-06
7.16435e-11
1.13073e-06
3.37277e-11
1.13074e-06
-9.11845e-12
1.1308e-06
-5.65975e-11
1.13091e-06
-1.17074e-10
1.1311e-06
-1.81266e-10
1.13135e-06
-2.50314e-10
1.13168e-06
-3.36564e-10
1.13212e-06
-4.31999e-10
1.13266e-06
-5.43002e-10
1.13333e-06
-6.65945e-10
1.13414e-06
-8.09394e-10
1.13511e-06
-9.66691e-10
1.13627e-06
-1.14743e-09
1.13763e-06
-1.34679e-09
1.13922e-06
-1.57196e-09
1.14107e-06
-1.82361e-09
1.14322e-06
-2.10819e-09
1.14568e-06
-2.42626e-09
1.14853e-06
-2.79193e-09
1.15066e-06
-2.06293e-09
1.15294e-06
-2.1718e-09
1.15537e-06
-2.31341e-09
1.15796e-06
-2.44445e-09
1.1607e-06
-2.58762e-09
1.1636e-06
-2.72305e-09
1.16667e-06
-2.87902e-09
1.16991e-06
-3.0411e-09
1.17333e-06
-3.22476e-09
1.17695e-06
-3.42711e-09
1.18077e-06
-3.64549e-09
1.18485e-06
-3.908e-09
1.18919e-06
-4.15518e-09
1.19385e-06
-4.49475e-09
1.19882e-06
-4.78414e-09
1.20426e-06
-5.29761e-09
1.21004e-06
-5.69194e-09
1.21654e-06
-6.55379e-09
1.22367e-06
-7.35876e-09
1.23161e-06
-8.48662e-09
1.24115e-06
-1.04274e-08
1.25444e-06
-1.46621e-08
1.27263e-06
-2.03894e-08
1.27072e-06
-3.90242e-10
-6.74645e-07
1.94381e-06
5.5032e-06
3.60612e-06
4.31972e-06
1.95289e-06
3.95009e-06
5.57882e-07
3.71649e-06
3.44543e-07
3.56484e-06
2.21178e-07
3.46203e-06
1.49054e-07
3.38816e-06
1.06642e-07
3.33311e-06
7.92399e-08
3.29106e-06
6.04193e-08
3.25821e-06
4.71338e-08
3.23208e-06
3.74497e-08
3.21102e-06
3.01638e-08
3.19384e-06
2.45918e-08
3.1797e-06
2.02228e-08
3.16794e-06
1.68133e-08
3.15812e-06
1.40413e-08
3.14986e-06
1.1794e-08
3.14287e-06
9.99097e-09
3.13693e-06
8.47718e-09
3.13184e-06
7.27291e-09
3.12747e-06
6.23552e-09
3.12371e-06
5.37037e-09
3.12045e-06
4.65775e-09
3.11761e-06
4.05547e-09
3.11513e-06
3.54005e-09
3.11296e-06
3.10035e-09
3.11104e-06
2.7332e-09
3.10935e-06
2.41686e-09
3.10784e-06
2.14687e-09
3.1065e-06
1.91028e-09
3.10531e-06
1.70873e-09
3.10423e-06
1.53064e-09
3.10327e-06
1.37904e-09
3.1024e-06
1.24064e-09
3.10161e-06
1.12367e-09
3.1009e-06
1.01032e-09
3.10026e-06
9.09233e-10
3.09969e-06
8.16385e-10
3.09918e-06
7.23933e-10
3.09874e-06
6.32951e-10
3.09836e-06
5.40828e-10
3.09805e-06
4.42512e-10
3.09782e-06
3.37962e-10
3.09767e-06
2.22646e-10
3.09761e-06
9.18123e-11
3.09765e-06
-5.70002e-11
3.09782e-06
-2.2169e-10
3.09813e-06
-4.29507e-10
3.0986e-06
-6.53089e-10
3.09924e-06
-8.96022e-10
3.10011e-06
-1.19606e-09
3.1012e-06
-1.52882e-09
3.10258e-06
-1.91608e-09
3.10427e-06
-2.3468e-09
3.10632e-06
-2.84652e-09
3.10876e-06
-3.39799e-09
3.11167e-06
-4.02682e-09
3.11508e-06
-4.72508e-09
3.11906e-06
-5.50824e-09
3.12369e-06
-6.39015e-09
3.12904e-06
-7.37901e-09
3.1352e-06
-8.4936e-09
3.14231e-06
-9.7691e-09
3.14764e-06
-7.23499e-09
3.15331e-06
-7.60106e-09
3.15932e-06
-8.07789e-09
3.16572e-06
-8.53264e-09
3.17252e-06
-9.04915e-09
3.17968e-06
-9.50411e-09
3.18727e-06
-1.00709e-08
3.19526e-06
-1.06061e-08
3.2037e-06
-1.12738e-08
3.2126e-06
-1.19323e-08
3.22203e-06
-1.27228e-08
3.23201e-06
-1.35386e-08
3.24268e-06
-1.44579e-08
3.25397e-06
-1.54365e-08
3.26613e-06
-1.65891e-08
3.27902e-06
-1.79323e-08
3.29319e-06
-1.9715e-08
3.30814e-06
-2.16679e-08
3.32586e-06
-2.55889e-08
3.34333e-06
-2.70913e-08
3.36778e-06
-3.6696e-08
3.3943e-06
-4.38789e-08
3.4391e-06
-6.94787e-08
3.46226e-06
-2.78404e-08
-1.17901e-06
3.96446e-06
8.81407e-06
4.19593e-06
7.68453e-06
3.08243e-06
7.22634e-06
1.01606e-06
6.90025e-06
6.70636e-07
6.67711e-06
4.44311e-07
6.52159e-06
3.04577e-07
6.40762e-06
2.20611e-07
6.32161e-06
1.65252e-07
6.25537e-06
1.26659e-07
6.20331e-06
9.91958e-08
6.1617e-06
7.90539e-08
6.12805e-06
6.38191e-08
6.10052e-06
5.21238e-08
6.07782e-06
4.29274e-08
6.0589e-06
3.57298e-08
6.04307e-06
2.98734e-08
6.02975e-06
2.51135e-08
6.01846e-06
2.12883e-08
6.00886e-06
1.80757e-08
6.00062e-06
1.55116e-08
5.99355e-06
1.33081e-08
5.98746e-06
1.14663e-08
5.98217e-06
9.94608e-09
5.97756e-06
8.66175e-09
5.97354e-06
7.56298e-09
5.97002e-06
6.62478e-09
5.96691e-06
5.83963e-09
5.96417e-06
5.1637e-09
5.96173e-06
4.58637e-09
5.95956e-06
4.08076e-09
5.95762e-06
3.64919e-09
5.95588e-06
3.26792e-09
5.95432e-06
2.94236e-09
5.95291e-06
2.6455e-09
5.95164e-06
2.393e-09
5.9505e-06
2.14957e-09
5.94948e-06
1.93025e-09
5.94856e-06
1.72794e-09
5.94776e-06
1.52602e-09
5.94707e-06
1.32569e-09
5.94648e-06
1.12109e-09
5.94602e-06
9.01682e-10
5.94569e-06
6.65994e-10
5.94551e-06
4.04648e-10
5.94549e-06
1.07168e-10
5.94567e-06
-2.34969e-10
5.94606e-06
-6.13498e-10
5.94671e-06
-1.08372e-09
5.94766e-06
-1.6009e-09
5.94893e-06
-2.17243e-09
5.95061e-06
-2.8657e-09
5.95272e-06
-3.63694e-09
5.95534e-06
-4.53568e-09
5.95854e-06
-5.53974e-09
5.96241e-06
-6.69979e-09
5.96701e-06
-7.98851e-09
5.97247e-06
-9.45296e-09
5.97887e-06
-1.10887e-08
5.98634e-06
-1.29198e-08
5.99501e-06
-1.49896e-08
6.00502e-06
-1.73033e-08
6.01655e-06
-1.99169e-08
6.02982e-06
-2.28921e-08
6.03974e-06
-1.69761e-08
6.05031e-06
-1.79111e-08
6.06154e-06
-1.9026e-08
6.07348e-06
-2.01368e-08
6.08616e-06
-2.13728e-08
6.09956e-06
-2.24891e-08
6.11375e-06
-2.38399e-08
6.1287e-06
-2.51082e-08
6.14452e-06
-2.6682e-08
6.16116e-06
-2.81706e-08
6.17887e-06
-3.00538e-08
6.19749e-06
-3.18002e-08
6.21753e-06
-3.4123e-08
6.23853e-06
-3.60801e-08
6.26155e-06
-3.92484e-08
6.28546e-06
-4.15881e-08
6.31261e-06
-4.67344e-08
6.34026e-06
-4.95052e-08
6.37427e-06
-6.01609e-08
6.40712e-06
-6.11178e-08
6.45432e-06
-8.57619e-08
6.50074e-06
-9.30263e-08
6.58505e-06
-1.5811e-07
6.67556e-06
-1.22579e-07
-1.44356e-06
6.93828e-06
1.22471e-05
3.96149e-06
1.13132e-05
4.01631e-06
1.08297e-05
1.49953e-06
1.04317e-05
1.06865e-06
1.01437e-05
7.32372e-07
9.93745e-06
5.10775e-07
9.78373e-06
3.74337e-07
9.66645e-06
2.82525e-07
9.57554e-06
2.17574e-07
9.50375e-06
1.70988e-07
9.44617e-06
1.36628e-07
9.39948e-06
1.10514e-07
9.36121e-06
9.03994e-08
9.32959e-06
7.45437e-08
9.30322e-06
6.21022e-08
9.28112e-06
5.19739e-08
9.26251e-06
4.37244e-08
9.24672e-06
3.70846e-08
9.23329e-06
3.15077e-08
9.22176e-06
2.70429e-08
9.21185e-06
2.32151e-08
9.20331e-06
2.00095e-08
9.1959e-06
1.73581e-08
9.18944e-06
1.51193e-08
9.1838e-06
1.32047e-08
9.17886e-06
1.15684e-08
9.17451e-06
1.01964e-08
9.17065e-06
9.01601e-09
9.16723e-06
8.00715e-09
9.16419e-06
7.12419e-09
9.16147e-06
6.36929e-09
9.15904e-06
5.70247e-09
9.15685e-06
5.13155e-09
9.15488e-06
4.61165e-09
9.1531e-06
4.16686e-09
9.15151e-06
3.74033e-09
9.15009e-06
3.35277e-09
9.14882e-06
2.99404e-09
9.14771e-06
2.63564e-09
9.14675e-06
2.27786e-09
9.14596e-06
1.9102e-09
9.14535e-06
1.51469e-09
9.14492e-06
1.08669e-09
9.14472e-06
6.10421e-10
9.14475e-06
6.72488e-11
9.14508e-06
-5.62399e-10
9.14572e-06
-1.25966e-09
9.14675e-06
-2.11377e-09
9.14822e-06
-3.06826e-09
9.15019e-06
-4.13766e-09
9.15274e-06
-5.41728e-09
9.15595e-06
-6.84345e-09
9.15992e-06
-8.50666e-09
9.16476e-06
-1.03703e-08
9.17059e-06
-1.2517e-08
9.17754e-06
-1.49125e-08
9.18574e-06
-1.76281e-08
9.19537e-06
-2.06734e-08
9.20659e-06
-2.4077e-08
9.21961e-06
-2.79333e-08
9.23464e-06
-3.22341e-08
9.25194e-06
-3.70997e-08
9.27181e-06
-4.26052e-08
9.28664e-06
-3.16043e-08
9.30245e-06
-3.34429e-08
9.31923e-06
-3.55125e-08
9.33707e-06
-3.76179e-08
9.35602e-06
-3.99322e-08
9.37604e-06
-4.20591e-08
9.39722e-06
-4.45785e-08
9.41953e-06
-4.69371e-08
9.44313e-06
-4.98527e-08
9.46792e-06
-5.2528e-08
9.49431e-06
-5.60409e-08
9.52194e-06
-5.90503e-08
9.55174e-06
-6.35248e-08
9.58274e-06
-6.67104e-08
9.61695e-06
-7.30787e-08
9.65203e-06
-7.64042e-08
9.69239e-06
-8.69666e-08
9.73262e-06
-8.99441e-08
9.78286e-06
-1.10999e-07
9.83032e-06
-1.09818e-07
9.89984e-06
-1.57257e-07
9.96255e-06
-1.58588e-07
1.00822e-05
-2.82314e-07
1.02144e-05
-2.59159e-07
-1.67581e-06
1.04449e-05
1.60657e-05
2.90723e-06
1.5395e-05
4.68704e-06
1.49433e-05
1.95121e-06
1.44877e-05
1.52433e-06
1.41336e-05
1.08638e-06
1.3872e-05
7.72455e-07
1.36731e-05
5.73176e-07
1.35196e-05
4.35999e-07
1.33998e-05
3.37415e-07
1.33047e-05
2.66088e-07
1.32282e-05
2.13167e-07
1.31659e-05
1.72755e-07
1.31148e-05
1.41521e-07
1.30725e-05
1.16839e-07
1.30372e-05
9.74248e-08
1.30076e-05
8.16108e-08
1.29826e-05
6.87048e-08
1.29614e-05
5.8302e-08
1.29433e-05
4.95636e-08
1.29278e-05
4.25482e-08
1.29145e-05
3.65456e-08
1.2903e-05
3.15105e-08
1.2893e-05
2.73382e-08
1.28843e-05
2.38163e-08
1.28767e-05
2.08054e-08
1.287e-05
1.82302e-08
1.28642e-05
1.60672e-08
1.2859e-05
1.42072e-08
1.28544e-05
1.26166e-08
1.28503e-05
1.12252e-08
1.28466e-05
1.0034e-08
1.28433e-05
8.98202e-09
1.28404e-05
8.07926e-09
1.28377e-05
7.25835e-09
1.28353e-05
6.55257e-09
1.28332e-05
5.8792e-09
1.28313e-05
5.26343e-09
1.28296e-05
4.69205e-09
1.28281e-05
4.12137e-09
1.28268e-05
3.54939e-09
1.28258e-05
2.9593e-09
1.2825e-05
2.32363e-09
1.28244e-05
1.63247e-09
1.28242e-05
8.61801e-10
1.28242e-05
-1.76515e-11
1.28247e-05
-1.04196e-09
1.28256e-05
-2.17941e-09
1.28271e-05
-3.55465e-09
1.28291e-05
-5.10778e-09
1.28319e-05
-6.86829e-09
1.28354e-05
-8.9529e-09
1.28398e-05
-1.1279e-08
1.28453e-05
-1.39925e-08
1.2852e-05
-1.70388e-08
1.286e-05
-2.05396e-08
1.28696e-05
-2.44576e-08
1.28809e-05
-2.88905e-08
1.28942e-05
-3.38743e-08
1.29096e-05
-3.9437e-08
1.29275e-05
-4.57479e-08
1.29481e-05
-5.2773e-08
1.29719e-05
-6.07293e-08
1.29992e-05
-6.96811e-08
1.30195e-05
-5.16811e-08
1.30411e-05
-5.47859e-08
1.30641e-05
-5.81537e-08
1.30885e-05
-6.16077e-08
1.31144e-05
-6.53819e-08
1.31417e-05
-6.8885e-08
1.31706e-05
-7.29809e-08
1.3201e-05
-7.67978e-08
1.32332e-05
-8.15129e-08
1.32669e-05
-8.57374e-08
1.33027e-05
-9.14332e-08
1.33401e-05
-9.60348e-08
1.33804e-05
-1.034e-07
1.34222e-05
-1.0805e-07
1.34683e-05
-1.18743e-07
1.35152e-05
-1.2304e-07
1.35693e-05
-1.40909e-07
1.36226e-05
-1.43528e-07
1.36893e-05
-1.78332e-07
1.37515e-05
-1.73354e-07
1.38426e-05
-2.50585e-07
1.39211e-05
-2.40229e-07
1.4071e-05
-4.37048e-07
1.42265e-05
-4.19484e-07
-1.9444e-06
1.44932e-05
2.05132e-05
9.72737e-07
2.01678e-05
5.03246e-06
1.98196e-05
2.29944e-06
1.93328e-05
2.01106e-06
1.89166e-05
1.50261e-06
1.85956e-05
1.09346e-06
1.83457e-05
8.23062e-07
1.815e-05
6.31719e-07
1.79958e-05
4.91635e-07
1.78727e-05
3.89214e-07
1.77731e-05
3.12694e-07
1.76919e-05
2.5395e-07
1.76251e-05
2.08371e-07
1.75697e-05
1.72256e-07
1.75233e-05
1.43772e-07
1.74844e-05
1.20552e-07
1.74515e-05
1.01564e-07
1.74236e-05
8.62344e-08
1.73998e-05
7.33553e-08
1.73794e-05
6.29872e-08
1.73618e-05
5.41311e-08
1.73466e-05
4.66915e-08
1.73334e-05
4.05154e-08
1.7322e-05
3.53029e-08
1.73119e-05
3.08477e-08
1.73031e-05
2.70348e-08
1.72954e-05
2.38268e-08
1.72885e-05
2.10691e-08
1.72824e-05
1.87094e-08
1.7277e-05
1.66464e-08
1.72721e-05
1.48779e-08
1.72678e-05
1.33166e-08
1.72639e-05
1.1974e-08
1.72604e-05
1.0755e-08
1.72573e-05
9.70241e-09
1.72544e-05
8.70303e-09
1.72519e-05
7.78473e-09
1.72497e-05
6.9311e-09
1.72477e-05
6.07946e-09
1.7246e-05
5.22387e-09
1.72446e-05
4.33906e-09
1.72436e-05
3.38572e-09
1.72429e-05
2.34605e-09
1.72425e-05
1.18561e-09
1.72427e-05
-1.3829e-10
1.72433e-05
-1.68382e-09
1.72445e-05
-3.40811e-09
1.72464e-05
-5.46688e-09
1.72491e-05
-7.80738e-09
1.72528e-05
-1.04876e-08
1.72574e-05
-1.36351e-08
1.72633e-05
-1.71516e-08
1.72706e-05
-2.12521e-08
1.72794e-05
-2.58611e-08
1.729e-05
-3.1148e-08
1.73027e-05
-3.70765e-08
1.73176e-05
-4.37731e-08
1.73351e-05
-5.13146e-08
1.73555e-05
-5.97216e-08
1.73791e-05
-6.92659e-08
1.74064e-05
-7.98734e-08
1.74377e-05
-9.18962e-08
1.74736e-05
-1.05355e-07
1.75003e-05
-7.81092e-08
1.75287e-05
-8.2892e-08
1.75589e-05
-8.79512e-08
1.7591e-05
-9.31469e-08
1.76249e-05
-9.88067e-08
1.76607e-05
-1.04091e-07
1.76985e-05
-1.10218e-07
1.77383e-05
-1.15897e-07
1.77802e-05
-1.22916e-07
1.78241e-05
-1.29087e-07
1.78708e-05
-1.37559e-07
1.79194e-05
-1.44116e-07
1.79716e-05
-1.55128e-07
1.80256e-05
-1.61521e-07
1.80849e-05
-1.77627e-07
1.81452e-05
-1.82975e-07
1.82144e-05
-2.09905e-07
1.82823e-05
-2.11775e-07
1.83667e-05
-2.63453e-07
1.84451e-05
-2.53296e-07
1.85582e-05
-3.66149e-07
1.8655e-05
-3.40603e-07
1.88322e-05
-6.1969e-07
1.90076e-05
-6.00187e-07
-2.24211e-06
1.93031e-05
2.58113e-05
-1.95243e-06
2.58571e-05
4.98664e-06
2.56967e-05
2.45992e-06
2.52233e-05
2.48441e-06
2.4759e-05
1.96691e-06
2.43794e-05
1.47302e-06
2.40742e-05
1.12832e-06
2.38304e-05
8.75532e-07
2.36359e-05
6.86094e-07
2.34794e-05
5.45722e-07
2.33522e-05
4.39929e-07
2.32479e-05
3.58187e-07
2.31618e-05
2.94464e-07
2.30903e-05
2.43805e-07
2.30304e-05
2.03723e-07
2.29799e-05
1.71011e-07
2.29373e-05
1.44202e-07
2.2901e-05
1.2252e-07
2.287e-05
1.04296e-07
2.28435e-05
8.95841e-08
2.28206e-05
7.7035e-08
2.28008e-05
6.64784e-08
2.27836e-05
5.76983e-08
2.27686e-05
5.02871e-08
2.27555e-05
4.3954e-08
2.2744e-05
3.85304e-08
2.27339e-05
3.39595e-08
2.27249e-05
3.0031e-08
2.2717e-05
2.66673e-08
2.27099e-05
2.3728e-08
2.27036e-05
2.12051e-08
2.26979e-05
1.89786e-08
2.26928e-05
1.70602e-08
2.26882e-05
1.53212e-08
2.26841e-05
1.38138e-08
2.26804e-05
1.23892e-08
2.26771e-05
1.10755e-08
2.26742e-05
9.85263e-09
2.26717e-05
8.63471e-09
2.26695e-05
7.40972e-09
2.26677e-05
6.14122e-09
2.26663e-05
4.77537e-09
2.26653e-05
3.28328e-09
2.26649e-05
1.61724e-09
2.2665e-05
-2.81912e-10
2.26658e-05
-2.49975e-09
2.26674e-05
-4.98858e-09
2.26699e-05
-7.92717e-09
2.26733e-05
-1.12804e-08
2.2678e-05
-1.51503e-08
2.2684e-05
-1.96681e-08
2.26916e-05
-2.47252e-08
2.2701e-05
-3.06133e-08
2.27124e-05
-3.72379e-08
2.27261e-05
-4.48244e-08
2.27424e-05
-5.33431e-08
2.27616e-05
-6.2952e-08
2.27842e-05
-7.37847e-08
2.28104e-05
-8.58476e-08
2.28408e-05
-9.9545e-08
2.28759e-05
-1.14747e-07
2.29161e-05
-1.31985e-07
2.29623e-05
-1.51197e-07
2.29965e-05
-1.12036e-07
2.3033e-05
-1.18973e-07
2.30718e-05
-1.26183e-07
2.31128e-05
-1.3357e-07
2.31562e-05
-1.41598e-07
2.32019e-05
-1.49123e-07
2.32502e-05
-1.57795e-07
2.33009e-05
-1.65795e-07
2.33543e-05
-1.75677e-07
2.34101e-05
-1.84247e-07
2.34693e-05
-1.96135e-07
2.35309e-05
-2.05076e-07
2.35969e-05
-2.20506e-07
2.36649e-05
-2.29018e-07
2.37394e-05
-2.51581e-07
2.38151e-05
-2.58237e-07
2.39012e-05
-2.95847e-07
2.3986e-05
-2.96846e-07
2.40899e-05
-3.6822e-07
2.41869e-05
-3.5214e-07
2.43228e-05
-5.0486e-07
2.4442e-05
-4.63806e-07
2.46456e-05
-8.29447e-07
2.48441e-05
-8.04671e-07
-2.55725e-06
2.51567e-05
3.21954e-05
-6.02338e-06
3.27041e-05
4.47797e-06
3.28235e-05
2.3405e-06
3.24269e-05
2.881e-06
3.19438e-05
2.44997e-06
3.15151e-05
1.90179e-06
3.11543e-05
1.48913e-06
3.08582e-05
1.17158e-06
3.06181e-05
9.26188e-07
3.04227e-05
7.41105e-07
3.02627e-05
6.00013e-07
3.01308e-05
4.90086e-07
3.00214e-05
4.03874e-07
2.99301e-05
3.35038e-07
2.98535e-05
2.80364e-07
2.97888e-05
2.35665e-07
2.97341e-05
1.9894e-07
2.96875e-05
1.69169e-07
2.96476e-05
1.44132e-07
2.96134e-05
1.23858e-07
2.95838e-05
1.06582e-07
2.95583e-05
9.20292e-08
2.95361e-05
7.99013e-08
2.95167e-05
6.96598e-08
2.94997e-05
6.09085e-08
2.94849e-05
5.34097e-08
2.94718e-05
4.70784e-08
2.94602e-05
4.16369e-08
2.94498e-05
3.69747e-08
2.94407e-05
3.29021e-08
2.94325e-05
2.9402e-08
2.94251e-05
2.63144e-08
2.94185e-05
2.36491e-08
2.94126e-05
2.12369e-08
2.94073e-05
1.91384e-08
2.94025e-05
1.71641e-08
2.93983e-05
1.53387e-08
2.93945e-05
1.36375e-08
2.93912e-05
1.1947e-08
2.93883e-05
1.02464e-08
2.9386e-05
8.48451e-09
2.93841e-05
6.58992e-09
2.93829e-05
4.51869e-09
2.93823e-05
2.20632e-09
2.93824e-05
-4.26601e-10
2.93834e-05
-3.4975e-09
2.93854e-05
-6.96394e-09
2.93885e-05
-1.1021e-08
2.93929e-05
-1.56585e-08
2.93988e-05
-2.10358e-08
2.94064e-05
-2.72893e-08
2.9416e-05
-3.43072e-08
2.94278e-05
-4.24599e-08
2.94423e-05
-5.16405e-08
2.94596e-05
-6.21368e-08
2.94802e-05
-7.39331e-08
2.95046e-05
-8.72244e-08
2.95331e-05
-1.02217e-07
2.95663e-05
-1.18897e-07
2.96047e-05
-1.37833e-07
2.9649e-05
-1.58822e-07
2.96999e-05
-1.82626e-07
2.97581e-05
-2.09063e-07
2.98013e-05
-1.54816e-07
2.98473e-05
-1.64458e-07
2.98961e-05
-1.74357e-07
2.99477e-05
-1.84453e-07
3.00023e-05
-1.95399e-07
3.00597e-05
-2.05696e-07
3.01203e-05
-2.17489e-07
3.01837e-05
-2.28339e-07
3.02505e-05
-2.41704e-07
3.03203e-05
-2.53204e-07
3.03941e-05
-2.69182e-07
3.04707e-05
-2.81037e-07
3.05526e-05
-3.01655e-07
3.06371e-05
-3.12821e-07
3.0729e-05
-3.4283e-07
3.08225e-05
-3.51256e-07
3.09279e-05
-4.01032e-07
3.10321e-05
-4.01414e-07
3.11576e-05
-4.94786e-07
3.12765e-05
-4.73093e-07
3.14366e-05
-6.68205e-07
3.15826e-05
-6.14325e-07
3.18134e-05
-1.06718e-06
3.20393e-05
-1.03723e-06
-2.88147e-06
3.23607e-05
3.99376e-05
-1.14398e-05
4.09892e-05
3.4263e-06
4.14848e-05
1.84494e-06
4.1245e-05
3.12082e-06
4.07912e-05
2.90378e-06
4.03357e-05
2.3572e-06
3.99269e-05
1.89793e-06
3.95786e-05
1.51991e-06
3.92894e-05
1.21535e-06
3.90505e-05
9.80081e-07
3.88525e-05
7.97946e-07
3.86882e-05
6.54466e-07
3.8551e-05
5.41036e-07
3.84361e-05
4.49947e-07
3.83392e-05
3.77239e-07
3.82573e-05
3.17639e-07
3.81877e-05
2.68518e-07
3.81283e-05
2.28586e-07
3.80775e-05
1.94968e-07
3.80337e-05
1.67653e-07
3.79959e-05
1.4439e-07
3.79631e-05
1.24765e-07
3.79347e-05
1.08375e-07
3.79098e-05
9.4523e-08
3.7888e-05
8.26853e-08
3.78689e-05
7.25352e-08
3.7852e-05
6.39486e-08
3.78371e-05
5.65676e-08
3.78239e-05
5.02385e-08
3.7812e-05
4.47112e-08
3.78015e-05
3.99546e-08
3.7792e-05
3.57602e-08
3.77836e-05
3.21326e-08
3.77759e-05
2.88551e-08
3.77691e-05
2.5994e-08
3.77629e-05
2.33137e-08
3.77574e-05
2.08311e-08
3.77525e-05
1.85152e-08
3.77483e-05
1.62199e-08
3.77446e-05
1.39122e-08
3.77415e-05
1.15218e-08
3.77392e-05
8.95625e-09
3.77375e-05
6.15172e-09
3.77367e-05
3.02249e-09
3.77368e-05
-5.35834e-10
3.7738e-05
-4.67589e-09
3.77404e-05
-9.37308e-09
3.77442e-05
-1.48364e-08
3.77496e-05
-2.10852e-08
3.77569e-05
-2.8345e-08
3.77664e-05
-3.67661e-08
3.77784e-05
-4.62441e-08
3.77931e-05
-5.72262e-08
3.78111e-05
-6.96046e-08
3.78328e-05
-8.37319e-08
3.78585e-05
-9.96175e-08
3.78889e-05
-1.17502e-07
3.79244e-05
-1.37676e-07
3.79658e-05
-1.6011e-07
3.80138e-05
-1.85556e-07
3.8069e-05
-2.13736e-07
3.81323e-05
-2.45685e-07
3.82048e-05
-2.81078e-07
3.82584e-05
-2.08e-07
3.83157e-05
-2.20981e-07
3.83762e-05
-2.34195e-07
3.84403e-05
-2.47609e-07
3.85079e-05
-2.62095e-07
3.8579e-05
-2.75781e-07
3.86539e-05
-2.91338e-07
3.87323e-05
-3.05656e-07
3.88148e-05
-3.2318e-07
3.89008e-05
-3.3824e-07
3.89915e-05
-3.5901e-07
3.90857e-05
-3.74434e-07
3.91859e-05
-4.01023e-07
3.92894e-05
-4.15523e-07
3.94013e-05
-4.53951e-07
3.95154e-05
-4.64815e-07
3.96427e-05
-5.28094e-07
3.97695e-05
-5.28635e-07
3.99192e-05
-6.45632e-07
4.00637e-05
-6.20004e-07
4.02501e-05
-8.58345e-07
4.04272e-05
-7.96558e-07
4.0687e-05
-1.33461e-06
4.09453e-05
-1.30289e-06
-3.20475e-06
4.12655e-05
4.93631e-05
-1.84474e-05
5.10511e-05
1.73837e-06
5.2022e-05
8.74039e-07
5.20312e-05
3.11162e-06
5.16743e-05
3.26059e-06
5.12325e-05
2.79906e-06
5.07956e-05
2.33486e-06
5.04025e-05
1.91296e-06
5.00652e-05
1.55261e-06
4.97804e-05
1.26494e-06
4.95408e-05
1.0375e-06
4.93397e-05
8.5563e-07
4.91704e-05
7.10289e-07
4.90277e-05
5.92659e-07
4.89068e-05
4.98154e-07
4.88041e-05
4.20384e-07
4.87166e-05
3.56031e-07
4.86416e-05
3.03528e-07
4.85774e-05
2.59251e-07
4.85219e-05
2.23135e-07
4.84739e-05
1.92377e-07
4.84323e-05
1.66386e-07
4.83961e-05
1.44626e-07
4.83644e-05
1.26211e-07
4.83366e-05
1.10468e-07
4.83122e-05
9.696e-08
4.82906e-05
8.55085e-08
4.82715e-05
7.56602e-08
4.82546e-05
6.72072e-08
4.82394e-05
5.98261e-08
4.82259e-05
5.34648e-08
4.82138e-05
4.78574e-08
4.8203e-05
4.29983e-08
4.81932e-05
3.86155e-08
4.81844e-05
3.47767e-08
4.81765e-05
3.11949e-08
4.81695e-05
2.78741e-08
4.81632e-05
2.47733e-08
4.81577e-05
2.17092e-08
4.8153e-05
1.86326e-08
4.81491e-05
1.54479e-08
4.8146e-05
1.20378e-08
4.81438e-05
8.31313e-09
4.81426e-05
4.16125e-09
4.81427e-05
-5.53153e-10
4.8144e-05
-6.02017e-09
4.81469e-05
-1.2247e-08
4.81515e-05
-1.94597e-08
4.81581e-05
-2.77106e-08
4.81671e-05
-3.72967e-08
4.81787e-05
-4.8394e-08
4.81934e-05
-6.09212e-08
4.82116e-05
-7.53954e-08
4.82337e-05
-9.17281e-08
4.82604e-05
-1.10334e-07
4.82921e-05
-1.31265e-07
4.83295e-05
-1.54809e-07
4.83733e-05
-1.81365e-07
4.84243e-05
-2.10881e-07
4.84834e-05
-2.44325e-07
4.85513e-05
-2.81338e-07
4.86293e-05
-3.23264e-07
4.87184e-05
-3.69644e-07
4.87844e-05
-2.7334e-07
4.88546e-05
-2.90392e-07
4.8929e-05
-3.07643e-07
4.90075e-05
-3.25078e-07
4.90904e-05
-3.43821e-07
4.91774e-05
-3.61604e-07
4.9269e-05
-3.81648e-07
4.93648e-05
-4.00149e-07
4.94654e-05
-4.22578e-07
4.95702e-05
-4.41934e-07
4.96805e-05
-4.68263e-07
4.97951e-05
-4.88012e-07
4.99165e-05
-5.2141e-07
5.0042e-05
-5.40049e-07
5.01768e-05
-5.87868e-07
5.03147e-05
-6.02131e-07
5.04669e-05
-6.80009e-07
5.06199e-05
-6.82175e-07
5.07966e-05
-8.23643e-07
5.09711e-05
-7.97234e-07
5.11865e-05
-1.07801e-06
5.13991e-05
-1.01488e-06
5.1689e-05
-1.63277e-06
5.19863e-05
-1.60811e-06
-3.51695e-06
5.22952e-05
6.08679e-05
-2.7339e-05
6.33037e-05
-6.97452e-07
6.48536e-05
-6.75835e-07
6.52115e-05
2.75367e-06
6.50369e-05
3.43524e-06
6.46691e-05
3.16683e-06
6.42409e-05
2.76304e-06
6.38229e-05
2.331e-06
6.34466e-05
1.92894e-06
6.31186e-05
1.59288e-06
6.28368e-05
1.31932e-06
6.25964e-05
1.09602e-06
6.23918e-05
9.14926e-07
6.22177e-05
7.66775e-07
6.20691e-05
6.46714e-07
6.19422e-05
5.4735e-07
6.18335e-05
4.647e-07
6.17401e-05
3.96947e-07
6.16597e-05
3.39663e-07
6.15901e-05
2.92723e-07
6.15298e-05
2.52714e-07
6.14774e-05
2.18836e-07
6.14316e-05
1.90394e-07
6.13916e-05
1.6628e-07
6.13564e-05
1.45649e-07
6.13254e-05
1.2793e-07
6.12981e-05
1.12874e-07
6.12738e-05
9.99157e-08
6.12522e-05
8.87795e-08
6.1233e-05
7.90548e-08
6.12158e-05
7.06599e-08
6.12004e-05
6.32622e-08
6.11866e-05
5.68384e-08
6.11741e-05
5.10538e-08
6.11629e-05
4.59703e-08
6.11529e-05
4.12445e-08
6.11439e-05
3.68619e-08
6.11359e-05
3.27657e-08
6.11288e-05
2.87306e-08
6.11228e-05
2.46866e-08
6.11177e-05
2.05051e-08
6.11137e-05
1.604e-08
6.11108e-05
1.117e-08
6.11092e-05
5.74854e-09
6.1109e-05
-3.98001e-10
6.11105e-05
-7.49849e-09
6.11139e-05
-1.56061e-08
6.11194e-05
-2.49733e-08
6.11273e-05
-3.5689e-08
6.11382e-05
-4.81256e-08
6.11523e-05
-6.2495e-08
6.11701e-05
-7.8762e-08
6.11923e-05
-9.75022e-08
6.12193e-05
-1.18674e-07
6.12517e-05
-1.42747e-07
6.12904e-05
-1.69847e-07
6.1336e-05
-2.00289e-07
6.13895e-05
-2.34627e-07
6.14517e-05
-2.72769e-07
6.15236e-05
-3.15941e-07
6.16064e-05
-3.63688e-07
6.17014e-05
-4.17724e-07
6.18098e-05
-4.77437e-07
6.18901e-05
-3.52806e-07
6.19755e-05
-3.74769e-07
6.20658e-05
-3.96888e-07
6.21612e-05
-4.19153e-07
6.22617e-05
-4.42979e-07
6.23673e-05
-4.65662e-07
6.24782e-05
-4.91019e-07
6.25941e-05
-5.14523e-07
6.27156e-05
-5.42695e-07
6.28422e-05
-5.67188e-07
6.29752e-05
-5.99936e-07
6.31132e-05
-6.24888e-07
6.32589e-05
-6.65987e-07
6.34097e-05
-6.89755e-07
6.35708e-05
-7.47886e-07
6.37363e-05
-7.66899e-07
6.39167e-05
-8.60146e-07
6.41001e-05
-8.6622e-07
6.4307e-05
-1.03212e-06
6.45162e-05
-1.00951e-06
6.47638e-05
-1.33031e-06
6.50169e-05
-1.27424e-06
6.53361e-05
-1.96061e-06
6.5679e-05
-1.95933e-06
-3.81226e-06
6.59709e-05
7.49374e-05
-3.84537e-05
7.82562e-05
-4.01625e-06
8.04968e-05
-2.91645e-06
8.13079e-05
1.94263e-06
8.14134e-05
3.3297e-06
8.12001e-05
3.38011e-06
8.0838e-05
3.12517e-06
8.04317e-05
2.73727e-06
8.0038e-05
2.32262e-06
7.96788e-05
1.95214e-06
7.93602e-05
1.63793e-06
7.90822e-05
1.37398e-06
7.88417e-05
1.15551e-06
7.86343e-05
9.74123e-07
7.84557e-05
8.25394e-07
7.83017e-05
7.01297e-07
7.81691e-05
5.97349e-07
7.80544e-05
5.11601e-07
7.79553e-05
4.38825e-07
7.78692e-05
3.78862e-07
7.77943e-05
3.27651e-07
7.77289e-05
2.84179e-07
7.76718e-05
2.47562e-07
7.76216e-05
2.16436e-07
7.75775e-05
1.89771e-07
7.75386e-05
1.66843e-07
7.75042e-05
1.47309e-07
7.74736e-05
1.30475e-07
7.74464e-05
1.15986e-07
7.74222e-05
1.0333e-07
7.74004e-05
9.23837e-08
7.73809e-05
8.27392e-08
7.73634e-05
7.43458e-08
7.73477e-05
6.67987e-08
7.73335e-05
6.01441e-08
7.73208e-05
5.39776e-08
7.73093e-05
4.82608e-08
7.72992e-05
4.29119e-08
7.72902e-05
3.76597e-08
7.72825e-05
3.24073e-08
7.7276e-05
2.69842e-08
7.72708e-05
2.12106e-08
7.72671e-05
1.49259e-08
7.72649e-05
7.94035e-09
7.72644e-05
3.38463e-11
7.7266e-05
-9.06264e-09
7.72698e-05
-1.94623e-08
7.72763e-05
-3.14584e-08
7.72858e-05
-4.51815e-08
7.72987e-05
-6.10842e-08
7.73157e-05
-7.94202e-08
7.73372e-05
-1.00231e-07
7.73638e-05
-1.24138e-07
7.73964e-05
-1.51179e-07
7.74356e-05
-1.81864e-07
7.74823e-05
-2.1644e-07
7.75374e-05
-2.55213e-07
7.7602e-05
-2.9896e-07
7.76771e-05
-3.47503e-07
7.7764e-05
-4.02412e-07
7.78639e-05
-4.63083e-07
7.79785e-05
-5.31699e-07
7.81094e-05
-6.07444e-07
7.82061e-05
-4.48606e-07
7.8309e-05
-4.76435e-07
7.84178e-05
-5.04389e-07
7.85327e-05
-5.32408e-07
7.86536e-05
-5.62268e-07
7.87805e-05
-5.90779e-07
7.89137e-05
-6.22385e-07
7.90528e-05
-6.51836e-07
7.91985e-05
-6.86688e-07
7.93502e-05
-7.17293e-07
7.95091e-05
-7.57402e-07
7.96741e-05
-7.8861e-07
7.98478e-05
-8.38336e-07
8.00278e-05
-8.6849e-07
8.02189e-05
-9.3776e-07
8.04161e-05
-9.63325e-07
8.06285e-05
-1.07234e-06
8.08471e-05
-1.08546e-06
8.1088e-05
-1.27483e-06
8.1337e-05
-1.26196e-06
8.16199e-05
-1.61832e-06
8.19194e-05
-1.58044e-06
8.22653e-05
-2.31532e-06
8.26574e-05
-2.35975e-06
-4.09118e-06
8.29327e-05
9.21717e-05
-5.21726e-05
9.65365e-05
-8.3811e-06
9.95925e-05
-5.97244e-06
0.000100965
5.69849e-07
0.000101457
2.83795e-06
0.000101495
3.34225e-06
0.000101277
3.34305e-06
0.00010094
3.07443e-06
0.000100568
2.69445e-06
0.000100203
2.31728e-06
9.98632e-05
1.97758e-06
9.95569e-05
1.68032e-06
9.92852e-05
1.42719e-06
9.90467e-05