/*--------------------------------*- C++ -*----------------------------------*\
| =========                 |                                                 |
| \\      /  F ield         | OpenFOAM: The Open Source CFD Toolbox           |
|  \\    /   O peration     | Version:  2306                                  |
|   \\  /    A nd           | Website:  www.openfoam.com                      |
|    \\/     M anipulation  |                                                 |
\*---------------------------------------------------------------------------*/
FoamFile
{
    version     2.0;
    format      ascii;
    arch        "LSB;label=32;scalar=64";
    class       volSymmTensorField;
    location    "1600";
    object      turbulenceProperties:devReff;
}
// * * * * * * * * * * * * * * * * * * * * * * * * * * * * * * * * * * * * * //

dimensions      [0 2 -2 0 0 0 0];

internalField   nonuniform List<symmTensor> 
20540
(
(8.1879 -18.5979 -0 -8.0183 -0 -0.1696)
(23.2708 -31.6362 -0 -22.0626 -0 -1.20818)
(5.59801 -30.1205 -0 -5.66526 -0 0.0672516)
(9.86865 -53.6567 -0 -10.5796 -0 0.710943)
(4.81262 -33.213 -0 -4.87784 -0 0.0652131)
(4.19689 -59.4134 -0 -4.47621 -0 0.279314)
(4.34877 -34.6805 -0 -4.3307 -0 -0.0180703)
(1.43773 -62.4155 -0 -1.32901 -0 -0.108717)
(4.10051 -35.5353 -0 -4.0886 -0 -0.0119119)
(0.211975 -64.4827 -0 -0.145478 -0 -0.0664973)
(3.92099 -36.0664 -0 -3.91949 -0 -0.00150189)
(-0.495605 -66.1005 -0 0.507691 -0 -0.0120858)
(3.77661 -36.3522 -0 -3.77732 -0 0.000714853)
(-0.977659 -67.3767 -0 0.977165 -0 0.000493934)
(3.66076 -36.4212 -0 -3.66105 -0 0.000292117)
(-1.3116 -68.3647 -0 1.31187 -0 -0.000268375)
(3.5673 -36.2874 -0 -3.56731 -0 8.21304e-06)
(-1.53509 -69.1109 -0 1.53608 -0 -0.00099207)
(3.48902 -35.9564 -0 -3.48901 -0 -7.17772e-06)
(-1.67314 -69.6521 -0 1.67393 -0 -0.000788203)
(3.41906 -35.4265 -0 -3.41908 -0 1.78145e-05)
(-1.73972 -70.0141 -0 1.74023 -0 -0.000506575)
(3.35096 -34.6905 -0 -3.35098 -0 2.06091e-05)
(-1.74103 -70.212 -0 1.74137 -0 -0.000339202)
(3.27812 -33.7368 -0 -3.27813 -0 6.77952e-06)
(-1.67887 -70.2502 -0 1.67908 -0 -0.000204711)
(3.19352 -32.5505 -0 -3.1935 -0 -2.16944e-05)
(-1.55271 -70.1223 -0 1.55275 -0 -3.67734e-05)
(3.08951 -31.1147 -0 -3.08944 -0 -7.5496e-05)
(-1.36098 -69.8093 -0 1.36078 -0 0.000200132)
(2.9578 -29.4127 -0 -2.95762 -0 -0.000181918)
(-1.10222 -69.2779 -0 1.10167 -0 0.000551146)
(2.78977 -27.4301 -0 -2.78938 -0 -0.00039191)
(-0.776261 -68.4764 -0 0.775157 -0 0.00110354)
(2.57732 -25.1577 -0 -2.57658 -0 -0.000739317)
(-0.385648 -67.329 -0 0.383642 -0 0.00200601)
(2.31475 -22.5948 -0 -2.31365 -0 -0.00110775)
(0.062149 -65.7276 -0 -0.0655645 -0 0.00341547)
(2.00214 -19.7553 -0 -2.00081 -0 -0.00133215)
(0.551085 -63.5211 -0 -0.556543 -0 0.00545739)
(1.64962 -16.6871 -0 -1.64795 -0 -0.00167473)
(1.05074 -60.4869 -0 -1.05932 -0 0.00858132)
(1.2784 -13.4855 -0 -1.27706 -0 -0.00134549)
(1.50933 -56.3193 -0 -1.52283 -0 0.0134925)
(0.911868 -10.1939 -0 -0.91357 -0 0.00170176)
(1.85181 -50.7254 -0 -1.87051 -0 0.0187038)
(0.58379 -6.92984 -0 -0.586295 -0 0.00250483)
(1.97711 -43.3685 -0 -1.99663 -0 0.0195191)
(0.312911 -3.96174 -0 -0.302731 -0 -0.0101803)
(1.78098 -34.1342 -0 -1.80372 -0 0.0227491)
(0.0205863 -1.50083 -0 0.00233857 -0 -0.0229249)
(1.25256 -23.4646 -0 -1.30663 -0 0.0540727)
(-0.441678 1.19377 -0 0.449015 -0 -0.00733703)
(0.579924 -12.5637 -0 -0.636356 -0 0.0564315)
(-0.68083 1.93801 -0 0.689021 -0 -0.00819067)
(0.0369838 -4.80015 -0 -0.0620006 -0 0.0250168)
(-0.893342 1.88839 -0 0.923931 -0 -0.0305893)
(-0.524546 -1.37929 -0 0.466443 -0 0.0581034)
(-1.14976 1.33635 -0 1.18126 -0 -0.0315031)
(-1.08985 0.490212 -0 0.974223 -0 0.115623)
(-1.38085 0.68642 -0 1.40796 -0 -0.0271083)
(-1.23194 0.611196 -0 1.12579 -0 0.106155)
(-1.47655 0.203329 -0 1.51046 -0 -0.0339158)
(-1.33908 0.26042 -0 1.2349 -0 0.104187)
(-1.47726 -0.193287 -0 1.51175 -0 -0.0344848)
(-1.34138 -0.220313 -0 1.23679 -0 0.104587)
(-1.38689 -0.658965 -0 1.41467 -0 -0.027771)
(-1.23587 -0.575478 -0 1.13205 -0 0.103822)
(-1.17131 -1.26656 -0 1.20179 -0 -0.0304741)
(-1.09394 -0.494862 -0 0.981437 -0 0.112499)
(-0.925367 -1.80043 -0 0.956067 -0 -0.0306999)
(-0.584637 1.15121 -0 0.523632 -0 0.0610058)
(-0.711417 -1.88795 -0 0.720873 -0 -0.00945638)
(-0.0191347 4.19971 -0 -0.00300391 -0 0.0221386)
(-0.47872 -1.25621 -0 0.48443 -0 -0.00570932)
(0.460621 10.9633 -0 -0.509177 -0 0.0485556)
(-0.041254 1.21319 -0 0.0636761 -0 -0.0224221)
(1.08363 21.1552 -0 -1.13916 -0 0.0555264)
(0.265684 3.5965 -0 -0.254024 -0 -0.0116593)
(1.61914 31.4461 -0 -1.64326 -0 0.0241198)
(0.521179 6.40726 -0 -0.522609 -0 0.0014308)
(1.86551 40.5249 -0 -1.88409 -0 0.0185825)
(0.831832 9.55635 -0 -0.833891 -0 0.00205869)
(1.80318 47.8981 -0 -1.82179 -0 0.0186049)
(1.1866 12.7735 -0 -1.18558 -0 -0.00101779)
(1.51856 53.5894 -0 -1.53257 -0 0.0140121)
(1.55473 15.9388 -0 -1.55308 -0 -0.00164614)
(1.10604 57.8806 -0 -1.11518 -0 0.00913693)
(1.91174 19.0074 -0 -1.91031 -0 -0.00143032)
(0.638924 61.0392 -0 -0.644825 -0 0.00590116)
(2.23398 21.879 -0 -2.23277 -0 -0.001218)
(0.169484 63.3599 -0 -0.173252 -0 0.00376861)
(2.50874 24.4989 -0 -2.50792 -0 -0.000822584)
(-0.270471 65.0636 -0 0.268182 -0 0.0022884)
(2.73408 26.8482 -0 -2.73363 -0 -0.000448322)
(-0.663327 66.3014 -0 0.662005 -0 0.00132254)
(2.91431 28.9223 -0 -2.91408 -0 -0.000223715)
(-1.00013 67.1832 -0 0.999411 -0 0.000723362)
(3.05652 30.7258 -0 -3.05641 -0 -0.000107851)
(-1.27705 67.7892 -0 1.27671 -0 0.000344644)
(3.16867 32.2697 -0 -3.16863 -0 -4.59221e-05)
(-1.4932 68.1748 -0 1.49311 -0 9.00211e-05)
(3.25858 33.5683 -0 -3.25857 -0 -1.09497e-05)
(-1.64937 68.3777 -0 1.64946 -0 -8.98556e-05)
(3.33358 34.637 -0 -3.33359 -0 8.61015e-06)
(-1.74697 68.4209 -0 1.74719 -0 -0.000222429)
(3.40042 35.4905 -0 -3.40043 -0 1.77863e-05)
(-1.78716 68.3165 -0 1.78749 -0 -0.000334917)
(3.46532 36.1412 -0 -3.46533 -0 1.25183e-05)
(-1.76987 68.0661 -0 1.77036 -0 -0.000487878)
(3.53421 36.5983 -0 -3.5342 -0 -1.44648e-05)
(-1.69263 67.6618 -0 1.69338 -0 -0.000754636)
(3.61307 36.8665 -0 -3.61307 -0 -3.80392e-06)
(-1.54861 67.0869 -0 1.54956 -0 -0.000949368)
(3.70838 36.9449 -0 -3.70865 -0 0.000268679)
(-1.32341 66.3146 -0 1.3237 -0 -0.000294923)
(3.82717 36.8254 -0 -3.82785 -0 0.000684878)
(-0.991708 65.3074 -0 0.991472 -0 0.000236491)
(3.97566 36.4909 -0 -3.97419 -0 -0.0014765)
(-0.51513 64.0176 -0 0.527277 -0 -0.012146)
(4.16086 35.9084 -0 -4.14912 -0 -0.011748)
(0.185818 62.3876 -0 -0.122149 -0 -0.0636697)
(4.41668 34.9943 -0 -4.39871 -0 -0.017978)
(1.4022 60.304 -0 -1.30131 -0 -0.100888)
(4.88859 33.458 -0 -4.95316 -0 0.0645766)
(4.11656 57.3022 -0 -4.38565 -0 0.269097)
(5.67887 30.2882 -0 -5.74599 -0 0.0671157)
(9.64961 51.6587 -0 -10.3187 -0 0.66905)
(8.25924 18.6033 -0 -8.09206 -0 -0.167173)
(22.4161 30.2699 -0 -21.2811 -0 -1.13498)
(0.00848459 -16.9643 -0 -0.00847311 -0 -1.14806e-05)
(0.00281525 -9.64808 -0 -0.00283476 -0 1.95159e-05)
(0.000693433 -8.33169 -0 -0.000703387 -0 9.95367e-06)
(0.000413393 -7.5673 -0 -0.000413658 -0 2.64615e-07)
(0.000264238 -7.09579 -0 -0.000262608 -0 -1.63004e-06)
(0.00018024 -6.79183 -0 -0.000178487 -0 -1.75327e-06)
(0.000131509 -6.58102 -0 -0.000129849 -0 -1.66029e-06)
(0.0001002 -6.42731 -0 -9.87267e-05 -0 -1.47328e-06)
(7.86166e-05 -6.312 -0 -7.73588e-05 -0 -1.25788e-06)
(6.32341e-05 -6.22321 -0 -6.21614e-05 -0 -1.07272e-06)
(5.18785e-05 -6.15341 -0 -5.09577e-05 -0 -9.20829e-07)
(4.31935e-05 -6.09758 -0 -4.24017e-05 -0 -7.91856e-07)
(3.64303e-05 -6.05246 -0 -3.57456e-05 -0 -6.84672e-07)
(3.1009e-05 -6.01544 -0 -3.04147e-05 -0 -5.94321e-07)
(2.67006e-05 -5.98501 -0 -2.61813e-05 -0 -5.19353e-07)
(2.30971e-05 -5.95944 -0 -2.26413e-05 -0 -4.55797e-07)
(2.01036e-05 -5.9383 -0 -1.97025e-05 -0 -4.01025e-07)
(1.76522e-05 -5.92025 -0 -1.72974e-05 -0 -3.54774e-07)
(1.55257e-05 -5.90511 -0 -1.5211e-05 -0 -3.14688e-07)
(1.3814e-05 -5.89212 -0 -1.35334e-05 -0 -2.80616e-07)
(1.22792e-05 -5.88099 -0 -1.20279e-05 -0 -2.51366e-07)
(1.09677e-05 -5.87145 -0 -1.07422e-05 -0 -2.25525e-07)
(9.86801e-06 -5.8632 -0 -9.66518e-06 -0 -2.02824e-07)
(8.91289e-06 -5.85602 -0 -8.72919e-06 -0 -1.83698e-07)
(8.07063e-06 -5.84977 -0 -7.90369e-06 -0 -1.66944e-07)
(7.33314e-06 -5.8443 -0 -7.18114e-06 -0 -1.52e-07)
(6.70885e-06 -5.83951 -0 -6.56986e-06 -0 -1.38993e-07)
(6.15612e-06 -5.83526 -0 -6.02842e-06 -0 -1.27699e-07)
(5.67538e-06 -5.83151 -0 -5.55767e-06 -0 -1.17713e-07)
(5.24102e-06 -5.82816 -0 -5.13208e-06 -0 -1.08944e-07)
(4.86653e-06 -5.82519 -0 -4.76535e-06 -0 -1.01183e-07)
(4.52547e-06 -5.8225 -0 -4.43127e-06 -0 -9.4202e-08)
(4.23407e-06 -5.82012 -0 -4.14618e-06 -0 -8.78839e-08)
(3.95554e-06 -5.81794 -0 -3.87345e-06 -0 -8.20861e-08)
(3.72255e-06 -5.81601 -0 -3.64611e-06 -0 -7.64427e-08)
(3.47682e-06 -5.81421 -0 -3.40566e-06 -0 -7.11647e-08)
(3.25363e-06 -5.81266 -0 -3.18822e-06 -0 -6.54127e-08)
(3.03961e-06 -5.81119 -0 -2.98028e-06 -0 -5.93349e-08)
(2.8068e-06 -5.80994 -0 -2.75417e-06 -0 -5.26296e-08)
(2.55994e-06 -5.80878 -0 -2.5154e-06 -0 -4.45396e-08)
(2.28827e-06 -5.80782 -0 -2.25349e-06 -0 -3.47779e-08)
(1.96801e-06 -5.80696 -0 -1.94514e-06 -0 -2.28742e-08)
(1.59707e-06 -5.80631 -0 -1.58933e-06 -0 -7.7359e-09)
(1.14959e-06 -5.80579 -0 -1.16062e-06 -0 1.10303e-08)
(5.96267e-07 -5.80552 -0 -6.30881e-07 -0 3.46146e-08)
(-7.89941e-08 -5.80541 -0 1.34284e-08 -0 6.55657e-08)
(-8.8481e-07 -5.80561 -0 7.82443e-07 -0 1.02367e-07)
(-1.98572e-06 -5.80604 -0 1.83921e-06 -0 1.46511e-07)
(-3.22859e-06 -5.8069 -0 3.0242e-06 -0 2.0439e-07)
(-4.64956e-06 -5.80804 -0 4.37086e-06 -0 2.78698e-07)
(-6.51762e-06 -5.80967 -0 6.1526e-06 -0 3.65023e-07)
(-8.70834e-06 -5.81177 -0 8.23959e-06 -0 4.68745e-07)
(-1.13841e-05 -5.81445 -0 1.07886e-05 -0 5.95554e-07)
(-1.45146e-05 -5.81779 -0 1.37656e-05 -0 7.49064e-07)
(-1.83406e-05 -5.82185 -0 1.74037e-05 -0 9.36889e-07)
(-2.27661e-05 -5.82678 -0 2.1604e-05 -0 1.16218e-06)
(-2.80963e-05 -5.83261 -0 2.66494e-05 -0 1.44686e-06)
(-3.42713e-05 -5.83958 -0 3.2493e-05 -0 1.77829e-06)
(-4.15874e-05 -5.84765 -0 3.9392e-05 -0 2.1954e-06)
(-5.01409e-05 -5.85718 -0 4.74678e-05 -0 2.67318e-06)
(-6.02281e-05 -5.8681 -0 5.69848e-05 -0 3.24332e-06)
(-7.2067e-05 -5.88084 -0 6.81513e-05 -0 3.91566e-06)
(-8.62718e-05 -5.8954 -0 8.15867e-05 -0 4.6851e-06)
(-0.00010027 -5.90954 -0 9.45246e-05 -0 5.74501e-06)
(-0.000112327 -5.92173 -0 0.000104756 -0 7.5709e-06)
(-0.000125551 -5.93479 -0 0.000117195 -0 8.35545e-06)
(-0.000140204 -5.9485 -0 0.000130339 -0 9.86542e-06)
(-0.000156409 -5.96329 -0 0.00014532 -0 1.10883e-05)
(-0.000173577 -5.97874 -0 0.000160821 -0 1.27564e-05)
(-0.000193226 -5.99525 -0 0.000179134 -0 1.40913e-05)
(-0.000214618 -6.01253 -0 0.000198986 -0 1.56321e-05)
(-0.000238936 -6.0309 -0 0.000222205 -0 1.67307e-05)
(-0.000266184 -6.05016 -0 0.000248434 -0 1.77504e-05)
(-0.000297712 -6.0706 -0 0.000278326 -0 1.9386e-05)
(-0.000333527 -6.0923 -0 0.000313873 -0 1.96535e-05)
(-0.000375746 -6.11513 -0 0.000351759 -0 2.39876e-05)
(-0.000421527 -6.14014 -0 0.000399421 -0 2.21059e-05)
(-0.00048074 -6.16546 -0 0.000448719 -0 3.20217e-05)
(-0.000540729 -6.19522 -0 0.000519127 -0 2.16026e-05)
(-0.000634834 -6.22271 -0 0.000592032 -0 4.28022e-05)
(-0.000710375 -6.26033 -0 0.000703576 -0 6.79872e-06)
(-0.000913091 -6.28822 -0 0.0008562 -0 5.68915e-05)
(-0.000941241 -6.34343 -0 0.000982311 -0 -4.10692e-05)
(-0.00144906 -6.36241 -0 0.00135944 -0 8.96197e-05)
(-0.00177219 -6.45949 -0 0.00192995 -0 -0.00015776)
(-0.00300235 -6.48041 -0 0.00280092 -0 0.000201436)
(0.000633879 -6.66012 -0 0.000441692 -0 -0.00107557)
(-0.116248 -6.48747 8.84572e-21 0.117204 -0 -0.000956248)
(0.00810206 -10.6169 -0 -0.00770343 -0 -0.000398628)
(0.00367751 -5.62402 -0 -0.00363252 -0 -4.49894e-05)
(0.00106474 -4.82136 -0 -0.00106177 -0 -2.96444e-06)
(0.000664029 -4.37779 -0 -0.000664311 -0 2.82458e-07)
(0.000433621 -4.10867 -0 -0.000434501 -0 8.80006e-07)
(0.000298974 -3.93645 -0 -0.000299891 -0 9.16766e-07)
(0.000220017 -3.81809 -0 -0.000220858 -0 8.40228e-07)
(0.000168567 -3.73224 -0 -0.000169275 -0 7.08101e-07)
(0.000132695 -3.66801 -0 -0.000133285 -0 5.9026e-07)
(0.000106999 -3.61865 -0 -0.000107498 -0 4.99061e-07)
(8.79562e-05 -3.57993 -0 -8.83793e-05 -0 4.23074e-07)
(7.33364e-05 -3.549 -0 -7.36971e-05 -0 3.60608e-07)
(6.1923e-05 -3.52402 -0 -6.22328e-05 -0 3.09752e-07)
(5.27579e-05 -3.50354 -0 -5.30258e-05 -0 2.67904e-07)
(4.5458e-05 -3.48673 -0 -4.5691e-05 -0 2.33038e-07)
(3.93542e-05 -3.4726 -0 -3.95586e-05 -0 2.04389e-07)
(3.4273e-05 -3.46092 -0 -3.44524e-05 -0 1.79408e-07)
(3.01055e-05 -3.45096 -0 -3.02642e-05 -0 1.58672e-07)
(2.64928e-05 -3.44261 -0 -2.66336e-05 -0 1.40778e-07)
(2.35725e-05 -3.43544 -0 -2.3698e-05 -0 1.25441e-07)
(2.09653e-05 -3.4293 -0 -2.10778e-05 -0 1.12594e-07)
(1.87312e-05 -3.42404 -0 -1.88323e-05 -0 1.01083e-07)
(1.68525e-05 -3.41948 -0 -1.69431e-05 -0 9.06763e-08)
(1.52229e-05 -3.41553 -0 -1.53051e-05 -0 8.22321e-08)
(1.37872e-05 -3.41208 -0 -1.3862e-05 -0 7.47829e-08)
(1.25284e-05 -3.40907 -0 -1.25964e-05 -0 6.79685e-08)
(1.14593e-05 -3.40642 -0 -1.15213e-05 -0 6.19736e-08)
(1.05143e-05 -3.40408 -0 -1.0571e-05 -0 5.67227e-08)
(9.69117e-06 -3.40201 -0 -9.7431e-06 -0 5.19324e-08)
(8.9483e-06 -3.40016 -0 -8.99596e-06 -0 4.76583e-08)
(8.30575e-06 -3.39852 -0 -8.34955e-06 -0 4.37946e-08)
(7.72071e-06 -3.39704 -0 -7.7609e-06 -0 4.01947e-08)
(7.21777e-06 -3.39572 -0 -7.25451e-06 -0 3.67404e-08)
(6.73813e-06 -3.39452 -0 -6.7716e-06 -0 3.34642e-08)
(6.33153e-06 -3.39345 -0 -6.36149e-06 -0 2.99604e-08)
(5.90688e-06 -3.39245 -0 -5.93348e-06 -0 2.65985e-08)
(5.51373e-06 -3.39159 -0 -5.53637e-06 -0 2.2635e-08)
(5.13349e-06 -3.39077 -0 -5.15179e-06 -0 1.82981e-08)
(4.71867e-06 -3.39007 -0 -4.73192e-06 -0 1.3244e-08)
(4.273e-06 -3.38941 -0 -4.27999e-06 -0 6.98646e-09)
(3.77662e-06 -3.38886 -0 -3.7758e-06 -0 -8.2128e-10)
(3.18917e-06 -3.38836 -0 -3.17879e-06 -0 -1.03767e-08)
(2.50036e-06 -3.38796 -0 -2.47768e-06 -0 -2.26785e-08)
(1.66633e-06 -3.38763 -0 -1.62836e-06 -0 -3.79662e-08)
(6.34074e-07 -3.38741 -0 -5.7695e-07 -0 -5.71242e-08)
(-6.4106e-07 -3.38727 -0 7.23266e-07 -0 -8.22061e-08)
(-2.15644e-06 -3.38728 -0 2.26737e-06 -0 -1.10934e-07)
(-4.18213e-06 -3.38739 -0 4.32748e-06 -0 -1.45355e-07)
(-6.52993e-06 -3.38772 -0 6.72244e-06 -0 -1.92504e-07)
(-9.26361e-06 -3.38816 -0 9.51312e-06 -0 -2.49519e-07)
(-1.27784e-05 -3.38882 -0 1.30949e-05 -0 -3.16472e-07)
(-1.69116e-05 -3.3897 -0 1.73074e-05 -0 -3.95787e-07)
(-2.1966e-05 -3.39085 -0 2.24575e-05 -0 -4.91482e-07)
(-2.79034e-05 -3.39228 -0 2.85081e-05 -0 -6.0475e-07)
(-3.51195e-05 -3.39404 -0 3.58518e-05 -0 -7.32282e-07)
(-4.35121e-05 -3.3962 -0 4.43976e-05 -0 -8.85489e-07)
(-5.35687e-05 -3.39875 -0 5.46181e-05 -0 -1.04935e-06)
(-6.52668e-05 -3.40181 -0 6.65201e-05 -0 -1.25328e-06)
(-7.9084e-05 -3.40534 -0 8.05526e-05 -0 -1.46859e-06)
(-9.52768e-05 -3.40953 -0 9.7018e-05 -0 -1.74123e-06)
(-0.000114298 -3.4143 -0 0.000116346 -0 -2.04856e-06)
(-0.000136652 -3.41989 -0 0.000139035 -0 -2.38331e-06)
(-0.000163336 -3.42622 -0 0.000166039 -0 -2.70304e-06)
(-0.000189873 -3.43236 -0 0.000192677 -0 -2.80395e-06)
(-0.000212922 -3.43763 -0 0.000215121 -0 -2.19864e-06)
(-0.000237279 -3.4433 -0 0.00024007 -0 -2.79098e-06)
(-0.000265133 -3.44915 -0 0.000267879 -0 -2.74548e-06)
(-0.000295727 -3.45549 -0 0.000298823 -0 -3.09534e-06)
(-0.000328059 -3.46202 -0 0.000331093 -0 -3.03444e-06)
(-0.000364793 -3.46901 -0 0.000368446 -0 -3.65328e-06)
(-0.000404232 -3.47623 -0 0.000408183 -0 -3.9507e-06)
(-0.00044948 -3.48391 -0 0.000454631 -0 -5.15184e-06)
(-0.000498275 -3.49183 -0 0.000504352 -0 -6.07657e-06)
(-0.000556922 -3.50025 -0 0.000564278 -0 -7.35642e-06)
(-0.000617927 -3.50897 -0 0.000627125 -0 -9.19775e-06)
(-0.000697919 -3.51822 -0 0.000707481 -0 -9.56204e-06)
(-0.000770287 -3.52793 -0 0.00078422 -0 -1.3933e-05)
(-0.000886367 -3.53795 -0 0.000898897 -0 -1.25304e-05)
(-0.000968284 -3.54897 -0 0.000992708 -0 -2.44239e-05)
(-0.00116003 -3.55961 -0 0.00117947 -0 -1.94407e-05)
(-0.00123551 -3.57273 -0 0.0012855 -0 -4.99921e-05)
(-0.00164174 -3.58325 -0 0.00167584 -0 -3.4104e-05)
(-0.00158673 -3.60158 -0 0.00169675 -0 -0.000110018)
(-0.00257037 -3.60585 -0 0.00264098 -0 -7.06101e-05)
(-0.00264264 -3.63909 -0 0.00282733 -0 -0.000184687)
(-0.00511476 -3.63599 -0 0.00553912 -0 -0.000424358)
(-0.00251709 -3.67751 -0 0.00209453 -0 0.000422555)
(-0.0525657 -3.77361 -7.90508e-21 0.0469994 -0 0.00556635)
(0.00725421 -11.6088 -0 -0.0078649 -0 0.000610692)
(0.00534973 -6.52491 -0 -0.0054036 -0 5.38682e-05)
(0.00187927 -5.64584 -0 -0.00189655 -0 1.72895e-05)
(0.00127958 -5.13991 -0 -0.00129138 -0 1.18e-05)
(0.000866016 -4.82507 -0 -0.000874155 -0 8.13886e-06)
(0.000607346 -4.62048 -0 -0.000613157 -0 5.81133e-06)
(0.000452463 -4.47876 -0 -0.000456788 -0 4.3254e-06)
(0.000349232 -4.37541 -0 -0.000352552 -0 3.31986e-06)
(0.000276064 -4.29774 -0 -0.000278687 -0 2.62359e-06)
(0.00022328 -4.2379 -0 -0.000225404 -0 2.12385e-06)
(0.000183958 -4.19085 -0 -0.000185706 -0 1.74803e-06)
(0.000153625 -4.1532 -0 -0.000155085 -0 1.45974e-06)
(0.000129871 -4.12277 -0 -0.000131105 -0 1.23383e-06)
(0.000110761 -4.09779 -0 -0.000111814 -0 1.05299e-06)
(9.54963e-05 -4.07726 -0 -9.64039e-05 -0 9.07539e-07)
(8.27466e-05 -4.06001 -0 -8.3534e-05 -0 7.87426e-07)
(7.21041e-05 -4.04573 -0 -7.27903e-05 -0 6.86246e-07)
(6.33607e-05 -4.03355 -0 -6.39643e-05 -0 6.03616e-07)
(5.57893e-05 -4.02333 -0 -5.6321e-05 -0 5.31751e-07)
(4.96348e-05 -4.01456 -0 -5.0108e-05 -0 4.73258e-07)
(4.41742e-05 -4.00704 -0 -4.45959e-05 -0 4.2169e-07)
(3.94787e-05 -4.0006 -0 -3.98558e-05 -0 3.77077e-07)
(3.5516e-05 -3.99502 -0 -3.58552e-05 -0 3.39232e-07)
(3.20833e-05 -3.99018 -0 -3.23899e-05 -0 3.06565e-07)
(2.90631e-05 -3.98595 -0 -2.93406e-05 -0 2.77434e-07)
(2.64113e-05 -3.98226 -0 -2.66632e-05 -0 2.51913e-07)
(2.41488e-05 -3.97902 -0 -2.43786e-05 -0 2.29751e-07)
(2.21527e-05 -3.97615 -0 -2.23629e-05 -0 2.10181e-07)
(2.04119e-05 -3.97361 -0 -2.06048e-05 -0 1.92958e-07)
(1.88428e-05 -3.97134 -0 -1.90201e-05 -0 1.77322e-07)
(1.74794e-05 -3.96933 -0 -1.76428e-05 -0 1.6344e-07)
(1.62382e-05 -3.96752 -0 -1.63889e-05 -0 1.50701e-07)
(1.51629e-05 -3.9659 -0 -1.53024e-05 -0 1.39492e-07)
(1.41399e-05 -3.96442 -0 -1.42686e-05 -0 1.28698e-07)
(1.32583e-05 -3.96311 -0 -1.33775e-05 -0 1.19216e-07)
(1.23494e-05 -3.96189 -0 -1.24591e-05 -0 1.097e-07)
(1.14865e-05 -3.96082 -0 -1.15868e-05 -0 1.00251e-07)
(1.06432e-05 -3.95982 -0 -1.07343e-05 -0 9.11669e-08)
(9.72011e-06 -3.95895 -0 -9.80143e-06 -0 8.13253e-08)
(8.71343e-06 -3.95813 -0 -8.78428e-06 -0 7.08479e-08)
(7.57643e-06 -3.95744 -0 -7.63558e-06 -0 5.91506e-08)
(6.22425e-06 -3.95681 -0 -6.26965e-06 -0 4.54e-08)
(4.61789e-06 -3.95631 -0 -4.64739e-06 -0 2.95046e-08)
(2.66417e-06 -3.95586 -0 -2.67465e-06 -0 1.04801e-08)
(2.4397e-07 -3.95557 -0 -2.31214e-07 -0 -1.27564e-08)
(-2.78289e-06 -3.95535 -0 2.82461e-06 -0 -4.172e-08)
(-6.37207e-06 -3.95531 -0 6.44624e-06 -0 -7.41663e-08)
(-1.1052e-05 -3.95537 -0 1.11674e-05 -0 -1.15423e-07)
(-1.66241e-05 -3.95568 -0 1.67903e-05 -0 -1.66273e-07)
(-2.32437e-05 -3.95611 -0 2.34674e-05 -0 -2.23727e-07)
(-3.15592e-05 -3.95679 -0 3.18548e-05 -0 -2.95568e-07)
(-4.136e-05 -3.95771 -0 4.17374e-05 -0 -3.77463e-07)
(-5.33493e-05 -3.95892 -0 5.38233e-05 -0 -4.73993e-07)
(-6.74965e-05 -3.96045 -0 6.80857e-05 -0 -5.89269e-07)
(-8.45772e-05 -3.96234 -0 8.52819e-05 -0 -7.04742e-07)
(-0.000104599 -3.96465 -0 0.000105454 -0 -8.54846e-07)
(-0.00012842 -3.96739 -0 0.000129392 -0 -9.72104e-07)
(-0.000156362 -3.97069 -0 0.000157514 -0 -1.15248e-06)
(-0.000189154 -3.97448 -0 0.000190424 -0 -1.26953e-06)
(-0.000227843 -3.979 -0 0.000229326 -0 -1.48344e-06)
(-0.000273003 -3.98413 -0 0.000274653 -0 -1.64979e-06)
(-0.000326264 -3.99016 -0 0.000328152 -0 -1.88853e-06)
(-0.000389213 -3.99694 -0 0.000391245 -0 -2.03279e-06)
(-0.000452058 -4.00351 -0 0.000453815 -0 -1.75698e-06)
(-0.000506678 -4.0091 -0 0.000506412 -0 2.6618e-07)
(-0.000564821 -4.01518 -0 0.000564826 -0 -4.87928e-09)
(-0.000630876 -4.02141 -0 0.000629779 -0 1.09664e-06)
(-0.000704184 -4.02816 -0 0.000703047 -0 1.13668e-06)
(-0.000781519 -4.03506 -0 0.000779193 -0 2.32641e-06)
(-0.000869984 -4.04247 -0 0.000868097 -0 1.8874e-06)
(-0.000963487 -4.05005 -0 0.000960926 -0 2.5605e-06)
(-0.00107324 -4.05814 -0 0.00107212 -0 1.11463e-06)
(-0.00118708 -4.06638 -0 0.00118648 -0 6.01091e-07)
(-0.00133001 -4.07517 -0 0.00133066 -0 -6.47962e-07)
(-0.00146833 -4.0841 -0 0.00147104 -0 -2.70917e-06)
(-0.00166641 -4.09363 -0 0.00166757 -0 -1.16773e-06)
(-0.00182527 -4.10336 -0 0.0018323 -0 -7.03334e-06)
(-0.00212257 -4.11358 -0 0.00212258 -0 -9.29776e-09)
(-0.00228711 -4.12434 -0 0.00230569 -0 -1.85858e-05)
(-0.00279056 -4.13523 -0 0.00279214 -0 -1.58259e-06)
(-0.0029076 -4.14753 -0 0.00296063 -0 -5.30355e-05)
(-0.0039232 -4.15847 -0 0.00393377 -0 -1.05659e-05)
(-0.00378529 -4.17501 -0 0.00392226 -0 -0.00013697)
(-0.00610137 -4.17833 -0 0.00612392 -0 -2.25419e-05)
(-0.0059019 -4.20932 -0 0.00620272 -0 -0.000300821)
(-0.0116631 -4.20201 -0 0.0117617 -0 -9.86154e-05)
(-0.0127956 -4.23597 -0 0.0131469 -0 -0.000351367)
(-0.0466658 -4.22056 -0 0.0537972 -0 -0.00713135)
(-0.00480961 -11.7968 -0 0.0047402 -0 6.94136e-05)
(0.00668027 -6.66356 -0 -0.00663584 -0 -4.44259e-05)
(0.00284293 -5.78297 -0 -0.00283378 -0 -9.14793e-06)
(0.00220243 -5.28978 -0 -0.00219953 -0 -2.89346e-06)
(0.00156816 -4.98348 -0 -0.00156757 -0 -5.83099e-07)
(0.00112735 -4.78373 -0 -0.00112751 -0 1.57128e-07)
(0.000853892 -4.64521 -0 -0.000854164 -0 2.7229e-07)
(0.000666132 -4.54404 -0 -0.000666399 -0 2.66653e-07)
(0.000530124 -4.46787 -0 -0.000530385 -0 2.60469e-07)
(0.000430859 -4.40912 -0 -0.000431103 -0 2.43321e-07)
(0.000356298 -4.36288 -0 -0.000356515 -0 2.16716e-07)
(0.000298376 -4.32587 -0 -0.00029857 -0 1.93801e-07)
(0.000252788 -4.29592 -0 -0.00025296 -0 1.72546e-07)
(0.000215978 -4.27134 -0 -0.000216132 -0 1.54246e-07)
(0.000186459 -4.25112 -0 -0.000186596 -0 1.37222e-07)
(0.00016179 -4.23412 -0 -0.000161914 -0 1.23308e-07)
(0.00014113 -4.22006 -0 -0.00014124 -0 1.10078e-07)
(0.000124114 -4.20805 -0 -0.000124214 -0 9.93348e-08)
(0.000109382 -4.19798 -0 -0.000109471 -0 8.91839e-08)
(9.7342e-05 -4.18933 -0 -9.7423e-05 -0 8.09817e-08)
(8.67068e-05 -4.18191 -0 -8.67801e-05 -0 7.33354e-08)
(7.75321e-05 -4.17556 -0 -7.75987e-05 -0 6.65807e-08)
(6.97601e-05 -4.17006 -0 -6.98205e-05 -0 6.04091e-08)
(6.30353e-05 -4.16528 -0 -6.30905e-05 -0 5.52297e-08)
(5.7123e-05 -4.16111 -0 -5.71732e-05 -0 5.01712e-08)
(5.19235e-05 -4.15746 -0 -5.19691e-05 -0 4.56527e-08)
(4.74713e-05 -4.15427 -0 -4.75127e-05 -0 4.14391e-08)
(4.35474e-05 -4.15143 -0 -4.35851e-05 -0 3.76304e-08)
(4.01204e-05 -4.14893 -0 -4.01544e-05 -0 3.40188e-08)
(3.70358e-05 -4.14669 -0 -3.70663e-05 -0 3.05779e-08)
(3.43463e-05 -4.14471 -0 -3.43737e-05 -0 2.73515e-08)
(3.18986e-05 -4.14291 -0 -3.19229e-05 -0 2.43177e-08)
(2.97653e-05 -4.14132 -0 -2.97868e-05 -0 2.15271e-08)
(2.77419e-05 -4.13985 -0 -2.77607e-05 -0 1.87887e-08)
(2.59744e-05 -4.13856 -0 -2.59907e-05 -0 1.63128e-08)
(2.41743e-05 -4.13735 -0 -2.41882e-05 -0 1.39564e-08)
(2.24365e-05 -4.13629 -0 -2.24482e-05 -0 1.17196e-08)
(2.07262e-05 -4.13529 -0 -2.07361e-05 -0 9.86923e-09)
(1.88551e-05 -4.13443 -0 -1.88632e-05 -0 8.12961e-09)
(1.67959e-05 -4.13362 -0 -1.68028e-05 -0 6.87282e-09)
(1.44522e-05 -4.13293 -0 -1.44582e-05 -0 5.90906e-09)
(1.1661e-05 -4.13229 -0 -1.16664e-05 -0 5.36062e-09)
(8.3196e-06 -4.13178 -0 -8.32516e-06 -0 5.55708e-09)
(4.2477e-06 -4.13131 -0 -4.25411e-06 -0 6.41598e-09)
(-7.95044e-07 -4.13099 -0 7.86464e-07 -0 8.57985e-09)
(-7.14481e-06 -4.13074 -0 7.13275e-06 -0 1.2056e-08)
(-1.46867e-05 -4.13065 -0 1.46708e-05 -0 1.58194e-08)
(-2.43297e-05 -4.13065 -0 2.43033e-05 -0 2.63611e-08)
(-3.59912e-05 -4.13088 -0 3.5953e-05 -0 3.81805e-08)
(-5.00544e-05 -4.13122 -0 5.00037e-05 -0 5.07294e-08)
(-6.74627e-05 -4.13178 -0 6.73932e-05 -0 6.94127e-08)
(-8.79986e-05 -4.13255 -0 8.7901e-05 -0 9.75102e-08)
(-0.000113123 -4.13359 -0 0.000112988 -0 1.34043e-07)
(-0.000142832 -4.13491 -0 0.000142652 -0 1.79634e-07)
(-0.000178575 -4.13653 -0 0.000178311 -0 2.64097e-07)
(-0.000220618 -4.13855 -0 0.000220266 -0 3.52352e-07)
(-0.00027049 -4.14092 -0 0.000269957 -0 5.32948e-07)
(-0.000329171 -4.1438 -0 0.000328469 -0 7.02026e-07)
(-0.000397894 -4.1471 -0 0.000396883 -0 1.01061e-06)
(-0.0004791 -4.15105 -0 0.000477805 -0 1.29553e-06)
(-0.000573675 -4.1555 -0 0.000571965 -0 1.70905e-06)
(-0.000685229 -4.16076 -0 0.000683045 -0 2.18343e-06)
(-0.000816053 -4.16664 -0 0.000813134 -0 2.91953e-06)
(-0.000946971 -4.17232 -0 0.000942707 -0 4.26421e-06)
(-0.00106268 -4.17713 -0 0.00105494 -0 7.73916e-06)
(-0.00118456 -4.18241 -0 0.00117643 -0 8.12544e-06)
(-0.00132269 -4.18773 -0 0.00131222 -0 1.04687e-05)
(-0.00147577 -4.19353 -0 0.00146413 -0 1.16416e-05)
(-0.00163793 -4.19938 -0 0.00162363 -0 1.42969e-05)
(-0.0018224 -4.20568 -0 0.00180732 -0 1.50869e-05)
(-0.00201643 -4.21206 -0 0.00199922 -0 1.72097e-05)
(-0.00224489 -4.21887 -0 0.00222782 -0 1.70765e-05)
(-0.00247717 -4.22572 -0 0.00245926 -0 1.79109e-05)
(-0.00277454 -4.23304 -0 0.00275566 -0 1.88838e-05)
(-0.00305002 -4.24033 -0 0.00303202 -0 1.8e-05)
(-0.00346464 -4.24816 -0 0.00344054 -0 2.41023e-05)
(-0.00377235 -4.25587 -0 0.00375449 -0 1.78636e-05)
(-0.00440311 -4.26412 -0 0.00436913 -0 3.39703e-05)
(-0.0046984 -4.27225 -0 0.00469001 -0 8.39066e-06)
(-0.00577208 -4.28093 -0 0.00572718 -0 4.48948e-05)
(-0.00592494 -4.28958 -0 0.00595718 -0 -3.22376e-05)
(-0.00802278 -4.29823 -0 0.00796775 -0 5.50234e-05)
(-0.00765616 -4.30896 -0 0.00779111 -0 -0.000134945)
(-0.0123965 -4.31093 -0 0.0123195 -0 7.70238e-05)
(-0.0110822 -4.33091 -0 0.0113764 -0 -0.000294153)
(-0.0232239 -4.32385 -0 0.023244 -0 -2.00444e-05)
(-0.0260189 -4.34364 -0 0.0265181 -0 -0.000499166)
(-0.0489978 -4.20491 -0 0.0478975 -0 0.00110027)
(-0.0336926 -11.7061 -0 0.033613 -0 7.96302e-05)
(0.00688602 -6.62395 -0 -0.00683751 -0 -4.85086e-05)
(0.00354995 -5.71867 -0 -0.00353404 -0 -1.59095e-05)
(0.00327717 -5.22935 -0 -0.0032659 -0 -1.12695e-05)
(0.00247907 -4.92964 -0 -0.00247227 -0 -6.80355e-06)
(0.00183317 -4.7344 -0 -0.00182874 -0 -4.42203e-06)
(0.00141308 -4.59924 -0 -0.00140974 -0 -3.33722e-06)
(0.00111482 -4.50057 -0 -0.00111216 -0 -2.66065e-06)
(0.000893612 -4.42624 -0 -0.00089148 -0 -2.13262e-06)
(0.000729985 -4.36887 -0 -0.000728245 -0 -1.73956e-06)
(0.000605968 -4.32372 -0 -0.000604518 -0 -1.45023e-06)
(0.000508929 -4.28755 -0 -0.00050771 -0 -1.21976e-06)
(0.000432142 -4.25829 -0 -0.000431105 -0 -1.03708e-06)
(0.0003699 -4.23427 -0 -0.000369013 -0 -8.8713e-07)
(0.000319787 -4.2145 -0 -0.000319019 -0 -7.67787e-07)
(0.000277867 -4.19788 -0 -0.000277201 -0 -6.65641e-07)
(0.000242649 -4.18414 -0 -0.000242068 -0 -5.81058e-07)
(0.000213574 -4.1724 -0 -0.000213063 -0 -5.10259e-07)
(0.000188394 -4.16255 -0 -0.000187945 -0 -4.49367e-07)
(0.000167722 -4.15408 -0 -0.000167322 -0 -3.99373e-07)
(0.000149517 -4.14683 -0 -0.000149162 -0 -3.55142e-07)
(0.000133774 -4.14062 -0 -0.000133457 -0 -3.16925e-07)
(0.000120395 -4.13524 -0 -0.000120109 -0 -2.85224e-07)
(0.000108823 -4.13056 -0 -0.000108565 -0 -2.57337e-07)
(9.8654e-05 -4.12648 -0 -9.84207e-05 -0 -2.33396e-07)
(8.97007e-05 -4.12292 -0 -8.94883e-05 -0 -2.12339e-07)
(8.20106e-05 -4.11978 -0 -8.18158e-05 -0 -1.94853e-07)
(7.52367e-05 -4.11701 -0 -7.50572e-05 -0 -1.79541e-07)
(6.93135e-05 -4.11456 -0 -6.9147e-05 -0 -1.66552e-07)
(6.39874e-05 -4.11237 -0 -6.38323e-05 -0 -1.5508e-07)
(5.9332e-05 -4.11042 -0 -5.91866e-05 -0 -1.45411e-07)
(5.50967e-05 -4.10866 -0 -5.49599e-05 -0 -1.36852e-07)
(5.13895e-05 -4.1071 -0 -5.12598e-05 -0 -1.29679e-07)
(4.78834e-05 -4.10567 -0 -4.77603e-05 -0 -1.23073e-07)
(4.47921e-05 -4.1044 -0 -4.46745e-05 -0 -1.17577e-07)
(4.16756e-05 -4.1032 -0 -4.15638e-05 -0 -1.11794e-07)
(3.8638e-05 -4.10217 -0 -3.85316e-05 -0 -1.06406e-07)
(3.56377e-05 -4.10118 -0 -3.55369e-05 -0 -1.00815e-07)
(3.23648e-05 -4.10033 -0 -3.22702e-05 -0 -9.45973e-08)
(2.87502e-05 -4.09952 -0 -2.8663e-05 -0 -8.71316e-08)
(2.46239e-05 -4.09883 -0 -2.45456e-05 -0 -7.83205e-08)
(1.97139e-05 -4.09817 -0 -1.96466e-05 -0 -6.72664e-08)
(1.38167e-05 -4.09764 -0 -1.37635e-05 -0 -5.32331e-08)
(6.62766e-06 -4.09716 -0 -6.59209e-06 -0 -3.55761e-08)
(-2.26286e-06 -4.09679 -0 2.27517e-06 -0 -1.23125e-08)
(-1.34826e-05 -4.09649 -0 1.34643e-05 -0 1.83103e-08)
(-2.68854e-05 -4.09632 -0 2.6835e-05 -0 5.04117e-08)
(-4.37355e-05 -4.09623 -0 4.36318e-05 -0 1.03712e-07)
(-6.42609e-05 -4.09635 -0 6.40928e-05 -0 1.68101e-07)
(-8.93206e-05 -4.09653 -0 8.90813e-05 -0 2.39264e-07)
(-0.000120038 -4.09692 -0 0.000119706 -0 3.31645e-07)
(-0.000156296 -4.09746 -0 0.000155849 -0 4.46273e-07)
(-0.000200631 -4.09823 -0 0.000200038 -0 5.93109e-07)
(-0.000253108 -4.09922 -0 0.000252338 -0 7.70244e-07)
(-0.00031609 -4.10046 -0 0.000315065 -0 1.02442e-06)
(-0.000390305 -4.10202 -0 0.000388998 -0 1.30647e-06)
(-0.000478126 -4.10386 -0 0.000476374 -0 1.75208e-06)
(-0.000581623 -4.10611 -0 0.000579414 -0 2.20932e-06)
(-0.00070258 -4.10867 -0 0.000699676 -0 2.90433e-06)
(-0.000845602 -4.11177 -0 0.000842 -0 3.60147e-06)
(-0.0010118 -4.11522 -0 0.00100727 -0 4.52969e-06)
(-0.00120792 -4.11935 -0 0.00120233 -0 5.58658e-06)
(-0.00143641 -4.1239 -0 0.00142937 -0 7.03644e-06)
(-0.00166499 -4.12833 -0 0.00165562 -0 9.36913e-06)
(-0.00186862 -4.13203 -0 0.0018539 -0 1.47169e-05)
(-0.00208177 -4.13615 -0 0.00206616 -0 1.56051e-05)
(-0.00232181 -4.1402 -0 0.00230251 -0 1.93027e-05)
(-0.00258831 -4.14467 -0 0.00256691 -0 2.13979e-05)
(-0.00287048 -4.14906 -0 0.00284495 -0 2.55356e-05)
(-0.00319118 -4.15383 -0 0.00316408 -0 2.7101e-05)
(-0.00352612 -4.15856 -0 0.00349567 -0 3.04436e-05)
(-0.00392226 -4.16366 -0 0.00389154 -0 3.0714e-05)
(-0.00431886 -4.16861 -0 0.0042867 -0 3.21616e-05)
(-0.00483263 -4.17401 -0 0.00479853 -0 3.40975e-05)
(-0.00529543 -4.17911 -0 0.00526245 -0 3.29864e-05)
(-0.00600894 -4.1848 -0 0.00596652 -0 4.24183e-05)
(-0.00651569 -4.18989 -0 0.00648249 -0 3.31989e-05)
(-0.00759939 -4.19579 -0 0.00754199 -0 5.73948e-05)
(-0.00806357 -4.20061 -0 0.00804458 -0 1.89872e-05)
(-0.00989952 -4.20681 -0 0.00982584 -0 7.36845e-05)
(-0.0100851 -4.21101 -0 0.0101264 -0 -4.13598e-05)