/*--------------------------------*- C++ -*----------------------------------*\
| =========                 |                                                 |
| \\      /  F ield         | OpenFOAM: The Open Source CFD Toolbox           |
|  \\    /   O peration     | Version:  2306                                  |
|   \\  /    A nd           | Website:  www.openfoam.com                      |
|    \\/     M anipulation  |                                                 |
\*---------------------------------------------------------------------------*/
FoamFile
{
    version     2.0;
    format      ascii;
    arch        "LSB;label=32;scalar=64";
    class       volVectorField;
    location    "1600";
    object      U;
}
// * * * * * * * * * * * * * * * * * * * * * * * * * * * * * * * * * * * * * //

dimensions      [0 1 -1 0 0 0 0];

internalField   nonuniform List<vector> 
20540
(
(28.8797 0.00142679 0)
(18.3577 0.0014269 0)
(28.911 0.00486631 0)
(18.376 0.0043164 0)
(28.9656 0.00949912 0)
(18.4061 0.00631844 0)
(29.0429 0.0145649 0)
(18.4477 0.00701716 0)
(29.1459 0.0206538 0)
(18.5029 0.00720377 0)
(29.2792 0.0280808 0)
(18.575 0.00706308 0)
(29.4486 0.0370609 0)
(18.6677 0.006526 0)
(29.6606 0.0478634 0)
(18.7856 0.00550824 0)
(29.9223 0.0608378 0)
(18.9342 0.00394503 0)
(30.2416 0.0763991 0)
(19.12 0.00177192 0)
(30.6272 0.0950255 0)
(19.351 -0.00107677 0)
(31.0884 0.117263 0)
(19.6368 -0.00465394 0)
(31.6353 0.143727 0)
(19.989 -0.0089784 0)
(32.2784 0.1751 0)
(20.4219 -0.0140056 0)
(33.0285 0.212112 0)
(20.9525 -0.0195854 0)
(33.897 0.255515 0)
(21.6016 -0.0254017 0)
(34.8951 0.30602 0)
(22.3943 -0.0308881 0)
(36.0339 0.364211 0)
(23.3605 -0.0351133 0)
(37.3237 0.43039 0)
(24.5359 -0.0366321 0)
(38.7729 0.504377 0)
(25.9629 -0.0333036 0)
(40.3837 0.585162 0)
(27.6921 -0.0220904 0)
(42.1407 0.670302 0)
(29.7834 0.00113915 0)
(43.9955 0.755692 0)
(32.302 0.0416082 0)
(45.8213 0.835271 0)
(35.3026 0.10472 0)
(47.2952 0.895728 0)
(38.7936 0.192967 0)
(47.9456 0.912819 0)
(42.6757 0.301665 0)
(47.8873 0.885881 0)
(46.6538 0.419804 0)
(47.2982 0.796656 0)
(49.8124 0.494608 0)
(46.4969 0.63745 0)
(50.7794 0.44683 0)
(45.9194 0.446787 0)
(50.7399 0.346968 0)
(45.6523 0.260223 0)
(50.5623 0.220855 0)
(45.5541 0.0824854 0)
(50.4497 0.0835316 0)
(45.5531 -0.0960469 0)
(50.445 -0.0522188 0)
(45.6472 -0.273905 0)
(50.5474 -0.189268 0)
(45.8969 -0.457 0)
(50.7136 -0.315429 0)
(46.4105 -0.639857 0)
(50.7634 -0.413851 0)
(47.128 -0.795045 0)
(49.9867 -0.4694 0)
(47.7038 -0.888362 0)
(47.1097 -0.412821 0)
(47.8043 -0.920242 0)
(43.2819 -0.303163 0)
(47.2667 -0.910286 0)
(39.4812 -0.198646 0)
(45.9033 -0.857268 0)
(36.0154 -0.111036 0)
(44.1369 -0.782523 0)
(32.9978 -0.04619 0)
(42.307 -0.70024 0)
(30.4361 -0.00318092 0)
(40.5541 -0.616723 0)
(28.2875 0.0225283 0)
(38.9333 -0.536278 0)
(26.4938 0.0357924 0)
(37.4632 -0.461628 0)
(25 0.0406239 0)
(36.1442 -0.394061 0)
(23.7586 0.0400655 0)
(34.9696 -0.334003 0)
(22.7294 0.0363263 0)
(33.9309 -0.281347 0)
(21.8781 0.0309451 0)
(33.0187 -0.235664 0)
(21.1752 0.02495 0)
(32.2232 -0.196352 0)
(20.5961 0.0189949 0)
(31.5343 -0.16274 0)
(20.1198 0.0134691 0)
(30.9422 -0.134147 0)
(19.729 0.00857984 0)
(30.4372 -0.109925 0)
(19.409 0.00441415 0)
(30.0099 -0.0894747 0)
(19.1478 0.000982977 0)
(29.6514 -0.0722573 0)
(18.9355 -0.00174784 0)
(29.3535 -0.0577949 0)
(18.7638 -0.00383568 0)
(29.1084 -0.0456684 0)
(18.6257 -0.00534495 0)
(28.909 -0.0355129 0)
(18.5155 -0.00633614 0)
(28.749 -0.0270202 0)
(18.4283 -0.00686857 0)
(28.6225 -0.0199525 0)
(18.3602 -0.00701794 0)
(28.5244 -0.0141207 0)
(18.3078 -0.00684254 0)
(28.4505 -0.00923999 0)
(18.2681 -0.00615915 0)
(28.3981 -0.00475807 0)
(18.2393 -0.00421667 0)
(28.3678 -0.00139933 0)
(18.2215 -0.00139842 0)
(9.36205 0.00224488 0)
(5.42078 0.000486999 0)
(4.71244 0.000102047 0)
(4.30254 5.25968e-05 0)
(4.05022 3.09183e-05 0)
(3.88753 2.00799e-05 0)
(3.77465 1.40806e-05 0)
(3.69231 1.0432e-05 0)
(3.63052 8.03653e-06 0)
(3.58292 6.37374e-06 0)
(3.54549 5.17061e-06 0)
(3.51554 4.2688e-06 0)
(3.49132 3.57593e-06 0)
(3.47145 3.0272e-06 0)
(3.45512 2.59533e-06 0)
(3.44139 2.23585e-06 0)
(3.43003 1.93978e-06 0)
(3.42034 1.69934e-06 0)
(3.41221 1.49067e-06 0)
(3.40523 1.32498e-06 0)
(3.39925 1.17506e-06 0)
(3.39413 1.04794e-06 0)
(3.38969 9.43187e-07 0)
(3.38584 8.50809e-07 0)
(3.38248 7.6913e-07 0)
(3.37954 6.98323e-07 0)
(3.37697 6.38518e-07 0)
(3.37468 5.85377e-07 0)
(3.37267 5.3955e-07 0)
(3.37087 4.97767e-07 0)
(3.36927 4.61807e-07 0)
(3.36783 4.28983e-07 0)
(3.36655 4.01484e-07 0)
(3.36537 3.74803e-07 0)
(3.36434 3.53855e-07 0)
(3.36337 3.30958e-07 0)
(3.36253 3.11312e-07 0)
(3.36174 2.93458e-07 0)
(3.36107 2.7431e-07 0)
(3.36044 2.55701e-07 0)
(3.35993 2.36658e-07 0)
(3.35946 2.14642e-07 0)
(3.35911 1.91534e-07 0)
(3.35883 1.64395e-07 0)
(3.35868 1.3138e-07 0)
(3.35863 9.43302e-08 0)
(3.35873 4.95979e-08 0)
(3.35896 -2.06422e-08 0)
(3.35942 -8.64772e-08 0)
(3.36003 -1.51342e-07 0)
(3.3609 -2.52266e-07 0)
(3.36203 -3.66996e-07 0)
(3.36347 -5.05607e-07 0)
(3.36526 -6.64725e-07 0)
(3.36744 -8.56366e-07 0)
(3.37008 -1.07982e-06 0)
(3.37321 -1.32171e-06 0)
(3.37695 -1.62181e-06 0)
(3.38128 -1.92198e-06 0)
(3.38639 -2.31886e-06 0)
(3.39226 -2.73274e-06 0)
(3.3991 -3.29297e-06 0)
(3.40691 -4.00709e-06 0)
(3.4145 -4.47196e-06 0)
(3.42104 -3.8939e-06 0)
(3.42806 -4.31886e-06 0)
(3.43544 -4.17557e-06 0)
(3.44341 -4.67833e-06 0)
(3.45173 -4.78741e-06 0)
(3.46063 -5.66534e-06 0)
(3.46996 -6.33264e-06 0)
(3.47988 -8.00958e-06 0)
(3.49028 -9.88857e-06 0)
(3.50132 -1.20614e-05 0)
(3.51305 -1.5708e-05 0)
(3.52544 -1.68756e-05 0)
(3.53898 -2.32452e-05 0)
(3.55282 -2.18236e-05 0)
(3.56901 -3.60691e-05 0)
(3.58421 -3.01194e-05 0)
(3.60481 -6.53643e-05 0)
(3.62048 -4.96863e-05 0)
(3.6509 -0.000129789 0)
(3.66194 -6.48011e-05 0)
(3.7164 -0.000413753 0)
(3.72931 0.000208357 0)
(3.83908 -0.00174523 0)
(3.67287 -0.0471182 0)
(15.9539 0.00408765 0)
(11.1712 0.00203332 0)
(10.0564 0.000551098 0)
(9.35507 0.000334579 0)
(8.90427 0.000216446 0)
(8.60717 0.000148882 0)
(8.39781 0.000109227 0)
(8.24344 8.35404e-05 0)
(8.12679 6.57443e-05 0)
(8.03645 5.30071e-05 0)
(7.96512 4.35679e-05 0)
(7.90788 3.63282e-05 0)
(7.86149 3.06775e-05 0)
(7.82334 2.61384e-05 0)
(7.79193 2.25259e-05 0)
(7.7655 1.94989e-05 0)
(7.74361 1.69816e-05 0)
(7.72491 1.49185e-05 0)
(7.70921 1.31269e-05 0)
(7.69572 1.16846e-05 0)
(7.68416 1.03894e-05 0)
(7.67424 9.28233e-06 0)
(7.66566 8.35354e-06 0)
(7.6582 7.54697e-06 0)
(7.65169 6.83542e-06 0)
(7.64601 6.21186e-06 0)
(7.64102 5.68443e-06 0)
(7.63659 5.21711e-06 0)
(7.63269 4.81042e-06 0)
(7.6292 4.44283e-06 0)
(7.62611 4.12617e-06 0)
(7.62331 3.83766e-06 0)
(7.62083 3.59116e-06 0)
(7.61856 3.3555e-06 0)
(7.61656 3.15831e-06 0)
(7.61469 2.9499e-06 0)
(7.61307 2.76111e-06 0)
(7.61156 2.58e-06 0)
(7.61026 2.3828e-06 0)
(7.60906 2.1736e-06 0)
(7.60808 1.94332e-06 0)
(7.6072 1.67209e-06 0)
(7.60656 1.35773e-06 0)
(7.60605 9.78607e-07 0)
(7.6058 5.09879e-07 0)
(7.60575 -6.17163e-08 0)
(7.60603 -7.4347e-07 0)
(7.60655 -1.67616e-06 0)
(7.60755 -2.72922e-06 0)
(7.60886 -3.92934e-06 0)
(7.61071 -5.51087e-06 0)
(7.61308 -7.36478e-06 0)
(7.6161 -9.63055e-06 0)
(7.61983 -1.22742e-05 0)
(7.62437 -1.55077e-05 0)
(7.62987 -1.92288e-05 0)
(7.63637 -2.37156e-05 0)
(7.64411 -2.88847e-05 0)
(7.65309 -3.50249e-05 0)
(7.66365 -4.2165e-05 0)
(7.67579 -5.06339e-05 0)
(7.6899 -6.04716e-05 0)
(7.70605 -7.22934e-05 0)
(7.72169 -8.36193e-05 0)
(7.73518 -9.27224e-05 0)
(7.74957 -0.000103863 0)
(7.7647 -0.000115662 0)
(7.78098 -0.000128798 0)
(7.79803 -0.000142474 0)
(7.81618 -0.000158356 0)
(7.83524 -0.000175813 0)
(7.85541 -0.000195842 0)
(7.87666 -0.000218694 0)
(7.89906 -0.000244211 0)
(7.92302 -0.000274934 0)
(7.94793 -0.000306887 0)
(7.97554 -0.000348471 0)
(8.00293 -0.00038928 0)
(8.03584 -0.000452401 0)
(8.06515 -0.000510836 0)
(8.10694 -0.000614761 0)
(8.13617 -0.000735357 0)
(8.19732 -0.000860486 0)
(8.21704 -0.00118366 0)
(8.32376 -0.00157112 0)
(8.33993 -0.00282958 0)
(8.53832 0.000609815 0)
(8.47845 -0.0606831 0)
(19.7142 0.00589536 0)
(16.1405 0.00396636 0)
(15.0684 0.00126805 0)
(14.2812 0.000831323 0)
(13.7398 0.000559331 0)
(13.3719 0.000393264 0)
(13.1066 0.000293207 0)
(12.908 0.000226698 0)
(12.7566 0.000179685 0)
(12.6385 0.000145661 0)
(12.5448 0.000120231 0)
(12.4693 0.000100577 0)
(12.4079 8.51489e-05 0)
(12.3573 7.27052e-05 0)
(12.3156 6.27564e-05 0)
(12.2804 5.44132e-05 0)
(12.2512 4.74461e-05 0)
(12.2263 4.17219e-05 0)
(12.2053 3.67481e-05 0)
(12.1873 3.27223e-05 0)
(12.1718 2.9123e-05 0)
(12.1585 2.60344e-05 0)
(12.147 2.34346e-05 0)
(12.137 2.11774e-05 0)
(12.1283 1.91868e-05 0)
(12.1207 1.74403e-05 0)
(12.114 1.59556e-05 0)
(12.1081 1.46424e-05 0)
(12.1028 1.34979e-05 0)
(12.0982 1.24644e-05 0)
(12.094 1.15695e-05 0)
(12.0903 1.07542e-05 0)
(12.087 1.00526e-05 0)
(12.0839 9.38293e-06 0)
(12.0813 8.81454e-06 0)
(12.0788 8.22081e-06 0)
(12.0766 7.66952e-06 0)
(12.0746 7.13591e-06 0)
(12.0729 6.55288e-06 0)
(12.0714 5.92582e-06 0)
(12.0701 5.22624e-06 0)
(12.069 4.39758e-06 0)
(12.0682 3.42512e-06 0)
(12.0676 2.24699e-06 0)
(12.0674 7.88559e-07 0)
(12.0676 -1.01431e-06 0)
(12.0682 -3.15435e-06 0)
(12.0691 -6.0122e-06 0)
(12.0708 -9.33226e-06 0)
(12.073 -1.31956e-05 0)
(12.076 -1.81581e-05 0)
(12.0798 -2.39923e-05 0)
(12.0845 -3.11217e-05 0)
(12.0904 -3.94987e-05 0)
(12.0975 -4.96454e-05 0)
(12.1061 -6.14697e-05 0)
(12.1162 -7.55469e-05 0)
(12.1282 -9.1993e-05 0)
(12.1421 -0.000111276 0)
(12.1584 -0.000133998 0)
(12.1773 -0.000160578 0)
(12.199 -0.000191854 0)
(12.2241 -0.000229012 0)
(12.2481 -0.000265144 0)
(12.2689 -0.000293536 0)
(12.2911 -0.000327965 0)
(12.3145 -0.000364743 0)
(12.3395 -0.000407031 0)
(12.3659 -0.000450061 0)
(12.3939 -0.000501741 0)
(12.4234 -0.00055581 0)
(12.4545 -0.000621379 0)
(12.4876 -0.00069094 0)
(12.5221 -0.000775287 0)
(12.5595 -0.000865449 0)
(12.5975 -0.000975055 0)
(12.6409 -0.0010899 0)
(12.6824 -0.00124093 0)
(12.7348 -0.00139646 0)
(12.7785 -0.00163591 0)
(12.8463 -0.00185387 0)
(12.8885 -0.00234322 0)
(12.9875 -0.0025576 0)
(13.0171 -0.00370686 0)
(13.1852 -0.00448949 0)
(13.1981 -0.00771252 0)
(13.5251 -0.00466463 0)
(13.5667 -0.104103 0)
(21.7343 0.00610659 0)
(19.4119 0.00551 0)
(18.5621 0.00202054 0)
(17.793 0.00143105 0)
(17.2226 0.000997788 0)
(16.8229 0.000714858 0)
(16.5288 0.000540047 0)
(16.3058 0.000421173 0)
(16.1343 0.000335695 0)
(16 0.000273261 0)
(15.8929 0.000226273 0)
(15.8064 0.000189741 0)
(15.7359 0.00016094 0)
(15.6777 0.000137636 0)
(15.6297 0.000118941 0)
(15.5891 0.000103253 0)
(15.5554 9.01138e-05 0)
(15.5266 7.92967e-05 0)
(15.5023 6.98964e-05 0)
(15.4814 6.22549e-05 0)
(15.4635 5.54467e-05 0)
(15.4482 4.9588e-05 0)
(15.4348 4.46421e-05 0)
(15.4233 4.03513e-05 0)
(15.4132 3.65693e-05 0)
(15.4043 3.32466e-05 0)
(15.3966 3.04133e-05 0)
(15.3897 2.791e-05 0)
(15.3836 2.57259e-05 0)
(15.3782 2.37552e-05 0)
(15.3734 2.20439e-05 0)
(15.3691 2.04849e-05 0)
(15.3652 1.91365e-05 0)
(15.3617 1.78521e-05 0)
(15.3586 1.67496e-05 0)
(15.3557 1.56085e-05 0)
(15.3533 1.45321e-05 0)
(15.351 1.34831e-05 0)
(15.349 1.23356e-05 0)
(15.3472 1.10894e-05 0)
(15.3458 9.68705e-06 0)
(15.3446 8.02161e-06 0)
(15.3437 6.05041e-06 0)
(15.3431 3.65602e-06 0)
(15.343 6.90925e-07 0)
(15.3433 -3.00457e-06 0)
(15.3441 -7.38739e-06 0)
(15.3454 -1.31393e-05 0)
(15.3475 -1.994e-05 0)
(15.3503 -2.79692e-05 0)
(15.3541 -3.8122e-05 0)
(15.3589 -5.00742e-05 0)
(15.3649 -6.46876e-05 0)
(15.3722 -8.19073e-05 0)
(15.3811 -0.000102691 0)
(15.3917 -0.00012702 0)
(15.4043 -0.000155905 0)
(15.4192 -0.000189783 0)
(15.4366 -0.00022944 0)
(15.4568 -0.000276275 0)
(15.4802 -0.000330935 0)
(15.5072 -0.000395327 0)
(15.5382 -0.000471365 0)
(15.568 -0.000545988 0)
(15.5937 -0.000606696 0)
(15.621 -0.000677511 0)
(15.65 -0.000754381 0)
(15.6809 -0.000842023 0)
(15.7135 -0.000932168 0)
(15.748 -0.00103901 0)
(15.7846 -0.00115049 0)
(15.8228 -0.00128524 0)
(15.8637 -0.00142529 0)
(15.906 -0.00159908 0)
(15.9522 -0.0017752 0)
(15.9986 -0.0020064 0)
(16.0522 -0.00222246 0)
(16.1023 -0.00255349 0)
(16.1673 -0.00282335 0)
(16.2193 -0.00336322 0)
(16.3036 -0.00369393 0)
(16.3526 -0.00476749 0)
(16.4744 -0.0050167 0)
(16.5082 -0.00749316 0)
(16.7122 -0.00822681 0)
(16.7132 -0.0150603 0)
(17.1106 -0.0136023 0)
(17.1537 -0.121849 0)
(22.9648 0.00512368 0)
(21.6296 0.00669682 0)
(21.0804 0.00275743 0)
(20.3837 0.00212552 0)
(19.8138 0.00153716 0)
(19.3985 0.00112146 0)
(19.0861 0.000857377 0)
(18.8457 0.000673748 0)
(18.6594 0.000539567 0)
(18.5125 0.000440714 0)
(18.395 0.000365871 0)
(18.2998 0.000307386 0)
(18.2221 0.000261114 0)
(18.1578 0.000223576 0)
(18.1045 0.00019338 0)
(18.0596 0.000168031 0)
(18.0222 0.000146752 0)
(17.9902 0.000129204 0)
(17.9633 0.000113956 0)
(17.9401 0.000101515 0)
(17.9202 9.04648e-05 0)
(17.9031 8.0935e-05 0)
(17.8883 7.28694e-05 0)
(17.8754 6.58769e-05 0)
(17.8641 5.97173e-05 0)
(17.8543 5.43e-05 0)
(17.8456 4.96687e-05 0)
(17.838 4.55802e-05 0)
(17.8312 4.20096e-05 0)
(17.8252 3.87907e-05 0)
(17.8198 3.5989e-05 0)
(17.815 3.34372e-05 0)
(17.8107 3.1221e-05 0)
(17.8068 2.91141e-05 0)
(17.8033 2.72891e-05 0)
(17.8002 2.54158e-05 0)
(17.7974 2.36279e-05 0)
(17.7949 2.1877e-05 0)
(17.7927 1.99619e-05 0)
(17.7907 1.7869e-05 0)
(17.7891 1.55004e-05 0)
(17.7878 1.26842e-05 0)
(17.7869 9.33223e-06 0)
(17.7863 5.25446e-06 0)
(17.7862 2.05925e-07 0)
(17.7865 -6.11828e-06 0)
(17.7875 -1.36311e-05 0)
(17.789 -2.33453e-05 0)
(17.7915 -3.49634e-05 0)
(17.7947 -4.88449e-05 0)
(17.799 -6.61984e-05 0)
(17.8045 -8.66442e-05 0)
(17.8113 -0.000111649 0)
(17.8197 -0.000141166 0)
(17.8298 -0.000176707 0)
(17.8419 -0.000218427 0)
(17.8563 -0.000267866 0)
(17.8732 -0.000325994 0)
(17.893 -0.000393954 0)
(17.916 -0.000474325 0)
(17.9426 -0.000567966 0)
(17.9732 -0.000678387 0)
(18.0085 -0.00080816 0)
(18.0421 -0.00093614 0)
(18.0713 -0.00104258 0)
(18.1022 -0.00116384 0)
(18.135 -0.00129641 0)
(18.1699 -0.00144688 0)
(18.2067 -0.00160268 0)
(18.2456 -0.00178579 0)
(18.2869 -0.00197647 0)
(18.3299 -0.00220661 0)
(18.376 -0.00244242 0)
(18.4233 -0.00273959 0)
(18.4753 -0.00303001 0)
(18.527 -0.00342986 0)
(18.5872 -0.00377681 0)
(18.6426 -0.00436 0)
(18.7152 -0.00476831 0)
(18.7721 -0.0057304 0)
(18.8659 -0.0061766 0)
(18.9187 -0.00805408 0)
(19.0526 -0.0082926 0)
(19.088 -0.0125725 0)
(19.3092 -0.012953 0)
(19.3013 -0.0245729 0)
(19.722 -0.0243849 0)
(19.7259 -0.138788 0)
(23.8236 0.00295058 0)
(23.2284 0.00745525 0)
(23.0161 0.00339849 0)
(22.4405 0.00290075 0)
(21.8992 0.00219001 0)
(21.4835 0.00163161 0)
(21.1615 0.00126381 0)
(20.9093 0.0010013 0)
(20.7117 0.000805995 0)
(20.5549 0.000660676 0)
(20.4288 0.000549923 0)
(20.3262 0.000462919 0)
(20.2423 0.000393821 0)
(20.1727 0.000337616 0)
(20.115 0.000292278 0)
(20.0663 0.000254199 0)
(20.0256 0.000222163 0)
(19.9908 0.000195701 0)
(19.9614 0.000172707 0)
(19.9362 0.000153883 0)
(19.9145 0.000137206 0)
(19.8958 0.000122798 0)
(19.8796 0.000110574 0)
(19.8656 9.99813e-05 0)
(19.8533 9.06551e-05 0)
(19.8425 8.24457e-05 0)
(19.8331 7.54109e-05 0)
(19.8247 6.92042e-05 0)
(19.8173 6.37792e-05 0)
(19.8107 5.88924e-05 0)
(19.8049 5.46305e-05 0)
(19.7996 5.07498e-05 0)
(19.7949 4.73677e-05 0)
(19.7907 4.41593e-05 0)
(19.7869 4.13588e-05 0)
(19.7834 3.85062e-05 0)
(19.7804 3.57599e-05 0)
(19.7776 3.30613e-05 0)
(19.7753 3.01136e-05 0)
(19.7731 2.68792e-05 0)
(19.7714 2.32063e-05 0)
(19.77 1.88391e-05 0)
(19.769 1.36225e-05 0)
(19.7683 7.27148e-06 0)
(19.7682 -5.8583e-07 0)
(19.7686 -1.04551e-05 0)
(19.7696 -2.22219e-05 0)
(19.7714 -3.72378e-05 0)
(19.774 -5.53267e-05 0)
(19.7775 -7.71568e-05 0)
(19.7823 -0.000104217 0)
(19.7883 -0.000136127 0)
(19.7957 -0.00017514 0)
(19.8049 -0.000221246 0)
(19.816 -0.000276661 0)
(19.8292 -0.000341832 0)
(19.8449 -0.000418943 0)
(19.8634 -0.000509754 0)
(19.885 -0.000615812 0)
(19.9101 -0.000741332 0)
(19.9391 -0.000887373 0)
(19.9724 -0.0010597 0)
(20.0109 -0.00126138 0)
(20.0474 -0.00146076 0)
(20.0792 -0.00162917 0)
(20.1128 -0.00181792 0)
(20.1484 -0.00202477 0)
(20.1861 -0.00225896 0)
(20.2261 -0.00250243 0)
(20.2682 -0.00278699 0)
(20.3128 -0.00308255 0)
(20.3592 -0.00343902 0)
(20.409 -0.00380032 0)
(20.4599 -0.00426024 0)
(20.5159 -0.00469843 0)
(20.5712 -0.00531973 0)
(20.6356 -0.00583311 0)
(20.6946 -0.00674575 0)
(20.7719 -0.0073246 0)
(20.8323 -0.00883412 0)
(20.9312 -0.00940866 0)
(20.9867 -0.0123138 0)
(21.1264 -0.0125003 0)
(21.1633 -0.0190395 0)
(21.3896 -0.0188388 0)
(21.3805 -0.0361746 0)
(21.7956 -0.0366119 0)
(21.7688 -0.159271 0)
(24.4881 -0.000569217 0)
(24.4411 0.0076761 0)
(24.5639 0.00381448 0)
(24.1506 0.00369835 0)
(23.6678 0.00294287 0)
(23.2687 0.00224977 0)
(22.947 0.00177013 0)
(22.6889 0.00141619 0)
(22.4839 0.00114693 0)
(22.3196 0.000944076 0)
(22.1866 0.000788208 0)
(22.078 0.000665002 0)
(21.9887 0.00056671 0)
(21.9145 0.000486505 0)
(21.8529 0.000421603 0)
(21.8007 0.000367048 0)
(21.7571 0.000321044 0)
(21.7198 0.000282974 0)
(21.6882 0.000249889 0)
(21.6611 0.000222712 0)
(21.6377 0.000198689 0)
(21.6176 0.000177898 0)
(21.6002 0.000160219 0)
(21.585 0.000144901 0)
(21.5717 0.00013142 0)
(21.5601 0.000119545 0)
(21.5499 0.000109345 0)
(21.5409 0.000100349 0)
(21.5329 9.248e-05 0)
(21.5258 8.53967e-05 0)
(21.5195 7.92073e-05 0)
(21.5138 7.35743e-05 0)
(21.5087 6.86492e-05 0)
(21.5041 6.39876e-05 0)
(21.5001 5.98914e-05 0)
(21.4963 5.57496e-05 0)
(21.4931 5.17361e-05 0)
(21.4901 4.77822e-05 0)
(21.4875 4.34733e-05 0)
(21.4852 3.8735e-05 0)
(21.4834 3.33436e-05 0)
(21.4818 2.69383e-05 0)
(21.4807 1.92702e-05 0)
(21.48 9.93238e-06 0)
(21.4799 -1.60784e-06 0)
(21.4803 -1.6115e-05 0)
(21.4814 -3.34993e-05 0)
(21.4832 -5.54287e-05 0)
(21.486 -8.19602e-05 0)
(21.4898 -0.000114231 0)
(21.4949 -0.000153989 0)
(21.5012 -0.000200937 0)
(21.5092 -0.000258275 0)
(21.519 -0.000326091 0)
(21.5307 -0.000407478 0)
(21.5449 -0.000503317 0)
(21.5616 -0.000616567 0)
(21.5813 -0.000750076 0)
(21.6043 -0.000905852 0)
(21.6309 -0.00109027 0)
(21.6618 -0.00130457 0)
(21.6973 -0.00155756 0)
(21.7381 -0.0018525 0)
(21.7769 -0.00214432 0)
(21.8106 -0.00239359 0)
(21.8462 -0.00266982 0)
(21.8839 -0.00297233 0)
(21.9239 -0.00331428 0)
(21.9661 -0.0036707 0)
(22.0106 -0.00408558 0)
(22.0576 -0.00451538 0)
(22.1065 -0.0050333 0)
(22.1588 -0.00555403 0)
(22.2123 -0.00622056 0)
(22.271 -0.00684494 0)
(22.3288 -0.00774442 0)
(22.396 -0.00846635 0)
(22.4576 -0.00978765 0)
(22.5375 -0.010579 0)
(22.6003 -0.0127591 0)
(22.7015 -0.0134888 0)
(22.7595 -0.0176362 0)
(22.9005 -0.0177584 0)
(22.9399 -0.0269335 0)
(23.1627 -0.0260934 0)
(23.1593 -0.0496838 0)
(23.5527 -0.0504402 0)
(23.512 -0.182156 0)
(25.0406 -0.00564303 0)
(25.4021 0.00725289 0)
(25.8286 0.00385982 0)
(25.6048 0.00442575 0)
(25.2102 0.00375745 0)
(24.847 0.00296671 0)
(24.5374 0.00238031 0)
(24.2808 0.00192771 0)
(24.0727 0.00157323 0)
(23.9038 0.00130173 0)
(23.766 0.0010909 0)
(23.6526 0.000922946 0)
(23.5589 0.000788188 0)
(23.4809 0.000677782 0)
(23.4158 0.000588104 0)
(23.3606 0.000512621 0)
(23.3143 0.000448804 0)
(23.2747 0.000395874 0)
(23.2411 0.00034986 0)
(23.2122 0.000311928 0)
(23.1873 0.000278459 0)
(23.1659 0.000249447 0)
(23.1473 0.000224718 0)
(23.131 0.000203287 0)
(23.1169 0.000184433 0)
(23.1044 0.000167812 0)
(23.0935 0.000153504 0)
(23.0839 0.000140886 0)
(23.0753 0.000129839 0)
(23.0677 0.000119902 0)
(23.0609 0.000111203 0)
(23.0549 0.00010329 0)
(23.0494 9.635e-05 0)
(23.0445 8.97974e-05 0)
(23.0402 8.40048e-05 0)
(23.0362 7.81889e-05 0)
(23.0327 7.25259e-05 0)
(23.0295 6.69361e-05 0)
(23.0267 6.08627e-05 0)
(23.0243 5.41786e-05 0)
(23.0223 4.65661e-05 0)
(23.0206 3.75351e-05 0)
(23.0194 2.67113e-05 0)
(23.0186 1.3532e-05 0)
(23.0184 -2.73551e-06 0)
(23.0188 -2.31707e-05 0)
(23.02 -4.77984e-05 0)
(23.0219 -7.85721e-05 0)
(23.0248 -0.000115885 0)
(23.0288 -0.000161518 0)
(23.034 -0.000217503 0)
(23.0407 -0.000283737 0)
(23.049 -0.000364498 0)
(23.0592 -0.000460088 0)
(23.0716 -0.000574638 0)
(23.0864 -0.000709642 0)
(23.1038 -0.000869011 0)
(23.1244 -0.001057 0)
(23.1485 -0.00127616 0)
(23.1764 -0.00153559 0)
(23.2087 -0.00183673 0)
(23.2457 -0.00219231 0)
(23.2883 -0.0026055 0)
(23.3288 -0.00301413 0)
(23.3639 -0.00336614 0)
(23.401 -0.0037531 0)
(23.4402 -0.004176 0)
(23.4817 -0.00465322 0)
(23.5256 -0.00515168 0)
(23.5717 -0.00572973 0)
(23.6204 -0.00632751 0)
(23.6711 -0.00704643 0)
(23.7251 -0.00776571 0)
(23.7803 -0.00868701 0)
(23.8407 -0.00954267 0)
(23.9003 -0.0107806 0)
(23.969 -0.0117626 0)
(24.0324 -0.0135734 0)
(24.1132 -0.0146317 0)
(24.1781 -0.0176034 0)
(24.2794 -0.0185374 0)
(24.3395 -0.0241223 0)
(24.4786 -0.0242238 0)
(24.5215 -0.0363098 0)
(24.7354 -0.0349863 0)
(24.7413 -0.0650541 0)
(25.1066 -0.0661547 0)
(25.0602 -0.206204 0)
(25.5244 -0.0125278 0)
(26.1947 0.00607308 0)
(26.8783 0.00338558 0)
(26.8533 0.00496242 0)
(26.5723 0.00456695 0)
(26.2657 0.00375459 0)
(25.9821 0.00308822 0)
(25.7356 0.00254034 0)
(25.5301 0.00209392 0)
(25.3604 0.00174426 0)
(25.2201 0.00146884 0)
(25.1036 0.00124715 0)
(25.0068 0.00106794 0)
(24.9257 0.000920327 0)
(24.8577 0.00079986 0)
(24.8 0.000698241 0)
(24.7514 0.000612062 0)
(24.7098 0.000540387 0)
(24.6743 0.000478032 0)
(24.6438 0.000426431 0)
(24.6175 0.000380964 0)
(24.5948 0.000341488 0)
(24.5751 0.000307755 0)
(24.5579 0.000278501 0)
(24.5429 0.000252771 0)
(24.5297 0.000230073 0)
(24.5181 0.000210483 0)
(24.5078 0.000193209 0)
(24.4987 0.00017807 0)
(24.4906 0.000164459 0)
(24.4834 0.000152521 0)
(24.4769 0.000141668 0)
(24.4712 0.000132123 0)
(24.4659 0.000123132 0)
(24.4613 0.00011514 0)
(24.457 0.000107169 0)
(24.4533 9.9382e-05 0)
(24.4499 9.1683e-05 0)
(24.447 8.33476e-05 0)
(24.4444 7.41775e-05 0)
(24.4422 6.3732e-05 0)
(24.4404 5.1365e-05 0)
(24.4391 3.65378e-05 0)
(24.4383 1.84914e-05 0)
(24.438 -3.75482e-06 0)
(24.4384 -3.16466e-05 0)
(24.4395 -6.54432e-05 0)
(24.4415 -0.000107378 0)
(24.4445 -0.000158272 0)
(24.4485 -0.000220696 0)
(24.4539 -0.000297067 0)
(24.4608 -0.000387642 0)
(24.4693 -0.000497847 0)
(24.4799 -0.000628384 0)
(24.4926 -0.00078459 0)
(24.5078 -0.000968778 0)
(24.5259 -0.00118605 0)
(24.5471 -0.00144237 0)
(24.5719 -0.00174104 0)
(24.6006 -0.0020944 0)
(24.6339 -0.00250421 0)
(24.672 -0.002988 0)
(24.7159 -0.00354884 0)
(24.7576 -0.00410258 0)
(24.7936 -0.00458272 0)
(24.8317 -0.00510758 0)
(24.8719 -0.00567968 0)
(24.9145 -0.00632384 0)
(24.9595 -0.00699816 0)
(25.0066 -0.00777683 0)
(25.0564 -0.00858183 0)
(25.1081 -0.00954641 0)
(25.1632 -0.01051 0)
(25.2194 -0.0117392 0)
(25.2806 -0.0128794 0)
(25.3414 -0.0145211 0)
(25.4105 -0.0158248 0)
(25.475 -0.0182103 0)
(25.5558 -0.0196061 0)
(25.6219 -0.0234883 0)
(25.7219 -0.0247065 0)
(25.7839 -0.0318989 0)
(25.9189 -0.0321033 0)
(25.9659 -0.0472692 0)
(26.168 -0.0458033 0)
(26.1832 -0.0823847 0)
(26.5204 -0.0840647 0)
(26.4709 -0.230619 0)
(25.9651 -0.0215452 0)
(26.8736 0.00400686 0)
(27.7642 0.00224068 0)
(27.9303 0.0051656 0)
(27.7798 0.0052717 0)
(27.5494 0.00455836 0)
(27.307 0.00386985 0)
(27.0814 0.00324815 0)
(26.8856 0.0027124 0)
(26.7197 0.00227958 0)
(26.5801 0.00193188 0)
(26.4628 0.00164804 0)
(26.3644 0.00141627 0)
(26.2813 0.00122396 0)
(26.2114 0.00106605 0)
(26.1517 0.000932398 0)
(26.1012 0.000818616 0)
(26.0579 0.00072365 0)
(26.0209 0.000640927 0)
(25.989 0.000572176 0)
(25.9614 0.000511644 0)
(25.9375 0.000458998 0)
(25.9168 0.000413888 0)
(25.8987 0.000374721 0)
(25.8828 0.000340271 0)
(25.8689 0.000309858 0)
(25.8566 0.000283542 0)
(25.8458 0.00026033 0)
(25.8362 0.000239963 0)
(25.8276 0.000221659 0)
(25.82 0.000205572 0)
(25.8131 0.000190957 0)
(25.807 0.000178065 0)
(25.8015 0.000165954 0)
(25.7966 0.000155129 0)
(25.7921 0.000144403 0)
(25.7881 0.000133903 0)
(25.7845 0.000123506 0)
(25.7814 0.000112296 0)
(25.7786 9.99786e-05 0)
(25.7763 8.59555e-05 0)
(25.7744 6.93935e-05 0)
(25.773 4.95443e-05 0)
(25.7721 2.54021e-05 0)
(25.7718 -4.32055e-06 0)
(25.7721 -4.14815e-05 0)
(25.7732 -8.6713e-05 0)
(25.7751 -0.000142574 0)
(25.7781 -0.000210391 0)
(25.7822 -0.000293642 0)
(25.7877 -0.000395301 0)
(25.7946 -0.000516181 0)
(25.8034 -0.000662913 0)
(25.8141 -0.000836877 0)
(25.827 -0.00104473 0)
(25.8426 -0.00128992 0)
(25.8609 -0.00157893 0)
(25.8826 -0.00191987 0)
(25.9078 -0.00231699 0)
(25.9371 -0.00278641 0)
(25.971 -0.00333049 0)
(26.0098 -0.0039724 0)
(26.0544 -0.00471535 0)
(26.0967 -0.00544711 0)
(26.1332 -0.00608488 0)
(26.1719 -0.00677922 0)
(26.2128 -0.0075341 0)
(26.256 -0.00838185 0)
(26.3014 -0.0092711 0)
(26.3492 -0.0102934 0)
(26.3994 -0.0113511 0)
(26.4517 -0.0126121 0)
(26.507 -0.0138732 0)
(26.5638 -0.01547 0)
(26.6251 -0.0169571 0)
(26.6863 -0.0190743 0)
(26.7552 -0.0207741 0)
(26.8202 -0.0238238 0)
(26.9001 -0.0256469 0)
(26.9668 -0.0305557 0)
(27.0645 -0.0321787 0)
(27.128 -0.0411129 0)
(27.2575 -0.041638 0)
(27.3085 -0.0599665 0)
(27.4978 -0.0588254 0)
(27.5205 -0.101786 0)
(27.831 -0.104601 0)
(27.7805 -0.254542 0)
(26.3797 -0.0330869 0)
(27.4755 0.0008997 0)
(28.5272 0.000268887 0)
(28.8644 0.00487814 0)
(28.8504 0.00573995 0)
(28.7118 0.00528855 0)
(28.5258 0.00467394 0)
(28.333 0.00402645 0)
(28.1556 0.00342016 0)
(27.9996 0.00290834 0)
(27.8649 0.00248567 0)
(27.7498 0.00213381 0)
(27.6519 0.00184247 0)
(27.5684 0.0015983 0)
(27.4976 0.00139614 0)
(27.4368 0.00122417 0)
(27.385 0.00107704 0)
(27.3405 0.000953676 0)
(27.3022 0.000845989 0)
(27.2692 0.000756051 0)
(27.2406 0.000676859 0)
(27.2157 0.000607851 0)
(27.1941 0.00054854 0)
(27.1752 0.000496951 0)
(27.1586 0.000451554 0)
(27.144 0.000411448 0)
(27.1312 0.000376644 0)
(27.1198 0.000345925 0)
(27.1097 0.000318934 0)
(27.1007 0.000294683 0)
(27.0927 0.000273323 0)
(27.0854 0.00025393 0)
(27.079 0.000236771 0)
(27.0732 0.000220693 0)
(27.068 0.000206249 0)
(27.0633 0.000192021 0)
(27.0591 0.00017808 0)
(27.0553 0.000164259 0)
(27.052 0.000149421 0)
(27.0491 0.000133152 0)
(27.0466 0.000114649 0)
(27.0446 9.28579e-05 0)
(27.043 6.67681e-05 0)
(27.042 3.50652e-05 0)
(27.0416 -3.91707e-06 0)
(27.0419 -5.24915e-05 0)
(27.0429 -0.000111811 0)
(27.0448 -0.000184861 0)
(27.0478 -0.000273561 0)
(27.0518 -0.000382396 0)
(27.0573 -0.00051508 0)
(27.0643 -0.000673266 0)
(27.0731 -0.000864815 0)
(27.0839 -0.00109214 0)
(27.0969 -0.00136334 0)
(27.1126 -0.00168339 0)
(27.1311 -0.00206029 0)
(27.1529 -0.00250491 0)
(27.1784 -0.00302252 0)
(27.2078 -0.00363385 0)
(27.242 -0.00434197 0)
(27.281 -0.00517682 0)
(27.326 -0.00614199 0)
(27.3685 -0.00709005 0)
(27.4052 -0.00791945 0)
(27.4441 -0.00881994 0)
(27.4851 -0.00979651 0)
(27.5285 -0.0108902 0)
(27.574 -0.0120396 0)
(27.6219 -0.0133548 0)
(27.6721 -0.014718 0)
(27.7244 -0.0163328 0)
(27.7797 -0.0179533 0)
(27.8364 -0.0199847 0)
(27.8973 -0.0218917 0)
(27.9583 -0.0245636 0)
(28.0264 -0.0267472 0)
(28.0913 -0.0305567 0)
(28.1696 -0.03292 0)
(28.2365 -0.0389663 0)
(28.3311 -0.0411629 0)
(28.3957 -0.0519386 0)
(28.5189 -0.0530967 0)
(28.5732 -0.0745876 0)
(28.7498 -0.0743564 0)
(28.7776 -0.123244 0)
(29.0621 -0.128285 0)
(29.0131 -0.277341 0)
(26.781 -0.0476147 0)
(28.026 -0.0034346 0)
(29.2002 -0.00269665 0)
(29.6825 0.00393471 0)
(29.8002 0.00581457 0)
(29.7621 0.00581918 0)
(29.6457 0.00541389 0)
(29.4979 0.00482233 0)
(29.3485 0.00418819 0)
(29.2096 0.00361704 0)
(29.0854 0.00312635 0)
(28.9763 0.00270641 0)
(28.8818 0.00235188 0)
(28.8 0.00205053 0)
(28.7299 0.00179822 0)
(28.6691 0.00158199 0)
(28.6171 0.00139574 0)
(28.572 0.00123864 0)
(28.5331 0.00110105 0)
(28.4993 0.000985477 0)
(28.47 0.000883589 0)
(28.4445 0.000794593 0)
(28.4221 0.000717834 0)
(28.4026 0.0006509 0)
(28.3854 0.000591945 0)
(28.3703 0.000539807 0)
(28.3569 0.000494422 0)
(28.3451 0.000454319 0)
(28.3345 0.000419024 0)
(28.3251 0.000387309 0)
(28.3168 0.00035931 0)
(28.3092 0.000333903 0)
(28.3025 0.000311352 0)
(28.2964 0.000290275 0)
(28.291 0.000271243 0)
(28.286 0.000252595 0)
(28.2816 0.000234329 0)
(28.2777 0.000216192 0)
(28.2742 0.00019681 0)
(28.2711 0.000175617 0)
(28.2685 0.000151547 0)
(28.2664 0.000123289 0)
(28.2647 8.95102e-05 0)
(28.2636 4.85111e-05 0)
(28.2631 -1.83958e-06 0)
(28.2633 -6.4352e-05 0)
(28.2642 -0.00014085 0)
(28.2661 -0.000234905 0)
(28.2689 -0.000349131 0)
(28.273 -0.000489134 0)
(28.2784 -0.000659531 0)
(28.2853 -0.000863181 0)
(28.2941 -0.00110919 0)
(28.3048 -0.00140145 0)
(28.3179 -0.00174956 0)
(28.3335 -0.00216066 0)
(28.352 -0.00264418 0)
(28.3737 -0.00321462 0)
(28.3992 -0.00387827 0)
(28.4286 -0.0046615 0)
(28.4627 -0.00556811 0)
(28.5016 -0.00663623 0)
(28.5465 -0.00786999 0)
(28.5889 -0.0090788 0)
(28.6255 -0.010139 0)
(28.6642 -0.011288 0)
(28.705 -0.0125311 0)
(28.7481 -0.0139197 0)
(28.7934 -0.0153813 0)
(28.8409 -0.0170456 0)
(28.8908 -0.0187751 0)
(28.9427 -0.0208094 0)
(28.9974 -0.0228605 0)
(29.0535 -0.0254028 0)
(29.1137 -0.027814 0)
(29.1741 -0.0311294 0)
(29.241 -0.0339006 0)
(29.3052 -0.0385709 0)
(29.3815 -0.0416161 0)
(29.448 -0.0489024 0)
(29.5391 -0.0518963 0)
(29.6043 -0.0645737 0)
(29.7209 -0.0667709 0)
(29.7775 -0.0913228 0)
(29.9417 -0.0927589 0)
(29.9732 -0.146605 0)
(30.2307 -0.155493 0)
(30.1853 -0.298831 0)
(27.1795 -0.0656566 0)
(28.5441 -0.00922098 0)
(29.8095 -0.00684009 0)
(30.4095 0.00216382 0)
(30.6463 0.00532222 0)
(30.7097 0.0059922 0)
(30.6711 0.00596407 0)
(30.579 0.00554603 0)
(30.4676 0.00495707 0)
(30.3541 0.00436887 0)
(30.2467 0.00383284 0)
(30.1486 0.00335533 0)
(30.0612 0.00294089 0)
(29.9841 0.0025815 0)
(29.9168 0.00227593 0)
(29.8578 0.00201118 0)
(29.8068 0.00178106 0)
(29.7621 0.00158538 0)
(29.7234 0.00141313 0)
(29.6896 0.00126744 0)
(29.66 0.00113865 0)
(29.6342 0.00102581 0)
(29.6115 0.00092808 0)
(29.5916 0.000842567 0)
(29.5741 0.000767121 0)
(29.5586 0.000700308 0)
(29.5449 0.000641947 0)
(29.5327 0.000590293 0)
(29.5218 0.000544734 0)
(29.5121 0.00050378 0)
(29.5035 0.000467531 0)
(29.4957 0.000434644 0)
(29.4887 0.000405359 0)
(29.4824 0.00037805 0)
(29.4768 0.000353265 0)
(29.4716 0.000329093 0)
(29.4671 0.000305441 0)
(29.463 0.000281918 0)
(29.4593 0.000256893 0)
(29.4561 0.000229611 0)
(29.4534 0.000198677 0)
(29.4511 0.000162486 0)
(29.4494 0.00011931 0)
(29.4482 6.6971e-05 0)
(29.4476 2.77893e-06 0)
(29.4476 -7.6626e-05 0)
(29.4485 -0.000173892 0)
(29.4503 -0.000293378 0)
(29.4531 -0.000438531 0)