/*--------------------------------*- C++ -*----------------------------------*\
| =========                 |                                                 |
| \\      /  F ield         | OpenFOAM: The Open Source CFD Toolbox           |
|  \\    /   O peration     | Version:  2306                                  |
|   \\  /    A nd           | Website:  www.openfoam.com                      |
|    \\/     M anipulation  |                                                 |
\*---------------------------------------------------------------------------*/
FoamFile
{
    version     2.0;
    format      ascii;
    arch        "LSB;label=32;scalar=64";
    class       volVectorField;
    location    "1600";
    object      wallShearStress;
}
// * * * * * * * * * * * * * * * * * * * * * * * * * * * * * * * * * * * * * //

dimensions      [0 2 -2 0 0 0 0];

internalField   uniform (0 0 0);

boundaryField
{
    inlet
    {
        type            calculated;
        value           uniform (0 0 0);
    }
    outlet
    {
        type            calculated;
        value           uniform (0 0 0);
    }
    lowerWallStartup
    {
        type            symmetryPlane;
    }
    upperWallStartup
    {
        type            symmetryPlane;
    }
    upperWall
    {
        type            calculated;
        value           nonuniform List<vector> 
218
(
(-10.9333 0.00479749 0)
(-6.33938 0.00115042 0)
(-5.51133 0.000259976 0)
(-5.03232 0.000144465 0)
(-4.73966 8.86346e-05 0)
(-4.55182 5.91102e-05 0)
(-4.42179 4.23798e-05 0)
(-4.32715 3.19013e-05 0)
(-4.25622 2.48345e-05 0)
(-4.20165 1.98575e-05 0)
(-4.15877 1.62049e-05 0)
(-4.12454 1.34429e-05 0)
(-4.09684 1.1284e-05 0)
(-4.07425 9.58884e-06 0)
(-4.05554 8.21221e-06 0)
(-4.04008 7.08088e-06 0)
(-4.02709 6.14997e-06 0)
(-4.01623 5.37924e-06 0)
(-4.00696 4.73081e-06 0)
(-3.99915 4.16723e-06 0)
(-3.99244 3.71623e-06 0)
(-3.98668 3.30698e-06 0)
(-3.98172 2.96572e-06 0)
(-3.97743 2.65615e-06 0)
(-3.9737 2.41767e-06 0)
(-3.97043 2.18347e-06 0)
(-3.96757 1.99951e-06 0)
(-3.96504 1.81703e-06 0)
(-3.96282 1.68279e-06 0)
(-3.96083 1.54235e-06 0)
(-3.95906 1.44545e-06 0)
(-3.95747 1.33232e-06 0)
(-3.95603 1.26213e-06 0)
(-3.95473 1.17566e-06 0)
(-3.95354 1.12357e-06 0)
(-3.95245 1.06484e-06 0)
(-3.95144 1.0274e-06 0)
(-3.95049 9.99405e-07 0)
(-3.9496 9.7308e-07 0)
(-3.94874 9.82075e-07 0)
(-3.94791 9.67538e-07 0)
(-3.94708 1.02386e-06 0)
(-3.94624 1.02976e-06 0)
(-3.94538 1.14336e-06 0)
(-3.94448 1.18622e-06 0)
(-3.9435 1.38911e-06 0)
(-3.94243 1.48172e-06 0)
(-3.94124 1.79105e-06 0)
(-3.93991 1.9772e-06 0)
(-3.93838 2.41235e-06 0)
(-3.93667 2.72816e-06 0)
(-3.93467 3.43901e-06 0)
(-3.93234 3.91313e-06 0)
(-3.92971 4.7339e-06 0)
(-3.92669 5.40924e-06 0)
(-3.9233 6.49194e-06 0)
(-3.91942 7.51351e-06 0)
(-3.91508 8.88228e-06 0)
(-3.91017 1.03223e-05 0)
(-3.90472 1.1935e-05 0)
(-3.89864 1.37076e-05 0)
(-3.892 1.56912e-05 0)
(-3.88462 1.77771e-05 0)
(-3.87801 1.96879e-05 0)
(-3.87253 2.08792e-05 0)
(-3.86705 2.26086e-05 0)
(-3.86139 2.42532e-05 0)
(-3.85572 2.58134e-05 0)
(-3.84994 2.75089e-05 0)
(-3.84419 2.87887e-05 0)
(-3.83838 3.0644e-05 0)
(-3.83264 3.15869e-05 0)
(-3.82688 3.34138e-05 0)
(-3.82122 3.43932e-05 0)
(-3.81558 3.59441e-05 0)
(-3.81006 3.7212e-05 0)
(-3.80461 3.83075e-05 0)
(-3.79927 3.97745e-05 0)
(-3.79406 4.08412e-05 0)
(-3.78891 4.17588e-05 0)
(-3.78394 4.33733e-05 0)
(-3.77911 4.29839e-05 0)
(-3.77428 4.5986e-05 0)
(-3.77002 4.40795e-05 0)
(-3.76497 4.78872e-05 0)
(-3.76194 4.8175e-05 0)
(-3.7553 4.72856e-05 0)
(-3.75554 9.57503e-05 0)
(-3.74739 0.000127227 -1.54867e-20)
(-3.74218 0.00013453 0)
(-3.73631 0.000136678 1.53778e-20)
(-3.7326 0.000143096 -1.53228e-20)
(-3.72603 0.00014182 0)
(-3.72234 0.00014057 -1.52107e-20)
(-3.71579 0.000140712 0)
(-3.71211 0.000141005 0)
(-3.70539 0.000141241 0)
(-3.70167 0.000141004 0)
(-3.69481 0.00014119 1.49088e-20)
(-3.69105 0.000141286 0)
(-3.68405 0.000141055 -1.47783e-20)
(-3.68023 0.000141552 0)
(-3.67311 0.000141151 -1.46427e-20)
(-3.66924 0.000141521 1.45715e-20)
(-3.66198 0.000141242 0)
(-3.65807 0.000141146 1.44281e-20)
(-3.6507 0.000141338 0)
(-3.64673 0.000140553 -1.42793e-20)
(-3.63925 0.00014126 0)
(-3.63522 0.00014031 0)
(-3.62762 0.000141102 0)
(-3.62352 0.000140098 0)
(-3.61581 0.000140839 0)
(-3.61167 0.00013971 0)
(-3.60387 0.000140434 0)
(-3.59967 0.000139919 1.36335e-20)
(-3.59177 0.000139824 -1.35486e-20)
(-3.58751 0.000139631 1.34597e-20)
(-3.57952 0.000139299 -1.33725e-20)
(-3.57523 0.000138882 0)
(-3.56717 0.000138431 -1.31917e-20)
(-3.56286 0.000138113 0)
(-3.55473 0.000137662 -1.30063e-20)
(-3.5504 0.000137259 0)
(-3.54222 0.000137243 0)
(-3.53786 0.000135993 -1.27187e-20)
(-3.52963 0.000136411 0)
(-3.52527 0.000134952 -1.25227e-20)
(-3.517 0.000135364 0)
(-3.51264 0.000133975 -1.23227e-20)
(-3.50432 0.000134456 0)
(-3.49996 0.000133035 -1.2119e-20)
(-3.4916 0.000133335 0)
(-3.48725 0.000132419 0)
(-3.47887 0.000131836 -1.18081e-20)
(-3.47453 0.000131246 0)
(-3.46614 0.000130531 -1.15959e-20)
(-3.46183 0.000129858 0)
(-3.45345 0.000128999 -1.13808e-20)
(-3.44918 0.000128401 0)
(-3.44081 0.000127534 -1.11629e-20)
(-3.43658 0.000126797 0)
(-3.42822 0.000126474 0)
(-3.42405 0.000124959 -1.08302e-20)
(-3.4157 0.00012511 0)
(-3.41158 0.000123413 -1.06066e-20)
(-3.40325 0.000123457 0)
(-3.39919 0.000121762 -1.03811e-20)
(-3.39091 0.000121809 0)
(-3.38692 0.000120141 0)
(-3.37867 0.000120014 -1.00411e-20)
(-3.37476 0.00011894 -9.9256e-21)
(-3.36657 0.000117852 0)
(-3.36274 0.000117273 -9.69612e-21)
(-3.3546 0.000116074 0)
(-3.35085 0.000115426 -9.46586e-21)
(-3.34278 0.000114129 0)
(-3.33913 0.000113526 -9.23507e-21)
(-3.33114 0.000112248 0)
(-3.3276 0.000111463 -9.00399e-21)
(-3.31968 0.000110706 -8.88943e-21)
(-3.31625 0.000109093 0)
(-3.30841 0.000108896 -8.65841e-21)
(-3.30508 0.000107265 0)
(-3.29733 0.000107065 -8.42778e-21)
(-3.29411 0.000105388 0)
(-3.28643 0.000105067 0)
(-3.28333 0.000103811 -8.08215e-21)
(-3.27576 0.000102575 7.9686e-21)
(-3.27277 0.000101808 -7.85353e-21)
(-3.26531 0.000100511 7.74052e-21)
(-3.26244 9.97516e-05 0)
(-3.2551 9.8518e-05 0)
(-3.25235 9.77046e-05 0)
(-3.24512 9.64105e-05 7.28851e-21)
(-3.2425 9.55522e-05 0)
(-3.23537 9.49361e-05 0)
(-3.2329 9.29752e-05 0)
(-3.22585 9.31664e-05 0)
(-3.22356 9.07269e-05 0)
(-3.21654 9.15225e-05 0)
(-3.21452 8.79104e-05 0)
(-3.20741 9.0719e-05 -6.40704e-21)
(-3.20583 8.80142e-05 6.29752e-21)
(-3.19774 6.68419e-05 0)
(-3.1969 6.39987e-05 0)
(-3.19419 6.3076e-05 -1.58595e-21)
(-3.19039 5.93867e-05 1.35891e-21)
(-3.18625 5.89842e-05 2.32183e-21)
(-3.1815 6.01344e-05 1.97672e-21)
(-3.17606 6.0278e-05 3.35213e-21)
(-3.16997 6.0614e-05 2.82868e-21)
(-3.16315 6.17523e-05 2.37349e-21)
(-3.15562 6.30169e-05 0)
(-3.14729 6.44608e-05 3.27078e-21)
(-3.13826 6.77103e-05 0)
(-3.12846 7.05332e-05 -4.33252e-21)
(-3.11815 7.59264e-05 0)
(-3.10714 8.09712e-05 0)
(-3.096 8.80046e-05 0)
(-3.08471 9.67273e-05 0)
(-3.07358 0.000107147 0)
(-3.06324 0.000116906 0)
(-3.0539 0.00012824 3.52407e-21)
(-3.04595 0.000137498 0)
(-3.03961 0.000145018 -8.72183e-22)
(-3.03597 0.000147139 -9.87916e-22)
(-3.03312 0.000146639 2.12591e-21)
(-3.03441 0.000131002 0)
(-3.03439 0.000117506 5.94163e-21)
(-3.04012 6.68713e-05 0)
(-3.0414 5.48434e-05 0)
(-3.05356 -9.76802e-05 0)
(-3.05274 -3.08228e-05 0)
(-3.07733 -0.000581146 0)
(-3.06442 3.18458e-05 0)
(-3.1397 -0.00292811 -3.00333e-20)
(-2.91348 -0.00103806 0)
)
;
    }
    lowerWall
    {
        type            calculated;
        value           nonuniform List<vector> 
266
(
(-11.0594 -0.00475309 0)
(-6.39117 -0.00122241 0)
(-5.55438 -0.000275285 0)
(-5.07042 -0.000153299 0)
(-4.7726 -9.45449e-05 0)
(-4.58061 -6.32427e-05 0)
(-4.44742 -4.54331e-05 0)
(-4.35027 -3.42552e-05 0)
(-4.27738 -2.67018e-05 0)
(-4.22122 -2.13716e-05 0)
(-4.17706 -1.74656e-05 0)
(-4.14173 -1.45004e-05 0)
(-4.11317 -1.22022e-05 0)
(-4.08973 -1.03678e-05 0)
(-4.07046 -8.91476e-06 0)
(-4.05427 -7.70112e-06 0)
(-4.04087 -6.69592e-06 0)
(-4.02944 -5.8753e-06 0)
(-4.01985 -5.1629e-06 0)
(-4.01162 -4.59256e-06 0)
(-4.00457 -4.07906e-06 0)
(-3.99852 -3.64152e-06 0)
(-3.99329 -3.27729e-06 0)
(-3.98874 -2.95877e-06 0)
(-3.98478 -2.67751e-06 0)
(-3.98132 -2.43227e-06 0)
(-3.97828 -2.22479e-06 0)
(-3.97559 -2.04081e-06 0)
(-3.97321 -1.88136e-06 0)
(-3.97108 -1.73674e-06 0)
(-3.9692 -1.6121e-06 0)
(-3.9675 -1.49847e-06 0)
(-3.96599 -1.40218e-06 0)
(-3.9646 -1.30956e-06 0)
(-3.96338 -1.23409e-06 0)
(-3.96224 -1.15334e-06 0)
(-3.96125 -1.08163e-06 0)
(-3.96032 -1.01431e-06 0)
(-3.95953 -9.41478e-07 0)
(-3.95879 -8.66735e-07 0)
(-3.95818 -7.86579e-07 0)
(-3.95763 -6.92688e-07 0)
(-3.95722 -5.87449e-07 0)
(-3.95689 -4.61559e-07 0)
(-3.95671 -3.06671e-07 0)
(-3.95665 -1.22351e-07 0)
(-3.95677 9.83989e-08 0)
(-3.95704 4.13226e-07 0)
(-3.95758 7.48933e-07 0)
(-3.9583 1.11784e-06 0)
(-3.95933 1.62536e-06 0)
(-3.96066 2.21525e-06 0)
(-3.96236 2.93333e-06 0)
(-3.96447 3.76949e-06 0)
(-3.96704 4.78688e-06 0)
(-3.97016 5.96778e-06 0)
(-3.97384 7.34945e-06 0)
(-3.97826 8.98129e-06 0)
(-3.98337 1.08316e-05 0)
(-3.9894 1.30647e-05 0)
(-3.99631 1.56136e-05 0)
(-4.00438 1.87215e-05 0)
(-4.0136 2.25085e-05 0)
(-4.02255 2.59173e-05 0)
(-4.03026 2.7478e-05 0)
(-4.03855 3.06348e-05 0)
(-4.04725 3.32811e-05 0)
(-4.05665 3.71649e-05 0)
(-4.06647 4.06789e-05 0)
(-4.07697 4.57794e-05 0)
(-4.08797 5.08929e-05 0)
(-4.09966 5.80298e-05 0)
(-4.11193 6.5987e-05 0)
(-4.12496 7.52698e-05 0)
(-4.13879 8.73803e-05 0)
(-4.15341 9.74469e-05 0)
(-4.16938 0.000115205 0)
(-4.18571 0.000125187 0)
(-4.20481 0.000156299 0)
(-4.22274 0.000167315 0)
(-4.24704 0.000229599 0)
(-4.26552 0.000249612 0)
(-4.30142 0.00036295 0)
(-4.31443 0.000373589 0)
(-4.37869 0.000934709 0)
(-4.39392 0.000237285 0)
(-4.52309 0.00244111 0)
(-4.32723 0.0944188 0)
(0.534957 -4.06629 0)
(-0.0165732 -0.00167319 0)
(-0.011664 -0.000292369 1.18027e-23)
(-0.00688928 0.000613808 -9.8654e-24)
(-0.00218363 0.000927694 -0)
(-0.00335874 0.00115248 0)
(-0.00406537 0.00131277 0)
(-0.00423505 0.00143182 0)
(-0.00407764 0.00150512 0)
(-0.00383815 0.00154805 -1.74071e-22)
(-0.00355993 0.00157403 1.92512e-22)
(-0.00324849 0.0015914 -4.33601e-22)
(-0.00290565 0.00160431 5.36848e-22)
(-0.00253464 0.00161399 -0)
(-0.00214144 0.00162002 1.80401e-21)
(-0.00173595 0.00162153 -2.50242e-21)
(-0.00133093 0.00161851 -0)
(-0.00093618 0.00161212 0)
(-0.000545145 0.00160079 -0)
(-0.000112811 0.00156404 5.17253e-20)
(0.000467092 0.00142426 -8.67098e-20)
(0.00137315 0.00098362 3.07461e-19)
(0.00287745 -0.00015176 -5.82e-19)
(0.00554619 -0.00319511 0)
(0.00778658 -0.00914505 2.47409e-18)
(0.00853321 -0.014893 -1.94117e-18)
(0.0090062 -0.0200071 0)
(0.00935334 -0.0244824 0)
(0.00965603 -0.0284218 0)
(0.00980361 -0.0315745 0)
(0.00980333 -0.034082 0)
(0.00954465 -0.0362211 0)
(0.00868005 -0.0383048 -1.11487e-18)
(0.00732188 -0.0406723 -2.27775e-22)
(0.00269659 -0.049461 1.11138e-18)
(-0.00867614 -0.0526546 0)
(-0.0128096 -0.0372428 0)
(-0.00913435 -0.0244422 0)
(-0.00611788 -0.021808 0)
(-0.00270085 -0.0218237 -0)
(0.00239677 -0.0124389 3.82205e-19)
(0.0075338 0.0124827 -3.67675e-19)
(0.010137 0.0280285 0)
(0.00828707 -0.0238133 0)
(-0.0151132 -0.275394 0)
(-0.0876881 -0.71092 -8.63008e-20)
(-0.190134 -1.07036 7.46865e-20)
(-0.285955 -1.26288 0)
(-0.270547 -0.123907 0)
(0.488035 -0.0092201 -3.79089e-23)
(-0.0108264 -0.0258113 0)
(-0.000726453 2.73892e-05 -3.07774e-22)
(-0.00978298 -3.38765e-05 -0)
(-0.0117336 3.74595e-05 0)
(-0.00469099 6.39505e-05 0)
(0.00552159 7.40005e-05 0)
(0.016016 8.99838e-05 0)
(0.0285461 0.000109183 -3.48401e-22)
(0.0432823 0.000122766 0)
(0.0606738 0.00013569 0)
(0.0810426 0.00014806 0)
(0.103825 0.000160528 0)
(0.125956 -0.00132232 0)
(3.17801 -0.0469204 0)
(0.182933 -0.000879112 0)
(0.216188 -0.000195701 0)
(0.254806 -0.000233396 0)
(0.298069 -0.000261202 0)
(0.345646 -0.000285452 2.39206e-22)
(0.397849 -0.00030479 0)
(0.45475 -0.00032891 2.39337e-22)
(0.516783 -0.000357989 0)
(0.584166 -0.000393554 2.39455e-22)
(0.656886 -0.000429233 0)
(0.734581 -0.000461148 2.39431e-22)
(0.816716 -0.000486003 0)
(0.902742 -0.000506029 0)
(0.992165 -0.000523456 0)
(1.08456 -0.000541474 2.38181e-22)
(1.17943 -0.00056112 2.37478e-22)
(1.27616 -0.000579934 2.3657e-22)
(1.37399 -0.000597251 2.35427e-22)
(1.47205 -0.000609377 2.34024e-22)
(1.56944 -0.000617393 0)
(1.66533 -0.000620207 0)
(1.75896 -0.000620662 2.28041e-22)
(1.84963 -0.000618279 2.25411e-22)
(1.93673 -0.000615719 2.2245e-22)
(2.01961 -0.00061039 2.19153e-22)
(2.0975 -0.000602906 2.15519e-22)
(2.16935 -0.0005916 2.11553e-22)
(2.23472 -0.000581867 0)
(2.29362 -0.000570749 2.02629e-22)
(2.34554 -0.000557575 1.97683e-22)
(2.39006 -0.000541 1.92434e-22)
(2.42682 -0.000522252 1.869e-22)
(2.45554 -0.000500302 1.81105e-22)
(2.47596 -0.000476861 1.75071e-22)
(2.48791 -0.000450968 0)
(2.49126 -0.000425036 1.62393e-22)
(2.48591 -0.000397575 1.55801e-22)
(2.4718 -0.000371337 1.49072e-22)
(2.44886 -0.000344091 1.42231e-22)
(2.41708 -0.000317874 1.35298e-22)
(2.37635 -0.00029004 1.28296e-22)
(2.32667 -0.000261752 0)
(2.26789 -0.000230072 1.14163e-22)
(2.19994 -0.000194833 0)
(2.12269 -0.000154084 0)
(2.03602 -0.000105985 0)
(1.93984 -4.97713e-05 -8.59684e-23)
(1.83394 1.74934e-05 -0)
(1.71834 9.62879e-05 0)
(1.59236 0.000191527 0)
(1.45641 0.000301286 0)
(1.30889 0.000433677 0)
(1.15158 0.000587562 0)
(0.978508 0.000784399 -4.08624e-23)
(0.795117 0.0041975 -0)
(0.755383 0.00764451 0)
(0.507086 -0.00587016 0)
(0.23062 -0.00604245 -4.04839e-23)
(-0.0136078 -0.000218856 -0)
(-0.248928 0.00166266 0)
(-0.440357 0.00120374 0)
(-0.621781 0.00100794 0)
(-0.790347 0.000840525 0)
(-0.949009 0.000698872 -0)
(-1.0974 0.000580582 2.64318e-24)
(-1.23699 0.000481913 0)
(-1.36792 0.000400093 -0)
(-1.49126 0.00033329 1.09652e-23)
(-1.60704 0.000277295 -0)
(-1.71644 0.000233182 1.58623e-23)
(-1.81882 0.000194415 0)
(-1.91628 0.000167303 0)
(-2.00656 0.00013833 -2.21732e-23)
(-2.09399 0.000125562 -0)
(-2.17276 9.83659e-05 2.57119e-23)
(-2.2524 0.000102193 0)
(-2.31919 6.53152e-05 -0)
(-2.39426 9.45963e-05 0)
(-2.4468 3.26863e-05 0)
(-2.5223 9.46972e-05 -0)
(-2.55818 -1.2414e-06 3.31569e-23)
(-2.60913 0.000206315 0)
(-2.66755 7.62053e-05 -0)
(-2.706 0.000131213 4.25787e-21)
(-2.76482 9.09387e-05 7.52674e-21)
(-2.81504 9.0779e-05 0)
(-2.87413 7.55305e-05 0)
(-2.93084 6.71348e-05 0)
(-2.99021 5.73428e-05 -0)
(-3.04748 4.96973e-05 0)
(-3.10312 4.3917e-05 -1.42735e-20)
(-3.15413 4.08497e-05 0)
(-3.19979 4.11111e-05 -2.12921e-20)
(-3.2374 4.52529e-05 1.81478e-20)
(-3.26694 5.31551e-05 0)
(-3.28522 6.51614e-05 0)
(-3.29478 7.99767e-05 -0)
(-3.2909 9.73227e-05 3.44882e-20)
(-3.28107 0.00011495 -2.78614e-20)
(-3.25746 0.000131585 0)
(-3.2355 0.000145683 3.51123e-20)
(-3.20044 0.000154549 0)
(-3.17908 0.000162521 4.2811e-20)
(-3.14401 0.000161396 0)
(-3.13687 0.000170984 0)
(-3.111 0.000163188 0)
(-3.12552 0.000192752 0)
(-3.11097 0.000177205 0)
(-3.14469 0.000249488 8.50021e-20)
(-3.136 0.000204174 -4.29337e-20)
(-3.17552 0.000348834 0)
(-3.17483 0.000231644 9.91554e-21)
(-3.17609 0.000464665 0)
(-3.24441 9.11674e-05 0)
)
;
    }
    front
    {
        type            empty;
    }
    back
    {
        type            empty;
    }
}


// ************************************************************************* //
