0.0508 	-125.733 	46.46 	-0.209499 	0 	-0.177547 	-0.595257 	0 	0.177691 	0 	-0.000144125
