/*--------------------------------*- C++ -*----------------------------------*\
| =========                 |                                                 |
| \\      /  F ield         | OpenFOAM: The Open Source CFD Toolbox           |
|  \\    /   O peration     | Version:  2306                                  |
|   \\  /    A nd           | Website:  www.openfoam.com                      |
|    \\/     M anipulation  |                                                 |
\*---------------------------------------------------------------------------*/
FoamFile
{
    version     2.0;
    format      ascii;
    arch        "LSB;label=32;scalar=64";
    class       volScalarField;
    location    "0.5";
    object      p;
}
// * * * * * * * * * * * * * * * * * * * * * * * * * * * * * * * * * * * * * //

dimensions      [0 2 -2 0 0 0 0];

internalField   nonuniform List<scalar> 
400
(
4.58763e-06
-0.00872963
-0.019484
-0.0277312
-0.030795
-0.0274816
-0.0177008
-0.00214596
0.0179501
0.040988
0.0651336
0.0884385
0.10897
0.124965
0.135026
0.138361
0.135074
0.126498
0.115519
0.106797
0.00866472
-0.000320744
-0.00874563
-0.0144136
-0.0160284
-0.0127559
-0.00448568
0.00828708
0.024633
0.0433117
0.0628774
0.0817839
0.0985022
0.111655
0.120174
0.123476
0.12168
0.115729
0.107109
0.0981657
0.020045
0.00760802
-0.00149483
-0.00670534
-0.00800998
-0.00496494
0.00242426
0.013684
0.0280113
0.044355
0.0614878
0.0780889
0.0928412
0.104544
0.112238
0.115346
0.113856
0.108318
0.0989637
0.0865577
0.0303918
0.0132249
0.00192895
-0.00400041
-0.00560743
-0.00279501
0.00426137
0.0150103
0.0286604
0.0442298
0.060586
0.076503
0.0907366
0.102116
0.109643
0.112618
0.11083
0.104486
0.0928067
0.0755822
0.0372074
0.0150708
0.00115914
-0.00581152
-0.0077917
-0.00498811
0.00224338
0.0132346
0.0271519
0.0430221
0.059742
0.0761101
0.0908792
0.102827
0.110838
0.114019
0.111926
0.104453
0.0899609
0.0675641
0.0386725
0.0115102
-0.00511398
-0.0131099
-0.0152508
-0.0120245
-0.00397557
0.00808465
0.0232446
0.0404984
0.0587271
0.0767046
0.0931255
0.106654
0.115992
0.119988
0.117925
0.109379
0.0919129
0.0641286
0.0332155
0.000936196
-0.0183386
-0.0270983
-0.0289416
-0.0246501
-0.0149782
-0.000905038
0.0165546
0.0363378
0.0572851
0.0781173
0.0974346
0.113742
0.125494
0.131217
0.129845
0.120587
0.100157
0.0666846
0.0191926
-0.0183777
-0.0401043
-0.0491123
-0.0499306
-0.0436946
-0.0314097
-0.0142507
0.0066509
0.0301708
0.0551093
0.0801318
0.103734
0.124231
0.139781
0.148498
0.148868
0.139604
0.116393
0.0768047
-0.00536176
-0.0484868
-0.0722982
-0.0807267
-0.0794599
-0.070107
-0.0539924
-0.0325169
-0.00692983
0.0216032
0.0518724
0.0825197
0.111957
0.13831
0.159395
0.172822
0.176476
0.168364
0.142796
0.0965493
-0.0429687
-0.091981
-0.117228
-0.123787
-0.118909
-0.104873
-0.0834212
-0.0562102
-0.0245877
0.010291
0.0472759
0.0850602
0.122039
0.156187
0.184965
0.205383
0.214529
0.209382
0.182293
0.128797
-0.0970206
-0.152257
-0.177757
-0.180407
-0.169689
-0.148855
-0.12018
-0.0855978
-0.0464987
-0.00393035
0.0411378
0.0875825
0.133911
0.178052
0.217154
0.247555
0.265327
0.265961
0.238933
0.177689
-0.172335
-0.233939
-0.257479
-0.252917
-0.233059
-0.202534
-0.16427
-0.120449
-0.0723867
-0.0208611
0.0335269
0.0900417
0.147516
0.204034
0.256578
0.300833
0.331648
0.342439
0.318411
0.24935
-0.276248
-0.343572
-0.360901
-0.343708
-0.309784
-0.265614
-0.214821
-0.159689
-0.101237
-0.0397117
0.0249223
0.092605
0.162809
0.234113
0.303654
0.366667
0.416706
0.444466
0.42888
0.353207
-0.420931
-0.490759
-0.493542
-0.454784
-0.399515
-0.336409
-0.269567
-0.200994
-0.130991
-0.0588937
0.016336
0.0956828
0.179681
0.267911
0.35825
0.446039
0.523838
0.579182
0.582218
0.504635
-0.628252
-0.689878
-0.661523
-0.586623
-0.499599
-0.410875
-0.32417
-0.240362
-0.158328
-0.0759409
0.00927804
0.0997815
0.197666
0.30419
0.418908
0.538428
0.65545
0.754836
0.795786
0.730207
-0.938382
-0.96177
-0.870136
-0.736271
-0.603502
-0.481577
-0.37171
-0.271998
-0.178781
-0.0877699
0.00541917
0.105102
0.215433
0.340138
0.481772
0.640282
0.811155
0.979255
1.09376
1.07617
-1.4252
-1.33401
-1.12118
-0.895869
-0.700285
-0.537862
-0.403354
-0.289235
-0.187718
-0.091582
0.00582558
0.110926
0.230284
0.37087
0.539941
0.744001
0.98596
1.25682
1.50676
1.62274
-2.25654
-1.84022
-1.39827
-1.0419
-0.768651
-0.563161
-0.407617
-0.284866
-0.1812
-0.0859886
0.00964005
0.114006
0.235999
0.386252
0.578469
0.829915
1.15781
1.5731
2.0729
2.5462
-3.8782
-2.4973
-1.59597
-1.07867
-0.741942
-0.514938
-0.359008
-0.244811
-0.152831
-0.0701908
0.0128111
0.104963
0.21601
0.358911
0.553412
0.830058
1.23011
1.82417
2.81455
4.29844
-6.63774
-3.13689
-1.50293
-0.86574
-0.542306
-0.353951
-0.239036
-0.161371
-0.100716
-0.0457666
0.0110696
0.0764058
0.15779
0.266351
0.422034
0.662493
1.05683
1.79115
3.53923
7.15537
)
;

boundaryField
{
    movingWall
    {
        type            zeroGradient;
    }
    fixedWalls
    {
        type            zeroGradient;
    }
    frontAndBack
    {
        type            empty;
    }
}


// ************************************************************************* //
