/*--------------------------------*- C++ -*----------------------------------*\
| =========                 |                                                 |
| \\      /  F ield         | OpenFOAM: The Open Source CFD Toolbox           |
|  \\    /   O peration     | Version:  2306                                  |
|   \\  /    A nd           | Website:  www.openfoam.com                      |
|    \\/     M anipulation  |                                                 |
\*---------------------------------------------------------------------------*/
FoamFile
{
    version     2.0;
    format      ascii;
    arch        "LSB;label=32;scalar=64";
    class       surfaceScalarField;
    location    "0.5";
    object      phi;
}
// * * * * * * * * * * * * * * * * * * * * * * * * * * * * * * * * * * * * * //

dimensions      [0 3 -1 0 0 0 0];

oriented        oriented;

internalField   nonuniform List<scalar> 
760
(
1.44435e-08
-1.44699e-08
-2.16689e-08
3.61124e-08
-1.13678e-07
9.2009e-08
-2.45238e-07
1.31561e-07
-3.96435e-07
1.51198e-07
-5.48294e-07
1.51859e-07
-6.84449e-07
1.36155e-07
-7.91846e-07
1.07396e-07
-8.60922e-07
6.9076e-08
-8.85661e-07
2.47384e-08
-8.63668e-07
-2.19923e-08
-7.96337e-07
-6.73304e-08
-6.89055e-07
-1.07281e-07
-5.51376e-07
-1.37679e-07
-3.9701e-07
-1.54367e-07
-2.43418e-07
-1.53593e-07
-1.1066e-07
-1.32758e-07
-1.91415e-08
-9.15178e-08
1.54134e-08
-3.45543e-08
1.54139e-08
-3.37113e-08
1.92415e-08
-1.79294e-07
1.81695e-07
-4.32864e-07
3.45579e-07
-7.63973e-07
4.62669e-07
-1.13286e-06
5.20089e-07
-1.49898e-06
5.17974e-07
-1.82566e-06
4.62839e-07
-2.0827e-06
3.64433e-07
-2.24756e-06
2.33937e-07
-2.30604e-06
8.32127e-08
-2.25265e-06
-7.53741e-08
-2.09106e-06
-2.28925e-07
-1.8343e-06
-3.64039e-07
-1.50487e-06
-4.67111e-07
-1.13413e-06
-5.25101e-07
-7.60718e-07
-5.27009e-07
-4.27153e-07
-4.66324e-07
-1.74181e-07
-3.4449e-07
-3.14354e-08
-1.773e-07
-1.60209e-08
-9.15153e-08
1.10757e-07
-3.55561e-07
4.45741e-07
-7.63212e-07
7.53229e-07
-1.26816e-06
9.67611e-07
-1.81589e-06
1.06783e-06
-2.35163e-06
1.05371e-06
-2.82569e-06
9.369e-07
-3.19685e-06
7.35589e-07
-3.43421e-06
4.71296e-07
-3.51826e-06
1.67263e-07
-3.44153e-06
-1.52104e-07
-3.20908e-06
-4.61373e-07
-2.83884e-06
-7.34283e-07
-2.3615e-06
-9.44445e-07
-1.81967e-06
-1.06694e-06
-1.26551e-06
-1.08116e-06
-7.5654e-07
-9.75298e-07
-3.48888e-07
-7.52143e-07
-8.82575e-08
-4.3793e-07
-1.04278e-07
-1.44325e-07
2.55082e-07
-5.23939e-07
8.25356e-07
-1.08066e-06
1.30995e-06
-1.74822e-06
1.63518e-06
-2.4572e-06
1.7768e-06
-3.14099e-06
1.7375e-06
-3.74051e-06
1.53643e-06
-4.20728e-06
1.20235e-06
-4.50512e-06
7.69141e-07
-4.61122e-06
2.73359e-07
-4.5167e-06
-2.46626e-07
-4.22719e-06
-7.50881e-07
-3.76327e-06
-1.19821e-06
-3.16053e-06
-1.54718e-06
-2.46893e-06
-1.75854e-06
-1.75063e-06
-1.79947e-06
-1.07593e-06
-1.64999e-06
-5.17071e-07
-1.31101e-06
-1.40399e-07
-8.14603e-07
-2.44677e-07
-1.9271e-07
4.47791e-07
-6.84006e-07
1.31665e-06
-1.38625e-06
2.01219e-06
-2.21081e-06
2.45974e-06
-3.07221e-06
2.63821e-06
-3.89272e-06
2.55801e-06
-4.60577e-06
2.24947e-06
-5.15795e-06
1.75454e-06
-5.51001e-06
1.1212e-06
-5.63719e-06
4.00541e-07
-5.52957e-06
-3.54253e-07
-5.19251e-06
-1.08794e-06
-4.64739e-06
-1.74333e-06
-3.93222e-06
-2.26235e-06
-3.10175e-06
-2.58901e-06
-2.22635e-06
-2.67486e-06
-1.38895e-06
-2.48739e-06
-6.79688e-07
-2.02027e-06
-1.88821e-07
-1.30547e-06
-4.33499e-07
-2.39347e-07
6.87138e-07
-8.40965e-07
1.91827e-06
-1.68753e-06
2.85876e-06
-2.66633e-06
3.43854e-06
-3.67482e-06
3.6467e-06
-4.62449e-06
3.50768e-06
-5.44273e-06
3.06771e-06
-6.07325e-06
2.38506e-06
-6.47552e-06
1.52347e-06
-6.62408e-06
5.49105e-07
-6.50819e-06
-4.70148e-07
-6.13211e-06
-1.46401e-06
-5.51624e-06
-2.3592e-06
-4.69864e-06
-3.07995e-06
-3.73662e-06
-3.55103e-06
-2.70732e-06
-3.70416e-06
-1.7064e-06
-3.48831e-06
-8.43864e-07
-2.88281e-06
-2.36848e-07
-1.91249e-06
-6.70347e-07
-2.86968e-07
9.74105e-07
-1.00093e-06
2.63223e-06
-1.99281e-06
3.85064e-06
-3.12381e-06
4.56953e-06
-4.27362e-06
4.79652e-06
-5.34376e-06
4.57782e-06
-6.25754e-06
3.98149e-06
-6.95813e-06
3.08565e-06
-7.40594e-06
1.97128e-06
-7.57622e-06
7.19395e-07
-7.45776e-06
-5.88613e-07
-7.05283e-06
-1.86895e-06
-6.3788e-06
-3.03322e-06
-5.47102e-06
-3.98773e-06
-4.38643e-06
-4.63562e-06
-3.20682e-06
-4.88378e-06
-2.04011e-06
-4.65502e-06
-1.01793e-06
-3.90498e-06
-2.88006e-07
-2.64241e-06
-9.58354e-07
-3.3809e-07
1.31219e-06
-1.1696e-06
3.46374e-06
-2.3089e-06
4.98994e-06
-3.58823e-06
5.84887e-06
-4.86925e-06
6.07753e-06
-6.04535e-06
5.75393e-06
-7.03893e-06
4.97506e-06
-7.79612e-06
3.84283e-06
-8.28126e-06
2.45643e-06
-8.47237e-06
9.10498e-07
-8.35832e-06
-7.02657e-07
-7.93849e-06
-2.28877e-06
-7.22478e-06
-3.74694e-06
-6.2461e-06
-4.96641e-06
-5.05474e-06
-5.82698e-06
-3.73336e-06
-6.20516e-06
-2.40023e-06
-5.98815e-06
-1.20991e-06
-5.0953e-06
-3.45697e-07
-3.50662e-06
-1.30405e-06
-3.95187e-07
1.70738e-06
-1.35217e-06
4.42073e-06
-2.64031e-06
6.27808e-06
-4.05885e-06
7.26741e-06
-5.45191e-06
7.47059e-06
-6.70847e-06
7.01049e-06
-7.75507e-06
6.02166e-06
-8.54595e-06
4.63372e-06
-9.05371e-06
2.96419e-06
-9.26191e-06
1.1187e-06
-9.16067e-06
-8.03901e-07
-8.74553e-06
-2.70391e-06
-8.01998e-06
-4.47249e-06
-7.00161e-06
-5.98478e-06
-5.73183e-06
-7.09676e-06
-4.28777e-06
-7.64922e-06
-2.79366e-06
-7.48226e-06
-1.42705e-06
-6.46191e-06
-4.13316e-07
-4.52036e-06
-1.71737e-06
-4.61288e-07
2.16867e-06
-1.55402e-06
5.51346e-06
-2.98912e-06
7.71318e-06
-4.52769e-06
8.80597e-06
-5.99856e-06
8.94146e-06
-7.2928e-06
8.30473e-06
-8.34894e-06
7.0778e-06
-9.13665e-06
5.42143e-06
-9.64249e-06
3.47003e-06
-9.85941e-06
1.33562e-06
-9.78042e-06
-8.82895e-07
-9.3966e-06
-3.08773e-06
-8.69975e-06
-5.16934e-06
-7.69011e-06
-6.99442e-06
-6.38959e-06
-8.39728e-06
-4.85991e-06
-9.1789e-06
-3.22282e-06
-9.11935e-06
-1.67613e-06
-8.00859e-06
-4.9476e-07
-5.70173e-06
-2.21213e-06
-5.41053e-07
2.70972e-06
-1.78203e-06
6.75443e-06
-3.35489e-06
9.28604e-06
-4.97714e-06
1.04282e-05
-6.46834e-06
1.04327e-05
-7.7326e-06
9.56899e-06
-8.73192e-06
8.07712e-06
-9.46097e-06
6.15048e-06
-9.92735e-06
3.9364e-06
-1.01379e-05
1.5462e-06
-1.00909e-05
-9.29943e-07
-9.7727e-06
-3.40591e-06
-9.1605e-06
-5.78155e-06
-8.23047e-06
-7.92444e-06
-6.97422e-06
-9.65353e-06
-5.42375e-06
-1.07294e-05
-3.68371e-06
-1.08594e-05
-1.96388e-06
-9.72843e-06
-5.95356e-07
-7.07025e-06
-2.80748e-06
-6.42579e-07
3.3523e-06
-2.04615e-06
8.158e-06
-3.73315e-06
1.0973e-05
-5.37478e-06
1.20699e-05
-6.79463e-06
1.18525e-05
-7.92762e-06
1.0702e-05
-8.77485e-06
8.92434e-06
-9.36742e-06
6.74305e-06
-9.7414e-06
4.31039e-06
-9.92218e-06
1.72698e-06
-9.91564e-06
-9.36488e-07
-9.70444e-06
-3.6171e-06
-9.24924e-06
-6.23675e-06
-8.49632e-06
-8.67736e-06
-7.39503e-06
-1.07548e-05
-5.92879e-06
-1.21956e-05
-4.16194e-06
-1.26262e-05
-2.29725e-06
-1.15931e-05
-7.23404e-07
-8.64409e-06
-3.53089e-06
-7.80313e-07
4.13262e-06
-2.36012e-06
9.73781e-06
-4.10985e-06
1.27228e-05
-5.66161e-06
1.36216e-05
-6.87021e-06
1.30611e-05
-7.72837e-06
1.15601e-05
-8.29566e-06
9.49163e-06
-8.65097e-06
7.09835e-06
-8.86456e-06
4.52399e-06
-8.98326e-06
1.84568e-06
-9.02277e-06
-8.96972e-07
-8.96396e-06
-3.67592e-06
-8.75203e-06
-6.44868e-06
-8.30083e-06
-9.12855e-06
-7.50738e-06
-1.15483e-05
-6.28489e-06
-1.34181e-05
-4.62352e-06
-1.42876e-05
-2.68209e-06
-1.35345e-05
-8.92647e-07
-1.04335e-05
-4.42353e-06
-9.79274e-07
5.11189e-06
-2.73826e-06
1.14968e-05
-4.44492e-06
1.44294e-05
-5.72675e-06
1.49034e-05
-6.52018e-06
1.38545e-05
-6.913e-06
1.1953e-05
-7.04303e-06
9.62166e-06
-7.04368e-06
7.099e-06
-7.01957e-06
4.49988e-06
-7.03762e-06
1.86372e-06
-7.12374e-06
-8.10847e-07
-7.26036e-06
-3.5393e-06
-7.38293e-06
-6.32611e-06
-7.37768e-06
-9.1338e-06
-7.08687e-06
-1.18391e-05
-6.33476e-06
-1.41702e-05
-4.99438e-06
-1.5628e-05
-3.11643e-06
-1.54125e-05
-1.12549e-06
-1.24245e-05
-5.54902e-06
-1.27806e-06
6.38995e-06
-3.17715e-06
1.33959e-05
-4.63002e-06
1.58823e-05
-5.35532e-06
1.56287e-05
-5.45454e-06
1.39538e-05
-5.15275e-06
1.16512e-05
-4.67653e-06
9.14545e-06
-4.20782e-06
6.63028e-06
-3.87457e-06
4.16663e-06
-3.75482e-06
1.74398e-06
-3.88164e-06
-6.84029e-07
-4.24339e-06
-3.17755e-06
-4.7777e-06
-5.7918e-06
-5.35988e-06
-8.55161e-06
-5.79162e-06
-1.14074e-05
-5.80513e-06
-1.41567e-05
-5.11483e-06
-1.63183e-05
-3.56647e-06
-1.69609e-05
-1.45331e-06
-1.45376e-05
-7.00233e-06
-1.71578e-06
8.10573e-06
-3.58905e-06
1.52692e-05
-4.38674e-06
1.668e-05
-4.12826e-06
1.53703e-05
-3.19268e-06
1.30182e-05
-1.96707e-06
1.04256e-05
-7.49008e-07
7.92738e-06
2.61566e-07
5.61971e-06
9.41167e-07
3.48703e-06
1.21952e-06
1.46563e-06
1.06436e-06
-5.28876e-07
4.7707e-07
-2.59026e-06
-4.9991e-07
-4.81482e-06
-1.76255e-06
-7.28897e-06
-3.11267e-06
-1.00572e-05
-4.224e-06
-1.30454e-05
-4.64153e-06
-1.59008e-05
-3.89231e-06
-1.77101e-05
-1.89659e-06
-1.65334e-05
-8.89892e-06
-2.25794e-06
1.03637e-05
-3.60719e-06
1.66184e-05
-3.04403e-06
1.61168e-05
-1.24817e-06
1.35744e-05
1.04034e-06
1.07297e-05
3.31889e-06
8.14701e-06
5.29392e-06
5.95236e-06
6.81191e-06
4.10172e-06
7.79867e-06
2.50026e-06
8.21849e-06
1.04581e-06
8.05174e-06
-3.62132e-07
7.28734e-06
-1.82585e-06
5.92872e-06
-3.4562e-06
4.0172e-06
-5.37745e-06
1.67987e-06
-7.7199e-06
-7.92938e-07
-1.05726e-05
-2.85392e-06
-1.38398e-05
-3.65541e-06
-1.69086e-05
-2.37843e-06
-1.78103e-05
-1.12774e-05
-2.54909e-06
1.29128e-05
-2.08843e-06
1.61577e-05
9.03502e-07
1.31249e-05
4.72479e-06
9.7531e-06
8.41953e-06
7.03494e-06
1.15798e-05
4.98674e-06
1.40685e-05
3.46367e-06
1.58676e-05
2.30261e-06
1.69985e-05
1.3694e-06
1.74823e-05
5.61976e-07
1.73224e-05
-2.02272e-07
1.64976e-05
-1.00102e-06
1.49631e-05
-1.92172e-06
1.26643e-05
-3.07858e-06
9.575e-06
-4.63064e-06
5.78886e-06
-6.78643e-06
1.70112e-06
-9.75204e-06
-1.67192e-06
-1.35356e-05
-2.47163e-06
-1.70106e-05
-1.3749e-05
-6.98101e-07
1.36109e-05
4.30233e-06
1.11573e-05
1.06069e-05
6.82031e-06
1.6138e-05
4.22204e-06
2.04912e-05
2.68174e-06
2.37487e-05
1.72927e-06
2.60919e-05
1.12043e-06
2.76859e-05
7.08596e-07
2.86498e-05
4.05539e-07
2.90538e-05
1.57933e-07
2.89219e-05
-7.0333e-08
2.8231e-05
-3.10165e-07
2.6907e-05
-5.97666e-07
2.48155e-05
-9.87077e-07
2.17568e-05
-1.57198e-06
1.74894e-05
-2.51905e-06
1.18597e-05
-4.12233e-06
5.23501e-06
-6.91085e-06
-2.61521e-07
-1.15141e-05
-1.40105e-05
1.36109e-05
2.47682e-05
3.15885e-05
3.58105e-05
3.84923e-05
4.02215e-05
4.1342e-05
4.20506e-05
4.24561e-05
4.2614e-05
4.25437e-05
4.22335e-05
4.16359e-05
4.06488e-05
3.90768e-05
3.65578e-05
3.24354e-05
2.55246e-05
1.40105e-05
)
;

boundaryField
{
    movingWall
    {
        type            calculated;
        value           uniform 0;
    }
    fixedWalls
    {
        type            calculated;
        value           uniform 0;
    }
    frontAndBack
    {
        type            empty;
        value           nonuniform List<scalar> 0();
    }
}


// ************************************************************************* //
