/*--------------------------------*- C++ -*----------------------------------*\
| =========                 |                                                 |
| \\      /  F ield         | OpenFOAM: The Open Source CFD Toolbox           |
|  \\    /   O peration     | Version:  2306                                  |
|   \\  /    A nd           | Website:  www.openfoam.com                      |
|    \\/     M anipulation  |                                                 |
\*---------------------------------------------------------------------------*/
FoamFile
{
    version     2.0;
    format      ascii;
    arch        "LSB;label=32;scalar=64";
    class       volVectorField;
    location    "0.5";
    object      U;
}
// * * * * * * * * * * * * * * * * * * * * * * * * * * * * * * * * * * * * * //

dimensions      [0 1 -1 0 0 0 0];

internalField   nonuniform List<vector> 
400
(
(0.000255276 -0.000252009 0)
(0.000148756 0.000108838 0)
(-0.00116471 0.000564469 0)
(-0.00347148 0.000888311 0)
(-0.00637782 0.00105132 0)
(-0.0094826 0.00106731 0)
(-0.012426 0.00096104 0)
(-0.0149109 0.000759914 0)
(-0.0167097 0.000490467 0)
(-0.0176661 0.000178112 0)
(-0.0176954 -0.000151825 0)
(-0.0167869 -0.000472873 0)
(-0.0150079 -0.000756515 0)
(-0.0125078 -0.000971963 0)
(-0.00952083 -0.00108694 0)
(-0.00636307 -0.00107021 0)
(-0.00341801 -0.000897094 0)
(-0.00110447 -0.000559009 0)
(0.000185564 -9.47689e-05 0)
(0.000264966 0.000259991 0)
(-7.27942e-05 -0.00017752 0)
(-0.00159501 0.00163338 0)
(-0.00566818 0.00361571 0)
(-0.0117004 0.00504694 0)
(-0.0188933 0.00576433 0)
(-0.0264259 0.00578102 0)
(-0.0335126 0.00518307 0)
(-0.0394751 0.00408926 0)
(-0.0437812 0.00263022 0)
(-0.046061 0.00094115 0)
(-0.046116 -0.000838445 0)
(-0.0439265 -0.00256298 0)
(-0.0396585 -0.00407988 0)
(-0.0336689 -0.00523197 0)
(-0.0265016 -0.00586529 0)
(-0.0188687 -0.00584552 0)
(-0.0115993 -0.00508704 0)
(-0.0055487 -0.00359727 0)
(-0.00151608 -0.00157631 0)
(-4.9505e-05 0.000216217 0)
(-0.000521659 0.00107098 0)
(-0.0036884 0.00571069 0)
(-0.0105573 0.0102216 0)
(-0.0199718 0.0134346 0)
(-0.0307729 0.0149921 0)
(-0.0418626 0.0148832 0)
(-0.0521831 0.0132792 0)
(-0.0608113 0.0104479 0)
(-0.0670189 0.0067033 0)
(-0.0702983 0.00238269 0)
(-0.070377 -0.00216074 0)
(-0.0672292 -0.0065586 0)
(-0.061084 -0.0104296 0)
(-0.0524295 -0.0133893 0)
(-0.0420065 -0.015073 0)
(-0.0307797 -0.0151785 0)
(-0.0198638 -0.0135338 0)
(-0.0104074 -0.0101915 0)
(-0.00357994 -0.00558746 0)
(-0.000487158 -0.000975894 0)
(-0.00091915 0.00344245 0)
(-0.0056647 0.0121797 0)
(-0.0152719 0.0199229 0)
(-0.027911 0.0252496 0)
(-0.042022 0.0276782 0)
(-0.0562587 0.027213 0)
(-0.0693579 0.0241461 0)
(-0.0802297 0.0189353 0)
(-0.0880205 0.0121247 0)
(-0.0921372 0.00430426 0)
(-0.0922604 -0.00390553 0)
(-0.0883556 -0.0118582 0)
(-0.0806832 -0.0188871 0)
(-0.0698059 -0.0243242 0)
(-0.0565862 -0.0275398 0)
(-0.0421623 -0.028015 0)
(-0.0278714 -0.02545 0)
(-0.0151335 -0.0199034 0)
(-0.00554056 -0.0119848 0)
(-0.000874757 -0.00327263 0)
(-0.00126871 0.00682145 0)
(-0.00751215 0.0209026 0)
(-0.0197946 0.0325296 0)
(-0.035574 0.0401979 0)
(-0.0528498 0.0434226 0)
(-0.070024 0.0423072 0)
(-0.0856571 0.0373254 0)
(-0.0985388 0.0291701 0)
(-0.107739 0.018651 0)
(-0.112616 0.00663984 0)
(-0.112822 -0.00594998 0)
(-0.108309 -0.0181685 0)
(-0.0993406 -0.0290351 0)
(-0.0865085 -0.0375619 0)
(-0.0707429 -0.0428087 0)
(-0.0533085 -0.043982 0)
(-0.0357412 -0.0405822 0)
(-0.0197486 -0.0325851 0)
(-0.00740208 -0.0206612 0)
(-0.00121859 -0.00656862 0)
(-0.00159844 0.0111426 0)
(-0.00930962 0.0318304 0)
(-0.0242494 0.0480183 0)
(-0.0431362 0.0582418 0)
(-0.0634965 0.0621455 0)
(-0.0834736 0.0600443 0)
(-0.101472 0.0526777 0)
(-0.116199 0.0410309 0)
(-0.126689 0.0262131 0)
(-0.132285 0.00939518 0)
(-0.132627 -0.00820945 0)
(-0.127646 -0.025342 0)
(-0.117583 -0.0406963 0)
(-0.103013 -0.0529381 0)
(-0.0848851 -0.0607678 0)
(-0.0645497 -0.0630412 0)
(-0.0437255 -0.0589558 0)
(-0.0244289 -0.0482809 0)
(-0.00926747 -0.0316199 0)
(-0.00155203 -0.0108183 0)
(-0.00193603 0.0163977 0)
(-0.0111478 0.0449724 0)
(-0.0287856 0.0663981 0)
(-0.0507768 0.0793553 0)
(-0.0741429 0.0837669 0)
(-0.0967705 0.0802973 0)
(-0.116939 0.0700577 0)
(-0.13332 0.054393 0)
(-0.144961 0.0347438 0)
(-0.151228 0.0125844 0)
(-0.151767 -0.0105837 0)
(-0.146485 -0.0332095 0)
(-0.135566 -0.0536686 0)
(-0.119522 -0.0702658 0)
(-0.0992579 -0.0812916 0)
(-0.0761551 -0.0851583 0)
(-0.0520847 -0.0806257 0)
(-0.0293827 -0.0670951 0)
(-0.0112566 -0.0449504 0)
(-0.0019096 -0.016048 0)
(-0.00230694 0.022632 0)
(-0.0131138 0.0604025 0)
(-0.0335402 0.0877059 0)
(-0.0586273 0.103492 0)
(-0.0848548 0.108145 0)
(-0.109873 0.102855 0)
(-0.131892 0.0892319 0)
(-0.149618 0.0690565 0)
(-0.16218 0.0441267 0)
(-0.169021 0.0162078 0)
(-0.169818 -0.0129472 0)
(-0.164452 -0.0415388 0)
(-0.153018 -0.0676576 0)
(-0.135897 -0.0892511 0)
(-0.113869 -0.104156 0)
(-0.0882579 -0.110234 0)
(-0.0610229 -0.105637 0)
(-0.0348064 -0.0891847 0)
(-0.0134886 -0.0608366 0)
(-0.00232487 -0.0223548 0)
(-0.00273754 0.0299398 0)
(-0.0152936 0.0782552 0)
(-0.0386295 0.111988 0)
(-0.0667461 0.13054 0)
(-0.0955411 0.135013 0)
(-0.12248 0.127343 0)
(-0.1458 0.1098 0)
(-0.16435 0.084678 0)
(-0.177439 0.0541471 0)
(-0.184659 0.0202265 0)
(-0.185761 -0.0151466 0)
(-0.1806 -0.0500029 0)
(-0.169144 -0.0822171 0)
(-0.151564 -0.109414 0)
(-0.1284 -0.128949 0)
(-0.100785 -0.138022 0)
(-0.0706431 -0.133967 0)
(-0.0408662 -0.114732 0)
(-0.0160817 -0.0795502 0)
(-0.00283355 -0.0299032 0)
(-0.00326295 0.0384685 0)
(-0.01779 0.0987155 0)
(-0.0441591 0.139255 0)
(-0.0751039 0.160245 0)
(-0.105909 0.163869 0)
(-0.133961 0.153112 0)
(-0.157682 0.131087 0)
(-0.17622 0.100682 0)
(-0.189198 0.0644278 0)
(-0.196454 0.0245283 0)
(-0.197868 -0.0170018 0)
(-0.193282 -0.0581463 0)
(-0.182498 -0.0966797 0)
(-0.165386 -0.129985 0)
(-0.142094 -0.154949 0)
(-0.113369 -0.168004 0)
(-0.0809018 -0.165419 0)
(-0.0476921 -0.143882 0)
(-0.0191671 -0.101433 0)
(-0.00348118 -0.0389295 0)
(-0.00394143 0.0484388 0)
(-0.0207533 0.122015 0)
(-0.0502412 0.169422 0)
(-0.0835593 0.192091 0)
(-0.115391 0.193841 0)
(-0.143248 0.179097 0)
(-0.165976 0.152025 0)
(-0.183243 0.116166 0)
(-0.195152 0.074362 0)
(-0.201901 0.0288881 0)
(-0.203569 -0.0183168 0)
(-0.200004 -0.0653609 0)
(-0.190818 -0.110092 0)
(-0.175483 -0.149797 0)
(-0.153583 -0.180968 0)
(-0.125222 -0.199214 0)
(-0.09154 -0.199471 0)
(-0.0553702 -0.176643 0)
(-0.0229119 -0.126874 0)
(-0.00433714 -0.0497597 0)
(-0.00488 0.0601946 0)
(-0.0244284 0.148435 0)
(-0.0570025 0.202207 0)
(-0.0917903 0.225137 0)
(-0.123008 0.223497 0)
(-0.148655 0.20365 0)
(-0.168359 0.171023 0)
(-0.18258 0.129809 0)
(-0.192084 0.0830519 0)
(-0.197547 0.032927 0)
(-0.19931 -0.0189009 0)
(-0.197267 -0.0708823 0)
(-0.190831 -0.121168 0)
(-0.179013 -0.16718 0)
(-0.16066 -0.20519 0)
(-0.134926 -0.230021 0)
(-0.101951 -0.235039 0)
(-0.0639103 -0.21273 0)
(-0.0275541 -0.156276 0)
(-0.00551946 -0.0628538 0)
(-0.0062798 0.0743032 0)
(-0.0292172 0.178286 0)
(-0.0645433 0.236945 0)
(-0.0991095 0.257741 0)
(-0.127085 0.250589 0)
(-0.147573 0.224359 0)
(-0.161467 0.185856 0)
(-0.170317 0.139816 0)
(-0.175711 0.089278 0)
(-0.178873 0.036086 0)
(-0.180455 -0.0186008 0)
(-0.180434 -0.073819 0)
(-0.178065 -0.128297 0)
(-0.171897 -0.179899 0)
(-0.159938 -0.224997 0)
(-0.140089 -0.257844 0)
(-0.110919 -0.27015 0)
(-0.0731442 -0.251292 0)
(-0.0334421 -0.189983 0)
(-0.00723808 -0.0788941 0)
(-0.00850922 0.0917302 0)
(-0.0357302 0.211826 0)
(-0.0727385 0.272221 0)
(-0.104016 0.287144 0)
(-0.124693 0.271745 0)
(-0.135943 0.237879 0)
(-0.140493 0.193629 0)
(-0.141216 0.143951 0)
(-0.140559 0.091543 0)
(-0.140267 0.0376383 0)
(-0.141279 -0.017341 0)
(-0.143693 -0.0732389 0)
(-0.146704 -0.129631 0)
(-0.148525 -0.185192 0)
(-0.146388 -0.236873 0)
(-0.136777 -0.278858 0)
(-0.116094 -0.301455 0)
(-0.0824377 -0.290433 0)
(-0.0410409 -0.228082 0)
(-0.00986014 -0.0989327 0)
(-0.0121786 0.114084 0)
(-0.0446857 0.248915 0)
(-0.0805925 0.305177 0)
(-0.103175 0.308871 0)
(-0.110603 0.282164 0)
(-0.107423 0.239931 0)
(-0.0986499 0.19095 0)
(-0.0884581 0.139767 0)
(-0.0799433 0.0882662 0)
(-0.0751426 0.0367821 0)
(-0.0751526 -0.0151625 0)
(-0.0802004 -0.0683416 0)
(-0.0895877 -0.123358 0)
(-0.101502 -0.180043 0)
(-0.112753 -0.23653 0)
(-0.118608 -0.287802 0)
(-0.112967 -0.323648 0)
(-0.0899275 -0.326393 0)
(-0.0507296 -0.269904 0)
(-0.0139548 -0.124569 0)
(-0.0180175 0.143975 0)
(-0.0561217 0.28807 0)
(-0.0844127 0.330191 0)
(-0.0892533 0.315951 0)
(-0.075471 0.27553 0)
(-0.0521856 0.225672 0)
(-0.0265767 0.1745 0)
(-0.00353603 0.125166 0)
(0.0138202 0.078206 0)
(0.023644 0.0328605 0)
(0.0249569 -0.0122431 0)
(0.0174447 -0.0587306 0)
(0.00148297 -0.108202 0)
(-0.0215858 -0.161818 0)
(-0.0489141 -0.219477 0)
(-0.0754048 -0.278149 0)
(-0.0929246 -0.328875 0)
(-0.0906211 -0.352224 0)
(-0.0618065 -0.312877 0)
(-0.0200736 -0.158197 0)
(-0.025802 0.185842 0)
(-0.0664781 0.324097 0)
(-0.0732737 0.336326 0)
(-0.0467305 0.297879 0)
(-0.00305347 0.24431 0)
(0.0444484 0.19066 0)
(0.0879939 0.142117 0)
(0.123438 0.0993218 0)
(0.148737 0.0611111 0)
(0.162933 0.0257068 0)
(0.165539 -0.0088762 0)
(0.156257 -0.0447447 0)
(0.134946 -0.0841321 0)
(0.1019 -0.129318 0)
(0.058517 -0.18219 0)
(0.00855656 -0.242847 0)
(-0.0398997 -0.306236 0)
(-0.0721839 -0.355578 0)
(-0.0693357 -0.350045 0)
(-0.0274411 -0.203629 0)
(-0.0293427 0.243529 0)
(-0.059816 0.341344 0)
(-0.0191086 0.303959 0)
(0.0551459 0.241111 0)
(0.133206 0.182102 0)
(0.202833 0.133449 0)
(0.259644 0.0949159 0)
(0.302524 0.0641607 0)
(0.331737 0.0386329 0)
(0.347832 0.0160925 0)
(0.351113 -0.00544045 0)
(0.341414 -0.0278987 0)
(0.318047 -0.0534258 0)
(0.279907 -0.0846397 0)
(0.225944 -0.124776 0)
(0.156339 -0.177226 0)
(0.0747587 -0.243333 0)
(-0.00659256 -0.316438 0)
(-0.0556862 -0.3633 0)
(-0.0285376 -0.262495 0)
(0.0101279 0.28455 0)
(0.023546 0.297957 0)
(0.144574 0.212243 0)
(0.271241 0.143169 0)
(0.371328 0.0960554 0)
(0.44671 0.0643863 0)
(0.502014 0.0428607 0)
(0.540849 0.0276228 0)
(0.566051 0.016064 0)
(0.579535 0.0064523 0)
(0.582251 -0.00247289 0)
(0.574218 -0.0118342 0)
(0.554483 -0.0229215 0)
(0.520973 -0.0375667 0)
(0.470373 -0.0586703 0)
(0.39818 -0.0908211 0)
(0.298456 -0.140671 0)
(0.167516 -0.215877 0)
(0.0378406 -0.309113 0)
(0.0170514 -0.296651 0)
(0.301472 0.14654 0)
(0.399859 0.127646 0)
(0.561921 0.0756534 0)
(0.678879 0.0430553 0)
(0.747589 0.0249382 0)
(0.790048 0.0147468 0)
(0.817607 0.00885744 0)
(0.835397 0.00526308 0)
(0.846249 0.00285632 0)
(0.851742 0.00102612 0)
(0.852599 -0.000600231 0)
(0.848898 -0.00231996 0)
(0.840073 -0.0044831 0)
(0.824697 -0.00765944 0)
(0.8 -0.0129271 0)
(0.76077 -0.0223879 0)
(0.695339 -0.0400817 0)
(0.579645 -0.0733666 0)
(0.412915 -0.127899 0)
(0.307627 -0.148804 0)
)
;

boundaryField
{
    movingWall
    {
        type            fixedValue;
        value           uniform (1 0 0);
    }
    fixedWalls
    {
        type            noSlip;
    }
    frontAndBack
    {
        type            empty;
    }
}


// ************************************************************************* //
