/*--------------------------------*- C++ -*----------------------------------*\
| =========                 |                                                 |
| \\      /  F ield         | OpenFOAM: The Open Source CFD Toolbox           |
|  \\    /   O peration     | Version:  2306                                  |
|   \\  /    A nd           | Website:  www.openfoam.com                      |
|    \\/     M anipulation  |                                                 |
\*---------------------------------------------------------------------------*/
FoamFile
{
    version     2.0;
    format      ascii;
    arch        "LSB;label=32;scalar=64";
    class       volScalarField;
    location    "1900";
    object      cp;
}
// * * * * * * * * * * * * * * * * * * * * * * * * * * * * * * * * * * * * * //

dimensions      [0 0 0 0 0 0 0];

internalField   nonuniform List<scalar> 
20540
(
0.182125
0.0716181
0.182124
0.0671564
0.182122
0.0638074
0.182118
0.0619299
0.182113
0.0607588
0.182106
0.0598778
0.182096
0.0591667
0.182084
0.0585841
0.182068
0.0581002
0.182049
0.0576923
0.182025
0.0573456
0.181996
0.0570505
0.18196
0.056801
0.181918
0.0565931
0.181867
0.0564246
0.181808
0.0562941
0.181739
0.0562004
0.181661
0.0561419
0.181574
0.0561158
0.181479
0.0561173
0.18138
0.0561401
0.181278
0.0561776
0.181165
0.0562299
0.181015
0.0563191
0.180784
0.0565048
0.180436
0.0568513
0.179997
0.0573387
0.179543
0.0578611
0.179119
0.0583542
0.178738
0.0587968
0.178473
0.0590874
0.178356
0.0591872
0.17838
0.0591047
0.178548
0.0588396
0.178858
0.0583864
0.179271
0.0578055
0.179722
0.0571983
0.180198
0.0565793
0.180657
0.0560101
0.181021
0.0555959
0.181268
0.0553536
0.181436
0.0552145
0.181569
0.0551163
0.181693
0.0550359
0.181813
0.0549732
0.181927
0.0549339
0.182032
0.0549233
0.182127
0.0549452
0.182211
0.055002
0.182284
0.0550948
0.182347
0.0552242
0.182401
0.0553905
0.182447
0.0555949
0.182485
0.0558394
0.182517
0.0561277
0.182543
0.0564658
0.182565
0.0568628
0.182582
0.0573334
0.182595
0.0578994
0.182606
0.0585901
0.182614
0.0594458
0.182619
0.0605858
0.182623
0.062423
0.182626
0.0657135
0.182628
0.0701051
0.00546288
0.00939965
0.00285569
-0.00482791
-0.0110585
-0.01682
-0.0224404
-0.0277611
-0.0327966
-0.0375924
-0.0421669
-0.0465307
-0.0506987
-0.0546832
-0.0584957
-0.0621451
-0.065641
-0.0689914
-0.0722038
-0.0752854
-0.0782425
-0.0810808
-0.0838064
-0.0864239
-0.0889391
-0.0913561
-0.0936789
-0.095912
-0.0980592
-0.100124
-0.10211
-0.104021
-0.105859
-0.107629
-0.109333
-0.110974
-0.112555
-0.11408
-0.11555
-0.116971
-0.118345
-0.119675
-0.120966
-0.122222
-0.123446
-0.124645
-0.125823
-0.126986
-0.128141
-0.129293
-0.130451
-0.131622
-0.132815
-0.13404
-0.135305
-0.136622
-0.138002
-0.139459
-0.141004
-0.142654
-0.14442
-0.146327
-0.148384
-0.150258
-0.151816
-0.153414
-0.155064
-0.156767
-0.158522
-0.160333
-0.162199
-0.164123
-0.166104
-0.16815
-0.170256
-0.172437
-0.174678
-0.177019
-0.17941
-0.181958
-0.184515
-0.187369
-0.190098
-0.193493
-0.196391
-0.200863
-0.20432
-0.211391
0.00546803
0.00940093
0.00285615
-0.00482764
-0.0110583
-0.0168198
-0.0224403
-0.027761
-0.0327966
-0.0375923
-0.0421668
-0.0465306
-0.0506986
-0.0546832
-0.0584956
-0.0621451
-0.0656409
-0.0689914
-0.0722038
-0.0752854
-0.0782424
-0.0810807
-0.0838063
-0.0864239
-0.0889391
-0.0913561
-0.0936789
-0.095912
-0.0980592
-0.100124
-0.10211
-0.104021
-0.105859
-0.107629
-0.109333
-0.110974
-0.112555
-0.114079
-0.11555
-0.116971
-0.118345
-0.119675
-0.120966
-0.122222
-0.123446
-0.124645
-0.125823
-0.126986
-0.128141
-0.129293
-0.130451
-0.131622
-0.132815
-0.13404
-0.135305
-0.136622
-0.138002
-0.139459
-0.141004
-0.142654
-0.14442
-0.146328
-0.148385
-0.150258
-0.151816
-0.153414
-0.155064
-0.156767
-0.158522
-0.160333
-0.162199
-0.164123
-0.166105
-0.168151
-0.170256
-0.172438
-0.174679
-0.17702
-0.179411
-0.181959
-0.184516
-0.18737
-0.190099
-0.193495
-0.196393
-0.200864
-0.204327
-0.211203
0.00546986
0.00940335
0.00285714
-0.00482705
-0.0110579
-0.0168195
-0.02244
-0.0277608
-0.0327964
-0.0375922
-0.0421667
-0.0465305
-0.0506985
-0.0546831
-0.0584956
-0.062145
-0.0656409
-0.0689914
-0.0722038
-0.0752853
-0.0782424
-0.0810807
-0.0838063
-0.0864238
-0.0889391
-0.091356
-0.0936789
-0.095912
-0.0980592
-0.100124
-0.10211
-0.104021
-0.105859
-0.107629
-0.109333
-0.110974
-0.112555
-0.114079
-0.11555
-0.116971
-0.118345
-0.119675
-0.120966
-0.122222
-0.123446
-0.124645
-0.125823
-0.126986
-0.128141
-0.129293
-0.130451
-0.131622
-0.132815
-0.13404
-0.135305
-0.136622
-0.138002
-0.139459
-0.141004
-0.142654
-0.14442
-0.146328
-0.148385
-0.150259
-0.151816
-0.153415
-0.155065
-0.156767
-0.158523
-0.160334
-0.1622
-0.164124
-0.166106
-0.168152
-0.170258
-0.172439
-0.17468
-0.177022
-0.179413
-0.181962
-0.184519
-0.187374
-0.190103
-0.193499
-0.196399
-0.200868
-0.204339
-0.210904
0.00547037
0.00940659
0.00285867
-0.0048261
-0.0110572
-0.016819
-0.0224396
-0.0277605
-0.0327961
-0.037592
-0.0421665
-0.0465304
-0.0506984
-0.054683
-0.0584955
-0.0621449
-0.0656408
-0.0689913
-0.0722037
-0.0752853
-0.0782423
-0.0810807
-0.0838063
-0.0864238
-0.088939
-0.091356
-0.0936789
-0.095912
-0.0980591
-0.100124
-0.10211
-0.104021
-0.105859
-0.107629
-0.109333
-0.110974
-0.112555
-0.114079
-0.11555
-0.116971
-0.118345
-0.119675
-0.120966
-0.122222
-0.123446
-0.124645
-0.125823
-0.126986
-0.128141
-0.129293
-0.130451
-0.131622
-0.132815
-0.13404
-0.135305
-0.136622
-0.138003
-0.13946
-0.141004
-0.142654
-0.144421
-0.146328
-0.148386
-0.15026
-0.151817
-0.153415
-0.155066
-0.156769
-0.158524
-0.160335
-0.162201
-0.164126
-0.166108
-0.168154
-0.17026
-0.172442
-0.174683
-0.177025
-0.179416
-0.181966
-0.184523
-0.187379
-0.190108
-0.193505
-0.196408
-0.200871
-0.20435
-0.210628
0.00546754
0.00940994
0.00286058
-0.00482486
-0.0110563
-0.0168183
-0.0224391
-0.0277601
-0.0327958
-0.0375917
-0.0421663
-0.0465301
-0.0506982
-0.0546828
-0.0584953
-0.0621448
-0.0656407
-0.0689912
-0.0722036
-0.0752852
-0.0782423
-0.0810806
-0.0838062
-0.0864237
-0.0889389
-0.0913559
-0.0936788
-0.0959119
-0.0980591
-0.100124
-0.10211
-0.104021
-0.105859
-0.107629
-0.109333
-0.110974
-0.112555
-0.114079
-0.11555
-0.116971
-0.118345
-0.119675
-0.120966
-0.122222
-0.123446
-0.124645
-0.125823
-0.126986
-0.128141
-0.129293
-0.130451
-0.131622
-0.132816
-0.13404
-0.135305
-0.136622
-0.138003
-0.13946
-0.141005
-0.142655
-0.144421
-0.146329
-0.148386
-0.150261
-0.151818
-0.153417
-0.155067
-0.15677
-0.158526
-0.160337
-0.162203
-0.164128
-0.16611
-0.168157
-0.170263
-0.172445
-0.174687
-0.177029
-0.179421
-0.181971
-0.184528
-0.187386
-0.190115
-0.193513
-0.19642
-0.200874
-0.204349
-0.210432
0.00545859
0.00941299
0.00286272
-0.00482336
-0.0110551
-0.0168174
-0.0224384
-0.0277595
-0.0327953
-0.0375913
-0.0421659
-0.0465298
-0.0506979
-0.0546826
-0.0584951
-0.0621446
-0.0656405
-0.068991
-0.0722034
-0.075285
-0.0782421
-0.0810805
-0.0838061
-0.0864236
-0.0889389
-0.0913559
-0.0936787
-0.0959118
-0.098059
-0.100124
-0.10211
-0.104021
-0.105859
-0.107629
-0.109333
-0.110974
-0.112555
-0.114079
-0.11555
-0.116971
-0.118345
-0.119675
-0.120966
-0.122222
-0.123446
-0.124645
-0.125823
-0.126986
-0.128141
-0.129293
-0.130451
-0.131623
-0.132816
-0.13404
-0.135305
-0.136623
-0.138003
-0.13946
-0.141005
-0.142656
-0.144422
-0.14633
-0.148388
-0.150262
-0.15182
-0.153418
-0.155069
-0.156772
-0.158528
-0.16034
-0.162206
-0.164131
-0.166113
-0.16816
-0.170267
-0.17245
-0.174691
-0.177035
-0.179426
-0.181978
-0.184535
-0.187394
-0.190124
-0.193522
-0.196432
-0.200874
-0.204332
-0.210305
0.00544067
0.00941547
0.00286498
-0.00482165
-0.0110537
-0.0168163
-0.0224375
-0.0277588
-0.0327947
-0.0375907
-0.0421655
-0.0465294
-0.0506976
-0.0546823
-0.0584948
-0.0621444
-0.0656403
-0.0689908
-0.0722033
-0.0752849
-0.078242
-0.0810803
-0.083806
-0.0864235
-0.0889388
-0.0913558
-0.0936786
-0.0959117
-0.0980589
-0.100124
-0.10211
-0.10402
-0.105859
-0.107629
-0.109333
-0.110974
-0.112555
-0.114079
-0.11555
-0.116971
-0.118345
-0.119675
-0.120966
-0.122222
-0.123446
-0.124645
-0.125823
-0.126986
-0.128141
-0.129293
-0.130451
-0.131623
-0.132816
-0.13404
-0.135306
-0.136623
-0.138004
-0.139461
-0.141006
-0.142656
-0.144423
-0.146331
-0.148389
-0.150263
-0.151822
-0.15342
-0.155071
-0.156775
-0.158531
-0.160343
-0.162209
-0.164135
-0.166117
-0.168165
-0.170272
-0.172455
-0.174697
-0.177041
-0.179433
-0.181985
-0.184543
-0.187403
-0.190133
-0.193531
-0.196444
-0.200869
-0.204294
-0.210188
0.00541082
0.00941696
0.00286716
-0.0048198
-0.011052
-0.0168149
-0.0224364
-0.0277578
-0.0327939
-0.0375901
-0.0421649
-0.046529
-0.0506971
-0.0546819
-0.0584945
-0.0621441
-0.06564
-0.0689906
-0.072203
-0.0752847
-0.0782418
-0.0810801
-0.0838058
-0.0864233
-0.0889386
-0.0913556
-0.0936785
-0.0959116
-0.0980588
-0.100124
-0.10211
-0.10402
-0.105859
-0.107629
-0.109333
-0.110974
-0.112555
-0.114079
-0.11555
-0.116971
-0.118345
-0.119675
-0.120966
-0.122222
-0.123446
-0.124645
-0.125823
-0.126986
-0.128141
-0.129293
-0.130451
-0.131623
-0.132816
-0.134041
-0.135306
-0.136624
-0.138004
-0.139462
-0.141007
-0.142657
-0.144424
-0.146333
-0.148391
-0.150265
-0.151824
-0.153423
-0.155074
-0.156777
-0.158534
-0.160346
-0.162213
-0.164139
-0.166122
-0.16817
-0.170277
-0.172461
-0.174703
-0.177048
-0.17944
-0.181994
-0.184551
-0.187413
-0.190142
-0.193539
-0.196454
-0.200857
-0.204236
-0.210031
0.00536573
0.00941689
0.00286904
-0.00481794
-0.0110502
-0.0168134
-0.0224351
-0.0277567
-0.0327929
-0.0375892
-0.0421642
-0.0465283
-0.0506966
-0.0546814
-0.058494
-0.0621437
-0.0656396
-0.0689902
-0.0722027
-0.0752844
-0.0782415
-0.0810799
-0.0838056
-0.0864231
-0.0889384
-0.0913554
-0.0936783
-0.0959115
-0.0980587
-0.100123
-0.10211
-0.10402
-0.105859
-0.107629
-0.109333
-0.110974
-0.112555
-0.114079
-0.11555
-0.116971
-0.118345
-0.119675
-0.120966
-0.122222
-0.123446
-0.124645
-0.125823
-0.126986
-0.128141
-0.129294
-0.130452
-0.131623
-0.132816
-0.134041
-0.135306
-0.136624
-0.138005
-0.139463
-0.141008
-0.142659
-0.144426
-0.146334
-0.148393
-0.150268
-0.151826
-0.153426
-0.155077
-0.156781
-0.158538
-0.16035
-0.162218
-0.164144
-0.166127
-0.168176
-0.170283
-0.172468
-0.174711
-0.177056
-0.179448
-0.182003
-0.184559
-0.187422
-0.190151
-0.193543
-0.196459
-0.200831
-0.204156
-0.209813
0.00530183
0.00941442
0.00287028
-0.00481627
-0.0110483
-0.0168116
-0.0224335
-0.0277554
-0.0327918
-0.0375882
-0.0421633
-0.0465275
-0.0506959
-0.0546808
-0.0584935
-0.0621432
-0.0656392
-0.0689898
-0.0722023
-0.075284
-0.0782412
-0.0810796
-0.0838053
-0.0864229
-0.0889382
-0.0913552
-0.0936781
-0.0959113
-0.0980585
-0.100123
-0.10211
-0.10402
-0.105859
-0.107629
-0.109332
-0.110973
-0.112554
-0.114079
-0.11555
-0.116971
-0.118345
-0.119675
-0.120966
-0.122222
-0.123446
-0.124645
-0.125823
-0.126986
-0.128141
-0.129294
-0.130452
-0.131623
-0.132817
-0.134041
-0.135307
-0.136625
-0.138006
-0.139464
-0.141009
-0.14266
-0.144428
-0.146336
-0.148395
-0.15027
-0.151829
-0.153429
-0.15508
-0.156785
-0.158542
-0.160355
-0.162223
-0.164149
-0.166133
-0.168182
-0.17029
-0.172475
-0.174718
-0.177064
-0.179456
-0.182011
-0.184567
-0.187429
-0.190157
-0.193541
-0.196456
-0.200783
-0.204046
-0.209529
0.00521548
0.00940854
0.00287042
-0.0048151
-0.0110464
-0.0168097
-0.0224318
-0.0277538
-0.0327904
-0.037587
-0.0421622
-0.0465266
-0.050695
-0.05468
-0.0584928
-0.0621425
-0.0656386
-0.0689893
-0.0722019
-0.0752836
-0.0782408
-0.0810792
-0.0838049
-0.0864225
-0.0889379
-0.0913549
-0.0936779
-0.095911
-0.0980582
-0.100123
-0.102109
-0.10402
-0.105859
-0.107628
-0.109332
-0.110973
-0.112554
-0.114079
-0.11555
-0.116971
-0.118344
-0.119675
-0.120966
-0.122222
-0.123446
-0.124645
-0.125823
-0.126986
-0.128141
-0.129294
-0.130452
-0.131624
-0.132817
-0.134042
-0.135307
-0.136625
-0.138007
-0.139465
-0.14101
-0.142662
-0.144429
-0.146338
-0.148398
-0.150273
-0.151832
-0.153432
-0.155084
-0.156789
-0.158547
-0.16036
-0.162228
-0.164155
-0.166139
-0.168188
-0.170296
-0.172482
-0.174725
-0.177071
-0.179463
-0.182017
-0.184572
-0.187431
-0.190157
-0.193527
-0.196439
-0.200703
-0.20389
-0.209168
0.00510321
0.009398
0.00286893
-0.00481484
-0.0110449
-0.0168078
-0.0224299
-0.0277521
-0.0327888
-0.0375856
-0.0421609
-0.0465254
-0.050694
-0.054679
-0.0584919
-0.0621417
-0.0656379
-0.0689886
-0.0722013
-0.075283
-0.0782403
-0.0810787
-0.0838045
-0.0864221
-0.0889375
-0.0913546
-0.0936775
-0.0959107
-0.0980579
-0.100123
-0.102109
-0.10402
-0.105858
-0.107628
-0.109332
-0.110973
-0.112554
-0.114079
-0.11555
-0.11697
-0.118344
-0.119675
-0.120966
-0.122221
-0.123446
-0.124645
-0.125823
-0.126986
-0.128141
-0.129294
-0.130452
-0.131624
-0.132817
-0.134042
-0.135308
-0.136626
-0.138008
-0.139466
-0.141012
-0.142663
-0.144431
-0.146341
-0.1484
-0.150276
-0.151836
-0.153436
-0.155088
-0.156793
-0.158551
-0.160365
-0.162233
-0.16416
-0.166144
-0.168194
-0.170302
-0.172487
-0.17473
-0.177076
-0.179466
-0.182019
-0.184572
-0.187425
-0.190148
-0.193496
-0.196399
-0.200577
-0.203674
-0.208712
0.00496208
0.00938133
0.00286516
-0.00481606
-0.011044
-0.0168061
-0.022428
-0.0277502
-0.0327871
-0.037584
-0.0421594
-0.0465241
-0.0506928
-0.0546779
-0.0584909
-0.0621408
-0.065637
-0.0689878
-0.0722005
-0.0752823
-0.0782396
-0.0810781
-0.0838039
-0.0864216
-0.088937
-0.0913541
-0.0936771
-0.0959103
-0.0980575
-0.100122
-0.102109
-0.104019
-0.105858
-0.107628
-0.109332
-0.110973
-0.112554
-0.114079
-0.115549
-0.11697
-0.118344
-0.119675
-0.120966
-0.122221
-0.123446
-0.124645
-0.125823
-0.126986
-0.128141
-0.129294
-0.130452
-0.131624
-0.132818
-0.134043
-0.135309
-0.136627
-0.138008
-0.139467
-0.141013
-0.142665
-0.144433
-0.146343
-0.148402
-0.150279
-0.151838
-0.153439
-0.155091
-0.156797
-0.158555
-0.160368
-0.162237
-0.164164
-0.166148
-0.168197
-0.170305
-0.17249
-0.174731
-0.177076
-0.179464
-0.182014
-0.184562
-0.187406
-0.190123
-0.193436
-0.196326
-0.200388
-0.203378
-0.208141
0.00479034
0.00935684
0.0028584
-0.00481941
-0.0110443
-0.016805
-0.0224264
-0.0277484
-0.0327852
-0.0375822
-0.0421578
-0.0465225
-0.0506913
-0.0546766
-0.0584896
-0.0621396
-0.0656359
-0.0689868
-0.0721996
-0.0752815
-0.0782388
-0.0810774
-0.0838032
-0.0864209
-0.0889364
-0.0913535
-0.0936765
-0.0959097
-0.098057
-0.100122
-0.102108
-0.104019
-0.105858
-0.107627
-0.109331
-0.110972
-0.112554
-0.114078
-0.115549
-0.11697
-0.118344
-0.119674
-0.120965
-0.122221
-0.123446
-0.124645
-0.125823
-0.126986
-0.128141
-0.129294
-0.130452
-0.131624
-0.132818
-0.134043
-0.135309
-0.136627
-0.138009
-0.139468
-0.141014
-0.142666
-0.144434
-0.146344
-0.148404
-0.15028
-0.15184
-0.153441
-0.155093
-0.156799
-0.158557
-0.16037
-0.162238
-0.164165
-0.166149
-0.168197
-0.170303
-0.172487
-0.174726
-0.177068
-0.179452
-0.181995
-0.184537
-0.187363
-0.190071
-0.193335
-0.196201
-0.200116
-0.202982
-0.207438
0.00458832
0.00932259
0.00284796
-0.00482567
-0.0110464
-0.016805
-0.0224253
-0.0277468
-0.0327834
-0.0375803
-0.042156
-0.0465208
-0.0506896
-0.054675
-0.0584882
-0.0621383
-0.0656347
-0.0689856
-0.0721985
-0.0752804
-0.0782378
-0.0810765
-0.0838023
-0.0864201
-0.0889356
-0.0913528
-0.0936758
-0.0959091
-0.0980564
-0.100121
-0.102108
-0.104018
-0.105857
-0.107627
-0.109331
-0.110972
-0.112553
-0.114078
-0.115549
-0.11697
-0.118343
-0.119674
-0.120965
-0.122221
-0.123445
-0.124644
-0.125823
-0.126986
-0.128141
-0.129294
-0.130452
-0.131624
-0.132818
-0.134043
-0.135309
-0.136628
-0.138009
-0.139468
-0.141014
-0.142666
-0.144435
-0.146345
-0.148405
-0.150281
-0.151841
-0.153441
-0.155093
-0.156798
-0.158556
-0.160368
-0.162235
-0.164161
-0.166143
-0.16819
-0.170294
-0.172474
-0.17471
-0.177045
-0.179424
-0.181955
-0.184488
-0.187287
-0.18998
-0.193174
-0.196004
-0.199737
-0.202461
-0.206583
0.00435975
0.00927638
0.00283321
-0.00483563
-0.0110511
-0.0168065
-0.0224253
-0.0277459
-0.0327819
-0.0375786
-0.0421542
-0.0465189
-0.0506879
-0.0546733
-0.0584865
-0.0621367
-0.0656332
-0.0689842
-0.0721971
-0.0752792
-0.0782367
-0.0810753
-0.0838013
-0.0864191
-0.0889346
-0.0913519
-0.093675
-0.0959083
-0.0980556
-0.100121
-0.102107
-0.104018
-0.105856
-0.107626
-0.10933
-0.110971
-0.112553
-0.114077
-0.115548
-0.116969
-0.118343
-0.119674
-0.120965
-0.12222
-0.123445
-0.124644
-0.125822
-0.126986
-0.128141
-0.129293
-0.130452
-0.131624
-0.132818
-0.134043
-0.135309
-0.136627
-0.138009
-0.139467
-0.141014
-0.142665
-0.144434
-0.146343
-0.148403
-0.150278
-0.151837
-0.153437
-0.155088
-0.156792
-0.158549
-0.16036
-0.162225
-0.164149
-0.166128
-0.168171
-0.170271
-0.172446
-0.174675
-0.177001
-0.17937
-0.181883
-0.184401
-0.187161
-0.189829
-0.192929
-0.195703
-0.199221
-0.201787
-0.205556
0.00411339
0.00921571
0.00281365
-0.00485001
-0.0110592
-0.0168104
-0.0224269
-0.027746
-0.0327812
-0.0375773
-0.0421526
-0.0465172
-0.0506861
-0.0546715
-0.0584848
-0.062135
-0.0656315
-0.0689826
-0.0721956
-0.0752777
-0.0782353
-0.081074
-0.0838
-0.0864179
-0.0889335
-0.0913507
-0.0936739
-0.0959072
-0.0980546
-0.10012
-0.102106
-0.104017
-0.105856
-0.107625
-0.10933
-0.110971
-0.112552
-0.114077
-0.115547
-0.116968
-0.118342
-0.119673
-0.120964
-0.12222
-0.123444
-0.124643
-0.125822
-0.126985
-0.12814
-0.129293
-0.130451
-0.131623
-0.132816
-0.134041
-0.135307
-0.136625
-0.138007
-0.139465
-0.141011
-0.142662
-0.14443
-0.146338
-0.148397
-0.150271
-0.151829
-0.153428
-0.155077
-0.156779
-0.158533
-0.160341
-0.162203
-0.164123
-0.166097
-0.168134
-0.170227
-0.172393
-0.174612
-0.176923
-0.179276
-0.181761
-0.184256
-0.18696
-0.18959
-0.19257
-0.195261
-0.198533
-0.200927
-0.204337
0.00386446
0.00913789
0.0027889
-0.00486936
-0.0110712
-0.0168174
-0.0224308
-0.0277479
-0.0327817
-0.0375769
-0.0421516
-0.0465159
-0.0506846
-0.0546699
-0.0584831
-0.0621332
-0.0656298
-0.0689809
-0.0721939
-0.0752761
-0.0782337
-0.0810725
-0.0837985
-0.0864165
-0.0889321
-0.0913494
-0.0936726
-0.095906
-0.0980535
-0.100118
-0.102105
-0.104016
-0.105855
-0.107625
-0.109329
-0.11097
-0.112551
-0.114076
-0.115547
-0.116968
-0.118341
-0.119672
-0.120963
-0.122219
-0.123443
-0.124642
-0.12582
-0.126984
-0.128139
-0.129291
-0.130449
-0.131621
-0.132814
-0.134039
-0.135304
-0.136622
-0.138003
-0.13946
-0.141005
-0.142655
-0.144421
-0.146328
-0.148384
-0.150256
-0.151812
-0.153408
-0.155054
-0.156753
-0.158503
-0.160306
-0.162163
-0.164076
-0.166042
-0.16807
-0.170152
-0.172303
-0.174506
-0.176794
-0.179123
-0.181568
-0.184027
-0.186655
-0.189224
-0.192056
-0.194635
-0.197638
-0.199846
-0.202903
0.0036351
0.00904061
0.00275867
-0.00489398
-0.0110878
-0.016828
-0.0224376
-0.0277521
-0.032784
-0.0375779
-0.0421517
-0.0465154
-0.0506836
-0.0546686
-0.0584816
-0.0621317
-0.0656281
-0.0689792
-0.0721922
-0.0752744
-0.078232
-0.0810708
-0.0837969
-0.0864149
-0.0889306
-0.0913479
-0.0936712
-0.0959046
-0.0980521
-0.100117
-0.102104
-0.104014
-0.105853
-0.107623
-0.109327
-0.110969
-0.11255
-0.114074
-0.115546
-0.116966
-0.11834
-0.119671
-0.120962
-0.122217
-0.123442
-0.124641
-0.125819
-0.126982
-0.128137
-0.129289
-0.130447
-0.131618
-0.132811
-0.134035
-0.135299
-0.136616
-0.137996
-0.139452
-0.140995
-0.142643
-0.144406
-0.14631
-0.148362
-0.150229
-0.151781
-0.153374
-0.155015
-0.156707
-0.158451
-0.160246
-0.162094
-0.163996
-0.165951
-0.167963
-0.170028
-0.172157
-0.174335
-0.176589
-0.178883
-0.181271
-0.183675
-0.186204
-0.188684
-0.191341
-0.193774
-0.196492
-0.198504
-0.201224
0.00345326
0.00892277
0.00272303
-0.00492384
-0.011109
-0.0168425
-0.0224479
-0.0277592
-0.0327887
-0.0375809
-0.0421534
-0.0465161
-0.0506836
-0.0546681
-0.0584807
-0.0621305
-0.0656268
-0.0689778
-0.0721907
-0.0752728
-0.0782304
-0.0810692
-0.0837953
-0.0864133
-0.088929
-0.0913463
-0.0936696
-0.095903
-0.0980505
-0.100116
-0.102102
-0.104013
-0.105852
-0.107622
-0.109326
-0.110967
-0.112548
-0.114073
-0.115544
-0.116965
-0.118339
-0.119669
-0.12096
-0.122216
-0.12344
-0.124639
-0.125817
-0.126979
-0.128134
-0.129285
-0.130443
-0.131613
-0.132805
-0.134028
-0.135291
-0.136606
-0.137983
-0.139437
-0.140977
-0.142622
-0.144381
-0.146279
-0.148325
-0.150185
-0.151731
-0.153317
-0.154949
-0.156633
-0.158366
-0.160149
-0.161983
-0.163868
-0.165804
-0.167794
-0.169832
-0.171928
-0.17407
-0.176275
-0.178515
-0.180826
-0.18315
-0.185555
-0.187912
-0.190368
-0.19262
-0.195048
-0.196856
-0.199262
0.00335119
0.00878513
0.00268289
-0.0049586
-0.0111345
-0.0168607
-0.0224616
-0.0277696
-0.0327963
-0.0375864
-0.0421572
-0.0465186
-0.0506852
-0.0546689
-0.0584809
-0.0621302
-0.0656262
-0.0689769
-0.0721896
-0.0752715
-0.078229
-0.0810677
-0.0837937
-0.0864117
-0.0889274
-0.0913447
-0.0936679
-0.0959014
-0.0980489
-0.100114
-0.102101
-0.104011
-0.10585
-0.10762
-0.109324
-0.110966
-0.112547
-0.114072
-0.115543
-0.116963
-0.118337
-0.119668
-0.120958
-0.122214
-0.123438
-0.124636
-0.125813
-0.126976
-0.128129
-0.12928
-0.130436
-0.131605
-0.132796
-0.134017
-0.135277
-0.13659
-0.137964
-0.139414
-0.140949
-0.142588
-0.14434
-0.14623
-0.148266
-0.150114
-0.151651
-0.153226
-0.154846
-0.156515
-0.158232
-0.159996
-0.161809
-0.163669
-0.165576
-0.167532
-0.169532
-0.17158
-0.173668
-0.175804
-0.177967
-0.180177
-0.182389
-0.18464
-0.186837
-0.189071
-0.191113
-0.193252
-0.194851
-0.196964
0.00336349
0.00863095
0.00264024
-0.00499758
-0.0111637
-0.0168821
-0.0224786
-0.0277831
-0.0328069
-0.0375946
-0.0421636
-0.0465235
-0.0506888
-0.0546715
-0.0584826
-0.0621313
-0.0656267
-0.0689769
-0.0721893
-0.075271
-0.0782282
-0.0810668
-0.0837926
-0.0864106
-0.0889261
-0.0913433
-0.0936665
-0.0958999
-0.0980474
-0.100112
-0.102099
-0.10401
-0.105849
-0.107619
-0.109323
-0.110964
-0.112545
-0.11407
-0.115541
-0.116961
-0.118335
-0.119665
-0.120956
-0.122211
-0.123435
-0.124632
-0.125809
-0.12697
-0.128122
-0.129272
-0.130427
-0.131594
-0.132782
-0.133999
-0.135257
-0.136565
-0.137934
-0.139377
-0.140905
-0.142535
-0.144277
-0.146153
-0.148173
-0.150004
-0.151526
-0.153085
-0.154686
-0.156333
-0.158025
-0.159762
-0.161542
-0.163366
-0.165231
-0.167137
-0.16908
-0.171061
-0.173072
-0.175114
-0.177171
-0.179248
-0.181314
-0.183382
-0.185385
-0.187376
-0.189188
-0.191042
-0.192433
-0.194269
0.00352356
0.0084681
0.00259791
-0.00503991
-0.0111957
-0.0169054
-0.0224976
-0.0277991
-0.03282
-0.0376053
-0.0421724
-0.0465306
-0.0506945
-0.0546761
-0.0584863
-0.0621341
-0.0656288
-0.0689784
-0.0721903
-0.0752715
-0.0782284
-0.0810667
-0.0837923
-0.08641
-0.0889254
-0.0913425
-0.0936655
-0.0958988
-0.0980462
-0.100111
-0.102098
-0.104008
-0.105847
-0.107617
-0.109321
-0.110962
-0.112543
-0.114068
-0.115539
-0.116959
-0.118333
-0.119663
-0.120953
-0.122207
-0.12343
-0.124627
-0.125802
-0.126962
-0.128113
-0.12926
-0.130412
-0.131576
-0.13276
-0.133974
-0.135225
-0.136527
-0.137887
-0.139321
-0.140838
-0.142454
-0.14418
-0.146035
-0.148031
-0.149837
-0.151336
-0.15287
-0.154443
-0.156057
-0.157713
-0.159409
-0.161142
-0.162912
-0.164716
-0.166552
-0.168415
-0.170303
-0.172207
-0.174125
-0.176041
-0.177953
-0.179836
-0.18169
-0.183469
-0.185203
-0.186772
-0.188347
-0.18953
-0.1911
0.00385811
0.00831282
0.00255927
-0.00508454
-0.0112293
-0.0169291
-0.0225174
-0.0278162
-0.0328345
-0.0376177
-0.042183
-0.0465397
-0.0507023
-0.0546826
-0.0584918
-0.0621387
-0.0656326
-0.0689815
-0.0721928
-0.0752735
-0.0782299
-0.0810678
-0.0837931
-0.0864106
-0.0889256
-0.0913425
-0.0936654
-0.0958984
-0.0980456
-0.100111
-0.102097
-0.104007
-0.105846
-0.107616
-0.10932
-0.110961
-0.112542
-0.114066
-0.115537
-0.116957
-0.11833
-0.119659
-0.120949
-0.122202
-0.123424
-0.12462
-0.125793
-0.126951
-0.128099
-0.129243
-0.130391
-0.13155
-0.132728
-0.133935
-0.135179
-0.13647
-0.137818
-0.139237
-0.140737
-0.142332
-0.144033
-0.145859
-0.147817
-0.149586
-0.151052
-0.152549
-0.15408
-0.155647
-0.15725
-0.158886
-0.160552
-0.162246
-0.163964
-0.165702
-0.167455
-0.169217
-0.17098
-0.172738
-0.174476
-0.176188
-0.177853
-0.179468
-0.180999
-0.182467
-0.183785
-0.185088
-0.186065
-0.187373
0.00437872
0.00818481
0.00253303
-0.0051296
-0.0112635
-0.0169516
-0.0225361
-0.0278328
-0.0328488
-0.0376303
-0.0421943
-0.0465497
-0.0507111
-0.0546905
-0.0584987
-0.0621448
-0.0656379
-0.0689861
-0.0721968
-0.0752769
-0.0782328
-0.0810703
-0.0837952
-0.0864123
-0.088927
-0.0913436
-0.0936663
-0.0958991
-0.0980461
-0.100111
-0.102097
-0.104007
-0.105846
-0.107616
-0.109319
-0.11096
-0.112541
-0.114065
-0.115535
-0.116955
-0.118327
-0.119655
-0.120944
-0.122196
-0.123416
-0.12461
-0.125781
-0.126936
-0.128079
-0.129219
-0.130361
-0.131512
-0.132682
-0.133878
-0.135109
-0.136385
-0.137715
-0.139113
-0.140587
-0.142151
-0.143815
-0.145596
-0.147501
-0.149216
-0.150633
-0.152076
-0.153546
-0.155046
-0.156573
-0.158125
-0.159696
-0.161284
-0.162884
-0.164491
-0.166097
-0.167696
-0.16928
-0.170839
-0.172362
-0.173841
-0.175259
-0.176614
-0.177882
-0.179077
-0.180141
-0.181179
-0.181948
-0.182996
0.00506882
0.00809567
0.0025377
-0.00517049
-0.0112965
-0.0169712
-0.0225521
-0.0278473
-0.0328614
-0.0376414
-0.0422044
-0.046559
-0.0507196
-0.0546983
-0.0585058
-0.0621513
-0.0656439
-0.0689915
-0.0722017
-0.0752813
-0.0782368
-0.0810739
-0.0837983
-0.0864152
-0.0889295
-0.0913458
-0.0936682
-0.0959008
-0.0980475
-0.100112
-0.102098
-0.104008
-0.105847
-0.107616
-0.109319
-0.11096
-0.11254
-0.114064
-0.115533
-0.116952
-0.118324
-0.119651
-0.120938
-0.122188
-0.123406
-0.124596
-0.125764
-0.126914
-0.128051
-0.129184
-0.130317
-0.131458
-0.132614
-0.133795
-0.135007
-0.136261
-0.137564
-0.13893
-0.140366
-0.141885
-0.143495
-0.145211
-0.14704
-0.148676
-0.150023
-0.15139
-0.152775
-0.154179
-0.155601
-0.157036
-0.158478
-0.159924
-0.161367
-0.162802
-0.164221
-0.165617
-0.166982
-0.168307
-0.169582
-0.1708
-0.17195
-0.173029
-0.174024
-0.174946
-0.175754
-0.176531
-0.177092
-0.177881
0.00586793
0.00804467
0.00259538
-0.00519788
-0.0113248
-0.0169853
-0.0225634
-0.0278578
-0.0328703
-0.0376493
-0.0422118
-0.0465659
-0.0507261
-0.0547044
-0.0585116
-0.0621567
-0.065649
-0.0689964
-0.0722063
-0.0752856
-0.0782408
-0.0810776
-0.0838018
-0.0864184
-0.0889325
-0.0913485
-0.0936707
-0.0959031
-0.0980496
-0.100114
-0.1021
-0.10401
-0.105848
-0.107617
-0.10932
-0.11096
-0.11254
-0.114063
-0.115532
-0.11695
-0.11832
-0.119645
-0.12093
-0.122178
-0.123392
-0.124578
-0.12574
-0.126883
-0.128012
-0.129133
-0.130253
-0.131378
-0.132516
-0.133673
-0.134858
-0.136079
-0.137345
-0.138663
-0.140045
-0.141498
-0.143031
-0.144655
-0.146374
-0.147901
-0.14915
-0.15041
-0.151677
-0.152953
-0.154233
-0.155512
-0.156786
-0.158048
-0.159293
-0.160514
-0.161704
-0.162856
-0.163964
-0.165021
-0.16602
-0.166956
-0.167823
-0.16862
-0.169339
-0.16999
-0.170547
-0.17107
-0.171426
-0.171957
0.00668544
0.0080042
0.00271007
-0.0051996
-0.011342
-0.0169899
-0.0225672
-0.0278625
-0.032874
-0.0376524
-0.0422147
-0.0465688
-0.0507289
-0.0547071
-0.0585144
-0.0621595
-0.0656518
-0.0689991
-0.072209
-0.0752883
-0.0782434
-0.0810802
-0.0838043
-0.0864209
-0.0889349
-0.0913508
-0.0936729
-0.0959052
-0.0980516
-0.100116
-0.102101
-0.104011
-0.105849
-0.107618
-0.109321
-0.11096
-0.11254
-0.114062
-0.11553
-0.116946
-0.118315
-0.119638
-0.12092
-0.122163
-0.123373
-0.124552
-0.125706
-0.126838
-0.127955
-0.129061
-0.130162
-0.131264
-0.132374
-0.133498
-0.134644
-0.135818
-0.137028
-0.138281
-0.139584
-0.140945
-0.142369
-0.143865
-0.145431
-0.146808
-0.147924
-0.149039
-0.150149
-0.151253
-0.152349
-0.15343
-0.15449
-0.155525
-0.156528
-0.157495
-0.158419
-0.159295
-0.160118
-0.160884
-0.16159
-0.162234
-0.162813
-0.163327
-0.163774
-0.16416
-0.164472
-0.164751
-0.164905
-0.165186
0.00748121
0.00794445
0.00284244
-0.0051832
-0.0113474
-0.0169825
-0.0225615
-0.0278598
-0.0328712
-0.0376496
-0.0422123
-0.0465667
-0.0507271
-0.0547056
-0.0585131
-0.0621585
-0.065651
-0.0689986
-0.0722087
-0.0752882
-0.0782435
-0.0810804
-0.0838047
-0.0864214
-0.0889354
-0.0913514
-0.0936736
-0.0959059
-0.0980523
-0.100116
-0.102102
-0.104012
-0.10585
-0.107618
-0.109321
-0.11096
-0.112538
-0.11406
-0.115526
-0.116941
-0.118306
-0.119626
-0.120904
-0.122142
-0.123344
-0.124514
-0.125656
-0.126774
-0.127873
-0.128957
-0.130031
-0.131101
-0.132172
-0.133249
-0.134339
-0.135448
-0.136579
-0.13774
-0.138935
-0.140169
-0.141444
-0.142764
-0.144126
-0.145302
-0.146242
-0.147168
-0.148076
-0.148964
-0.14983
-0.150668
-0.151472
-0.15224
-0.152966
-0.153646
-0.154278
-0.154858
-0.155383
-0.155852
-0.156264
-0.156618
-0.156915
-0.157157
-0.157342
-0.157479
-0.157559
-0.157611
-0.157576
-0.157623
0.0082126
0.00789643
0.00296468
-0.00517174
-0.0113562
-0.0169755
-0.022555
-0.027855
-0.0328655
-0.0376438
-0.0422068
-0.0465615
-0.0507221
-0.0547008
-0.0585087
-0.0621544
-0.0656473
-0.0689951
-0.0722055
-0.0752853
-0.0782408
-0.081078
-0.0838026
-0.0864195
-0.0889337
-0.0913499
-0.0936722
-0.0959047
-0.0980512
-0.100115
-0.102101
-0.104011
-0.105848
-0.107617
-0.109319
-0.110957
-0.112535
-0.114055
-0.115519
-0.116931
-0.118294
-0.119609
-0.12088
-0.122111
-0.123303
-0.12446
-0.125586
-0.126684
-0.127758
-0.128811
-0.129848
-0.130873
-0.131889
-0.132902
-0.133915
-0.134932
-0.135956
-0.136992
-0.13804
-0.139102
-0.140179
-0.141268
-0.142364
-0.143284
-0.144002
-0.144693
-0.145355
-0.145984
-0.146579
-0.147135
-0.14765
-0.148121
-0.148545
-0.14892
-0.149246
-0.149521
-0.149746
-0.14992
-0.150044
-0.150121
-0.150151
-0.150137
-0.150081
-0.149988
-0.149856
-0.1497
-0.149492
-0.149324
0.00870373
0.007886
0.00305718
-0.00515979
-0.011361
-0.0169721
-0.0225533
-0.0278548
-0.0328647
-0.037643
-0.0422057
-0.0465598
-0.0507205
-0.0546993
-0.058507
-0.0621526
-0.0656454
-0.0689933
-0.0722037
-0.0752835
-0.0782391
-0.0810764
-0.083801
-0.0864179
-0.0889323
-0.0913485
-0.0936708
-0.0959033
-0.0980499
-0.100114
-0.1021
-0.104009
-0.105847
-0.107615
-0.109316
-0.110954
-0.11253
-0.114048
-0.115511
-0.11692
-0.118278
-0.119588
-0.120852
-0.122072
-0.123252
-0.124394
-0.125501
-0.126575
-0.127618
-0.128635
-0.129628
-0.130598
-0.131551
-0.132486
-0.133408
-0.134318
-0.135217
-0.136107
-0.136986
-0.137854
-0.138707
-0.139542
-0.140351
-0.140998
-0.141484
-0.141934
-0.142347
-0.14272
-0.143052
-0.14334
-0.143584
-0.143783
-0.143936
-0.144044
-0.144106
-0.144123
-0.144098
-0.144031
-0.143924
-0.143781
-0.143603
-0.143393
-0.143154