/*--------------------------------*- C++ -*----------------------------------*\
| =========                 |                                                 |
| \\      /  F ield         | OpenFOAM: The Open Source CFD Toolbox           |
|  \\    /   O peration     | Version:  2306                                  |
|   \\  /    A nd           | Website:  www.openfoam.com                      |
|    \\/     M anipulation  |                                                 |
\*---------------------------------------------------------------------------*/
FoamFile
{
    version     2.0;
    format      ascii;
    arch        "LSB;label=32;scalar=64";
    class       volScalarField;
    location    "1900";
    object      epsilon;
}
// * * * * * * * * * * * * * * * * * * * * * * * * * * * * * * * * * * * * * //

dimensions      [0 2 -3 0 0 0 0];

internalField   nonuniform List<scalar> 
20540
(
13712.8
41407.7
13705.9
41398.7
13676.5
41363
13622.8
41298.5
13540.7
41199.8
13424.7
41060.3
13268.9
40872
13066.2
40625.6
12808.4
40310
12486.6
39912.2
12090.6
39417
11610.2
38806.7
11035
38061.1
10356.3
37157.1
9567.9
36063.5
8667.14
34741.4
7658.28
33144.2
6556.23
31218
5390.8
28905.8
4210.86
26164.3
3086.31
22968.8
2103.29
19332.8
1343.12
15333.4
841.018
11134.6
558.803
7023.13
417.323
3530.49
347.844
1391.93
307.582
552.221
279.384
318.442
266.128
251.923
264.622
232.003
265.039
226.789
264.877
227.264
264.329
233.729
266.407
255.871
281.303
325.018
310.825
570.799
353.12
1446.11
429.381
3656.49
587.599
7257.87
906.774
11503.1
1477.69
15852
2342.77
20014.2
3462.71
23814.1
4749.41
27165.2
6109.47
30048.3
7465.45
32485.5
8761.22
34520.2
9960.63
36203.3
11043.8
37593.1
11999.6
38743.9
12826.6
39700.2
13531.2
40496.4
14124.1
41156.5
14617.3
41699.6
15022.9
42142.6
15352.5
42500.2
15616.7
42785.3
15824.7
43008.8
15984.9
43180.4
16104.3
43308.1
16189.2
43398.7
16244.8
43458.2
16275.4
43491.3
16284.9
43502.1
6.37789e+06
3.37839e+06
2.86482e+06
2.61634e+06
2.46012e+06
2.35418e+06
2.27847e+06
2.2214e+06
2.17708e+06
2.1418e+06
2.11328e+06
2.08971e+06
2.07014e+06
2.05357e+06
2.03953e+06
2.02747e+06
2.01711e+06
2.00809e+06
2.00026e+06
1.99336e+06
1.98735e+06
1.98198e+06
1.97728e+06
1.97307e+06
1.9693e+06
1.96594e+06
1.96294e+06
1.96023e+06
1.9578e+06
1.9556e+06
1.95362e+06
1.95183e+06
1.9502e+06
1.94874e+06
1.94739e+06
1.94619e+06
1.94509e+06
1.94411e+06
1.94323e+06
1.94246e+06
1.9418e+06
1.94124e+06
1.94079e+06
1.94047e+06
1.94027e+06
1.94022e+06
1.94033e+06
1.94062e+06
1.94112e+06
1.94186e+06
1.94287e+06
1.94419e+06
1.94586e+06
1.94792e+06
1.95044e+06
1.95345e+06
1.95706e+06
1.96126e+06
1.96624e+06
1.97196e+06
1.97865e+06
1.98628e+06
1.99515e+06
2.0036e+06
2.01093e+06
2.01865e+06
2.02691e+06
2.03566e+06
2.04491e+06
2.0547e+06
2.06503e+06
2.07596e+06
2.08746e+06
2.09961e+06
2.11249e+06
2.12598e+06
2.14053e+06
2.15547e+06
2.17238e+06
2.18869e+06
2.20957e+06
2.22635e+06
2.25574e+06
2.27035e+06
2.31532e+06
2.336e+06
2.39407e+06
2.45261e+06
2.00885e+06
1.0695e+06
900727
819739
768970
734542
709964
691464
677108
665689
656460
648842
642517
637165
632632
628739
625396
622484
619961
617735
615795
614064
612550
611192
609979
608894
607927
607054
606271
605564
604923
604349
603823
603351
602917
602530
602175
601858
601574
601325
601108
600925
600778
600667
600598
600573
600598
600679
600824
601041
601344
601737
602242
602861
603625
604534
605626
606900
608407
610137
612165
614472
617156
619704
621915
624250
626735
629366
632146
635080
638172
641438
644866
648481
652294
656285
660562
664946
669865
674606
680582
685394
693630
697748
709798
715074
729200
757406
1.02498e+06
586163
497323
453977
426403
407532
393998
383784
375841
369516
364398
360170
356658
353685
351166
349002
347144
345524
344120
342882
341802
340838
339995
339239
338563
337959
337420
336934
336497
336103
335746
335426
335133
334869
334627
334411
334213
334036
333877
333737
333615
333512
333429
333366
333325
333308
333319
333360
333436
333552
333713
333923
334195
334527
334938
335428
336016
336702
337513
338444
339535
340775
342216
343581
344766
346016
347344
348747
350228
351788
353429
355156
356967
358868
360871
362953
365185
367445
369990
372393
375442
377825
381904
383944
389534
391732
398441
403969
624194
375595
322012
295395
278148
266195
257562
251021
245919
241847
238547
235819
233550
231628
229999
228598
227395
226345
225436
224633
223933
223308
222761
222271
221832
221440
221090
220774
220490
220234
220002
219794
219603
219432
219274
219134
219005
218889
218785
218694
218614
218546
218490
218448
218419
218406
218410
218433
218477
218547
218644
218773
218939
219143
219396
219697
220060
220482
220982
221555
222226
222988
223873
224709
225434
226200
227010
227864
228764
229709
230701
231742
232831
233968
235164
236397
237717
239039
240526
241907
243655
244991
247255
248376
251371
252089
256774
248569
420148
259629
224746
207284
195746
187620
181697
177184
173650
170820
168523
166620
165035
163692
162552
161572
160729
159993
159355
158792
158301
157862
157477
157133
156825
156549
156303
156081
155881
155701
155537
155391
155256
155136
155025
154925
154834
154752
154679
154614
154557
154508
154468
154436
154414
154402
154402
154414
154440
154484
154546
154628
154735
154867
155031
155226
155461
155736
156061
156433
156869
157363
157937
158476
158943
159438
159959
160507
161082
161685
162316
162976
163662
164377
165124
165892
166706
167518
168418
169254
170286
171074
172369
172992
174703
174703
178061
168232
301652
187916
163819
151956
143976
138249
134026
130783
128229
126177
124505
123117
121959
120977
120142
119423
118804
118264
117795
117381
117019
116696
116413
116159
115932
115728
115547
115383
115236
115103
114982
114874
114774
114685
114603
114529
114461
114401
114346
114297
114254
114217
114186
114162
114143
114132
114130
114135
114150
114177
114216
114270
114340
114426
114535
114664
114820
115002
115218
115465
115754
116081
116460
116816
117123
117448
117790
118148
118524
118915
119323
119749
120188
120645
121118
121603
122109
122618
123162
123679
124282
124755
125491
125827
126794
126534
128678
121603
226459
140428
122746
114502
108901
104799
101728
99348.7
97460.6
95934.6
94686.4
93647.6
92778.2
92039.2
91409.7
90867.3
90399.9
89991.2
89636.6
89322.6
89048.6
88803.6
88588.4
88395.9
88223.1
88068.1
87930.1
87805.3
87693.1
87592
87499.9
87417.2
87341.3
87273
87210.2
87153.9
87102.1
87055.5
87013.3
86975.7
86942.4
86913.3
86888.7
86868.4
86853.1
86842.6
86838
86839.3
86847
86862.7
86887.2
86921.1
86966.5
87023.1
87094.4
87179.7
87283.2
87403.9
87547.4
87711
87903
88119.4
88370.5
88605
88806.9
89020.7
89245
89478.9
89722.8
89976.5
90239.2
90512.9
90792.3
91083.5
91378.3
91685
91992.4
92310.9
92629.3
92949.6
93286.4
93569.4
93970.2
94138.5
94644.8
94370.6
95443.8
91935.9
175612
107587
93723.2
87858.3
83906.5
80956.7
78711.2
76950.3
75540
74391.8
73447.3
72658.1
71995.1
71430.2
70947.7
70531.3
70171.9
69857.1
69583.7
69341.2
69129.4
68939.9
68773.3
68624.1
68490.1
68369.8
68262.6
68165.6
68078.5
67999.8
67928.2
67863.8
67804.6
67751.3
67702.2
67658.2
67617.7
67581.1
67547.9
67518.1
67491.7
67468.2
67448.3
67431.3
67418
67408.1
67402.3
67400.8
67403.7
67411.8
67426.1
67446.8
67475.3
67511.3
67557.2
67612.2
67679.6
67758.1
67852
67958.6
68084
68224.8
68388.2
68540.4
68670.6
68808.6
68953
69103
69258.3
69419.6
69584.7
69757.1
69929.6
70111.2
70288.7
70478.1
70656.2
70851.5
71025.6
71219.8
71391.7
71555.1
71750.8
71824.7
72043.1
71847.4
72155.3
71668
139560
84198.6
72577.1
68255.4
65457.6
63345.6
61709.8
60409.2
59355.4
58489.3
57771.8
57168.8
56659.9
56224.7
55851.8
55529.1
55250.1
55005
54791.9
54602.5
54437
54288.6
54158
54041.1
53935.8
53841.1
53756.8
53680.5
53611.8
53549.9
53493.3
53442.5
53395.6
53353.4
53314.6
53279.6
53247.4
53218.3
53191.8
53167.9
53146.5
53127.4
53110.8
53096.5
53084.8
53075.5
53069.1
53065.6
53065.3
53068.4
53075.6
53087.2
53103.9
53125.5
53153.8
53187.8
53230
53279.1
53338.3
53405.2
53484.3
53572.6
53675.2
53770.6
53851.5
53937.3
54026.7
54119.3
54214.1
54312.5
54411.3
54515.5
54616.1
54724.3
54824.1
54935.7
55029.9
55143.6
55227.8
55337.7
55410.6
55497
55568.4
55590.6
55638.9
55532
55400.6
56244.3
113052
67183.3
56864.6
53501.4
51498.3
49997.4
48819
47868.3
47087.6
46438.5
45895.7
45436.2
45046
44710.6
44422.1
44171.5
43954.2
43762.7
43596
43447.4
43317.3
43200.5
43097.6
43005.2
42922
42847
42780.2
42719.6
42665.1
42615.9
42571
42530.5
42493.1
42459.4
42428.3
42400.4
42374.6
42351.1
42329.8
42310.4
42293
42277.2
42263.4
42251.1
42240.8
42232.2
42225.6
42220.9
42218.4
42218.4
42220.7
42225.9
42234.5
42246.2
42262
42281.4
42306
42334.6
42369.5
42408.8
42455.7
42507.5
42567.9
42624
42671.1
42720.9
42772.5
42825.8
42879.3
42935.1
42989.2
43047.4
43100.2
43159.3
43208.5
43267.9
43309.6
43368.3
43399.3
43450.9
43468.5
43503
43504.1
43498.4
43464.3
43387.2
43106.2
44172.6
92997.9
54591.8
45045.5
42233.4
40753.4
39689.9
38853.6
38171.1
37602.5
37123.3
36717.9
36371.5
36075.1
35818.5
35596.6
35402.9
35234.4
35085.2
34955.2
34838.7
34736.6
34644.7
34563.5
34490.6
34424.7
34365.2
34312.2
34264.1
34220.7
34181.5
34145.7
34113.3
34083.4
34056.5
34031.5
34009.1
33988.3
33969.3
33952
33936.2
33922
33908.9
33897.4
33886.9
33877.9
33870
33863.4
33858.2
33854.4
33852.1
33851.4
33852.4
33855.4
33860.2
33867.6
33876.8
33889.3
33903.7
33922
33942.3
33966.8
33993.7
34025.2
34054.3
34078.4
34103.9
34129.8
34156.6
34182.4
34209.7
34234.3
34261.9
34283.8
34310.2
34327.8
34352
34363
34384.1
34386.5
34396.9
34388.1
34385.1
34357.8
34332.5
34257.3
34190.2
33905.3
34793
77471.3
45134
36089
33554.5
32390.8
31626
31039.7
30560.6
30156.9
29811.7
29515.7
29259.8
29038.6
28845.6
28677.3
28529.6
28400.5
28285.5
28184.9
28094.4
28015
27943.1
27879.5
27822.3
27770.4
27723.4
27681.5
27643.4
27609
27578
27549.4
27523.7
27499.8
27478.3
27458.3
27440.3
27423.6
27408.3
27394.3
27381.5
27369.8
27359
27349.4
27340.5
27332.6
27325.5
27319.3
27313.9
27309.4
27305.9
27303.2
27301.5
27300.9
27301.3
27302.9
27305.4
27309.7
27314.7
27321.7
27329.2
27338.8
27349
27361.1
27372.2
27381.1
27390.5
27399.5
27408.9
27416.7
27425.5
27431.2
27439
27441.7
27447
27445.9
27447
27441.6
27438.2
27424.8
27414.7
27388.1
27369.3
27322.5
27289.1
27201.7
27136.2
26892
27551
65215.1
37928.7
29270.6
26843.8
25843.2
25265.1
24851.9
24522.5
24244.8
24004.5
23795.6
23612.5
23452.3
23310.9
23186.6
23076.5
22979.7
22892.8
22816.6
22747.4
22686.6
22631.3
22582.3
22537.9
22497.6
22461
22428.3
22398.4
22371.5
22347.1
22324.6
22304.4
22285.5
22268.4
22252.6
22238.2
22224.9
22212.7
22201.4
22191.1
22181.6
22172.8
22164.8
22157.3
22150.6
22144.4
22138.7
22133.5
22128.8
22124.6
22120.9
22117.5
22114.8
22112.3
22110.5
22108.7
22107.7
22106.6
22106.3
22105.6
22105.5
22105.1
22104.8
22104.4
22103.7
22102.9
22101.4
22099.8
22096.6
22093.8
22088.2
22084
22075.2
22068.8
22055.8
22046.5
22028
22015.2
21989.4
21971.5
21934.5
21909.6
21855.6
21818.8
21734
21669.8
21471
21944.9
55371.2
32359.8
24063
21652
20707.5
20227.4
19922.7
19696.5
19511.1
19350.8
19210.1
19085.1
18974.2
18875.1
18786.9
18707.9
18637.9
18574.4
18518.4
18467.2
18422
18380.6
18343.7
18310.3
18279.7
18251.8
18226.8
18203.9
18183.2
18164.5
18147.2
18131.5
18116.8
18103.6
18091.2
18080
18069.6
18059.9
18051.1
18042.9
18035.3
18028.2
18021.8
18015.6
18010
18004.6
17999.6
17994.8
17990.2
17985.9
17981.8
17977.7
17973.8
17969.7
17965.9
17961.6
17957.5
17952.8
17948.2
17942.6
17936.8
17930
17922.2
17915.2
17908.7
17902.1
17894.2
17886.7
17876.8
17868
17855.5
17845.3
17829.6
17817.7
17797.9
17784
17758.9
17742.4
17710.6
17690.1
17649.4
17622.9
17569.1
17532.2
17456.1
17395.4
17236.9
17575.7
47361.1
27988.1
20073.4
17640.5
16685.6
16237.3
15987.5
15824.1
15700.9
15598.2
15508.9
15429
15357.4
15292.2
15233.6
15180.2
15132.5
15088.5
15049.7
15013.5
14981.6
14952
14925.5
14901.3
14879
14858.6
14840.3
14823.4
14808
14794.2
14781.2
14769.6
14758.5
14748.6
14739.2
14730.8
14722.8
14715.5
14708.7
14702.4
14696.5
14691
14685.9
14681
14676.4
14671.9
14667.7
14663.5
14659.4
14655.3
14651.2
14646.9
14642.6
14637.9
14633.1
14627.6
14622
14615.4
14608.5
14600.5
14591.6
14581.6
14569.9
14559.5
14549.9
14540.5
14529.4
14518.9
14505.8
14494.2
14478.5
14465.7
14447
14432.9
14410.4
14394.8
14367.6
14350.2
14317.3
14296.7
14256.8
14231.1
14181.3
14146.5
14080.7
14025.3
13901.3
14143.5
40779.7
24494.1
17005.4
14547.7
13548.1
13086.6
12850.2
12715.3
12627.6
12562
12508.4
12461.5
12419.6
12381.1
12346
12313.4
12284
12256.3
12231.7
12208.3
12187.5
12168
12150.4
12134.2
12119.1
12105.1
12092.6
12080.9
12070.3
12060.6
12051.6
12043.4
12035.5
12028.5
12021.8
12015.8
12010.1
12004.7
11999.8
11995.2
11990.9
11986.8
11983
11979.2
11975.7
11972.1
11968.7
11965.2
11961.7
11958.1
11954.3
11950.3
11946.1
11941.4
11936.4
11930.7
11924.6
11917.4
11909.7
11900.7
11890.7
11879.5
11866.4
11854.7
11844.1
11833.7
11821.5
11810.1
11795.9
11783.6
11767.1
11753.7
11734.6
11720.2
11697.8
11682.2
11655.9
11638.9
11607.9
11588.5
11551.8
11528.3
11483.9
11453.1
11396.7
11348.4
11252.6
11424.8
35326.6
21638.8
14633.6
12167.9
11113
10612.8
10360.5
10226.8
10151.5
10104.4
10071.8
10046.4
10025.2
10006.1
9988.78
9972.37
9957.51
9942.93
9930.04
9917.2
9905.84
9894.81
9884.79
9875.44
9866.53
9858.15
9850.63
9843.52
9836.99
9831.06
9825.4
9820.29
9815.31
9810.87
9806.59
9802.73
9798.99
9795.5
9792.27
9789.17
9786.32
9783.48
9780.88
9778.23
9775.73
9773.13
9770.58
9767.85
9765.06
9762.06
9758.91
9755.4
9751.65
9747.33
9742.71
9737.26
9731.36
9724.45
9716.8
9708.07
9698.1
9687.08
9674.09
9662.59
9652.05
9641.9
9629.9
9618.84
9605.13
9593.18
9577.51
9564.66
9546.74
9532.98
9512.41
9497.66
9473.93
9457.99
9430.41
9412.77
9380.32
9359.78
9320.98
9294.8
9247.2
9207.3
9133.01
9255.3
30774.4
19235
12785.4
10338.5
9232.68
8683.94
8398.5
8246.95
8165.72
8121.11
8096.17
8081.26
8071.9
8065.15
8059.78
8054.84
8050.7
8046.11
8042.33
8037.9
8034.14
8030.09
8026.36
8022.75
8019.1
8015.5
8012.31
8009.15
8006.21
8003.55
8000.9
7998.51
7996.08
7993.94
7991.8
7989.89
7987.97
7986.14
7984.44
7982.77
7981.23
7979.62
7978.14
7976.56
7975.04
7973.36
7971.67
7969.76
7967.76
7965.49
7963.02
7960.2
7957.11
7953.47
7949.46
7944.7
7939.43
7933.25
7926.28
7918.37
7909.22
7899.17
7887.22
7876.7
7867.01
7857.73
7846.76
7836.64
7824.24
7813.3
7799.29
7787.54
7771.7
7759.11
7741.17
7727.67
7707.22
7692.68
7669.16
7653.25
7625.77
7607.78
7574.98
7553.2
7513.47
7482.01
7424.28
7511.09
26929.3
17148.9
11328
8930.3
7786.91
7190.79
6865.48
6684.96
6585.16
6530.53
6501.88
6487.64
6481.77
6480.39
6481.18
6482.93
6485.55
6487.69
6490.27
6491.98
6493.9
6495.22
6496.42
6497.4
6498.01
6498.35
6498.74
6498.91
6499.03
6499.15
6499.1
6499.06
6498.88
6498.76
6498.52
6498.34
6498.05
6497.72
6497.42
6497.04
6496.7
6496.22
6495.8
6495.21
6494.62
6493.83
6492.97
6491.91
6490.7
6489.2
6487.48
6485.41
6483.06
6480.21
6476.99
6473.1
6468.68
6463.48
6457.5
6450.74
6442.79
6434.1
6423.69
6414.5
6406.06
6397.92
6388.4
6379.5
6368.8
6359.14
6347.15
6336.72
6323.3
6312.08
6297
6284.93
6267.9
6254.87
6235.42
6221.23
6198.62
6182.87
6155.97
6137.78
6105.44
6081.15
6036.63
6098.08
23566
15341.7
10158.3
7840.45
6677.06
6041.74
5677.65
5464.37
5339.25
5266.44
5225.65
5204.05
5194.41
5191.91
5193.4
5197.05
5202.38
5207.79
5213.83
5219.22
5224.72
5229.62
5234.24
5238.48
5242.24
5245.56
5248.71
5251.5
5254.04
5256.43
5258.49
5260.44
5262.1
5263.7
5265.07
5266.37
5267.5
5268.47
5269.4
5270.17
5270.9
5271.43
5271.96
5272.29
5272.54
5272.56
5272.49
5272.28
5271.82
5271.06
5270.1
5268.82
5267.21
5265.18
5262.78
5259.81
5256.32
5252.18
5247.3
5241.78
5235.19
5227.95
5219.25
5211.51
5204.44
5197.53
5189.57
5181.95
5173.03
5164.71
5154.77
5145.74
5134.67
5124.89
5112.54
5101.95
5088.08
5076.62
5060.86
5048.4
5030.17
5016.51
4994.97
4979.74
4954.06
4935.57
4901.56
4944.88
20491.8
13760.6
9191.64
6984.92
5821.92
5159.64
4763.14
4519
4367.12
4272.49
4214.64
4180.22
4161.31
4152.24
4149.81
4151.01
4155.04
4160.31
4166.82
4173.3
4180.11
4186.64
4192.99
4199.01
4204.64
4209.81
4214.75
4219.3
4223.53
4227.54
4231.13
4234.56
4237.62
4240.55
4243.17
4245.65
4247.92
4249.96
4251.89
4253.61
4255.24
4256.64
4257.98
4259.09
4260.12
4260.89
4261.54
4261.98
4262.16
4262.1
4261.89
4261.32
4260.44
4259.2
4257.56
4255.47
4252.88
4249.76
4245.97
4241.63
4236.38
4230.55
4223.53
4217.17
4211.43
4205.7
4199.22
4192.85
4185.59
4178.57
4170.5
4162.83
4153.87
4145.52
4135.55
4126.46
4115.3
4105.43
4092.81
4082.09
4067.59
4055.97
4039
4026.47
4006.41
3992.49
3966.78
3997.17
17542.7
12331.6
8353.06
6292.09
5153.09
4479
4059.87
3790.72
3614.85
3498.76
3422.49
3372.74
3341.38
3322.32
3312.12
3307.41
3307.35
3309.06
3313.26
3318.31
3324.12
3330.29
3336.55
3342.78
3348.83
3354.6
3360.21
3365.52
3370.55
3375.38
3379.82
3384.1
3388.01
3391.76
3395.2
3398.46
3401.5
3404.29
3406.94
3409.34
3411.64
3413.68
3415.64
3417.35
3418.97
3420.33
3421.57
3422.55
3423.37
3423.91
3424.21
3424.17
3424
3423.47
3422.52
3421.19
3419.39
3417.17
3414.37
3411.09
3407.06
3402.48
3396.97
3391.87
3387.31
3382.66
3377.48
3372.25
3366.44
3360.64
3354.17
3347.79
3340.6
3333.61
3325.63
3317.99
3309.08
3300.78
3290.75
3281.75
3270.33
3260.69
3247.5
3237.41
3222.01
3211.65
3192.4
3213.58
14596.4
10947
7567.61
5696.11
4610.06
3942.69
3513.46
3228
3033.96
2899.97
2807.01
2742.3
2697.81
2667.44
2647.62
2634.89
2628.04
2624.47
2624.3
2625.52
2628.33
2632.32
2636.74
2641.63
2646.65
2651.72
2656.77
2661.74
2666.6
2671.37
2675.86
2680.24
2684.34
2688.31
2692.02
2695.57
2698.92
2702.04
2705.03
2707.79
2710.43
2712.83
2715.15
2717.22
2719.21
2720.94
2722.56
2723.91
2725.15
2726.11
2726.88
2727.4
2727.57
2727.5
2727.13
2726.49
2725.33
2723.85
2721.87
2719.48
2716.46
2712.95
2708.71
2704.7
2701.15
2697.44
2693.36
2689.15
2684.55
2679.83
2674.69
2669.48
2663.76
2658.02
2651.67
2645.4
2638.33
2631.5
2623.61
2616.25
2607.37
2599.58
2589.49
2581.55
2569.94
2562.33
2548.08
2562.72
11613.3
9442.63
6753.55
5130.84
4134.95
3497.91
3074.53
2784.11
2580.2
2434.32
2328.93
2252.06
2196.1
2155.2
2125.83
2104.65
2090.2
2080.19
2074.15
2070.66
2069.09
2069.42
2070.58
2072.86
2075.63
2078.78
2082.21
2085.79
2089.55
2093.31
2096.99
2100.71
2104.28
2107.81
2111.18
2114.45
2117.6
2120.58
2123.46
2126.16
2128.76
2131.18
2133.51
2135.65
2137.7
2139.53
2141.29
2142.78
2144.21
2145.35
2146.4
2147.13
2147.76
2147.96
2147.82
2147.59
2146.99
2146.07
2144.73
2143.03
2140.81
2138.14
2134.92
2131.82
2129.08
2126.17
2122.99
2119.65
2116.03
2112.27
2108.22
2104.04
2099.53
2094.92
2089.92
2084.87
2079.33
2073.86
2067.74
2061.88
2055.1
2048.98
2041.43
2035.34
2026.76
2021.26
2010.86
2020.86
8640.47
7642.98
5825.44
4525.78
3667.67
3091.92
2695.27
2414.73
2211.9
2062.45
1950.97
1866.8
1803
1754.25
1717.21
1688.81
1667.49
1651.29
1639.42
1630.76
1624.59
1620.57
1618.01
1616.82
1616.45
1616.86
1617.9
1619.35
1621.26
1623.28
1625.43
1627.8
1630.17
1632.65
1635.1
1637.56
1639.97
1642.32
1644.63
1646.83
1648.99
1651.03
1653.03
1654.89
1656.7
1658.35
1659.93
1661.32
1662.66
1663.76
1664.81
1665.59
1666.27
1666.72
1666.61
1666.54
1666.12
1665.63
1664.72
1663.52
1661.89
1659.88
1657.42
1655.04
1652.93
1650.66
1648.19
1645.57
1642.76
1639.82
1636.67
1633.39
1629.89
1626.27
1622.4
1618.45
1614.2
1609.93
1605.28
1600.76
1595.71
1591.06
1585.54
1581
1574.83
1570.92
1563.48
1570.18
5670.59
5529.32
4727.96
3807.72
3143.83
2668.92
2326.46
2075.32
1888
1745.94
1636.93
1552.23
1486.01
1433.73
1392.47
1359.58
1333.56
1312.76
1296.34
1283.34
1273.1
1265.16
1259.03
1254.39
1250.99
1248.5
1246.92
1245.84
1245.53
1245.29
1245.56
1246.2
1247.03
1248.05
1249.17
1250.4
1251.63
1252.92
1254.23
1255.59
1256.98
1258.35
1259.7
1261.01
1262.27
1263.47
1264.6
1265.64
1266.63
1267.48
1268.27
1268.82
1269.36
1269.63
1269.41
1269.38
1268.92
1268.65
1268.01
1267.07
1265.82
1264.27
1262.39
1260.54
1258.91
1257.13
1255.22
1253.19
1251.03
1248.77
1246.38
1243.88
1241.23
1238.49
1235.58
1232.6
1229.43
1226.22
1222.79
1219.42
1215.77
1212.35
1208.46
1205.17
1200.9
1198.11
1193
1197.38
2849.26
3428.37
3293.66
2910.09
2502.39
2173.43
1918.36
1720.99
1567.36
1446.65
1351.06
1274.6
1213.09
1163.15
1122.53
1089.17
1061.85
1039.25
1020.65
1005.25
992.533
982.01
973.35
966.182
960.352
955.525
951.673
948.498
946.035
944.06
942.511
941.388
940.564
940.018
939.749
939.544
939.271
939.384
939.663
940.094
940.561
941.084
941.595
942.139
942.664
943.189
943.678
944.189
944.606
945.032
945.403
945.45
945.625
945.39
945.279
945.133
944.331
944.311
943.841
943.06
942.014
940.757
939.234
937.788
936.502
935.119
933.628
932.057
930.408
928.679
926.865
924.973
922.995
920.944
918.796
916.6
914.317
912.036
909.659
907.313
904.814
902.45
899.819
897.56
894.709
892.828
889.392
892.166
1026.78
1628.19
1850.53
1824.39
1728.65
1574.14
1435.81
1315.99
1215.02
1130.91
1061.1
1002.99
954.567
913.963
879.908
851.125
826.829
806.162
788.61
773.616
760.822
749.849
740.472
732.398
725.495
719.543
714.45
710.066
706.308
703.095
700.328
697.984
695.969
694.276
692.835
691.632
690.591
689.734
689.024
688.458
687.997
687.652
687.363
687.149
686.979
686.841
686.731
686.648
686.561
686.476
686.375
686.232
686.049
685.809
685.496
685.114
684.626
684.065
683.395
682.597
681.627
680.51
679.195
678.034
677.036
675.977
674.848
673.662
672.422
671.13
669.788
668.401
666.969
665.499
663.983
662.444
660.867
659.295
657.68
656.094
654.434
652.866
651.152
649.682
647.846
646.662
644.413
646.098
404.298
603.166
795.62
898.467
937.414
929.619
906.752
867.551
826.685
788.023
752.553
720.621
692.288
667.257
645.298
625.987
609.07
594.189
581.13
569.623
559.5
550.557
542.671
535.689
529.514
524.039
519.182
514.872
511.039
507.637
504.602
501.911
499.503
497.37
495.46
493.767
492.251
490.904
489.699
488.629
487.668
486.816
486.049
485.361
484.741
484.175
483.657
483.178
482.727
482.297
481.874
481.455
481.022
480.575
480.094
479.58
479.01
478.389
477.692
476.926
476.054
475.094
474.004
473.1
472.348
471.562
470.741
469.89
469.008
468.101
467.168
466.216
465.243
464.256
463.252
462.244
461.221
460.205
459.174
458.167
457.135
456.16
455.122
454.221
453.137
452.405
451.036
451.99
257.392
282.301
334.669
385.954
427.575
452.1
468.015
471.67
470.295
466.441
459.262
450.771
441.875
433.021
424.471
416.308
408.64
401.48
394.855
388.737
383.115
377.951
373.219
368.884
364.916
361.287
357.965
354.927
352.146
349.604
347.275
345.147
343.194
341.41
339.772
338.273
336.898
335.638
334.481
333.42
332.444
331.547
330.72
329.956
329.248
328.591
327.975
327.399
326.85
326.329
325.822
325.332
324.841
324.354
323.853
323.344
322.806
322.247
321.646
321.01
320.315
319.575
318.759
318.12
317.603
317.072
316.528
315.972
315.406
314.831
314.249
313.661
313.069
312.476
311.881
311.289
310.698
310.115
309.535
308.97
308.403
307.865
307.31
306.819
306.252
305.879
305.063
305.576
219.546
215.655
219.123
227.729
241.287
252.656
263.062
270.533
275.723
279.111
281.093
281.07
280.801
279.872
278.476
276.582
274.476
272.254
269.993
267.718
265.472
263.275
261.146
259.097
257.135
255.266
253.49
251.809
250.222
248.726
247.318
245.996
244.754
243.59
242.5
241.479
240.524
239.63
238.796
238.015
237.286
236.603
235.966
235.367
234.806
234.278
233.781
233.311
232.863
232.438
232.026
231.632
231.241
230.863
230.481
230.104
229.716
229.322
228.914
228.492
228.047
227.587
227.091
226.739
226.462
226.182
225.895
225.605
225.313
225.021
224.732
224.444
224.167
223.895
223.632
223.376
223.129
222.893
222.662
222.442
222.228
222.025
221.831
221.643
221.469
221.28
220.962
221.174
211.018
199.515
192.194
189.169
189.961
192.119
196.217
200.48
204.527
207.957
210.859
212.988
214.46
215.495
216.07
215.856
215.751
215.335
214.842
214.105
213.255
212.321
211.331
210.306
209.265
208.222
207.189
206.173
205.183
204.223
203.295
202.403
201.548
200.729
199.95
199.206
198.503
197.832
197.201
196.6
196.037
195.501
195
194.525
194.081
193.663
193.272
192.904
192.56
192.24
191.937
191.659
191.391
191.15
190.914
190.695
190.485
190.276
190.092
189.9
189.735
189.58
189.416
189.368
189.338
189.29
189.201
189.106
189.002
188.886
188.756
188.555
188.475
188.316
188.273
188.23
188.291
188.226
188.222
188.341
188.314
188.443
188.525
188.558
188.668
188.784
188.963
189.02
211.383
200.188
192.979
190.575
191.686
194.478
199.112
203.892
208.344
212.083
215.271
217.609
219.213
220.321
220.957
220.773
220.668
220.239
219.737
218.973
218.089
217.116
216.083
215.012
213.923
212.832
211.749
210.685
209.646
208.637
207.662
206.724
205.824
204.962
204.142
203.357
202.616
201.907
201.242
200.607
200.015
199.45
198.925
198.427
197.966
197.531
197.129
196.756
196.411
196.097
195.805
195.552
195.3
195.136
194.879
194.676
194.432
194.153
194.02
193.69
193.613
193.565
193.534
193.716
193.902
194.063
194.24
194.422
194.606
194.791
194.978
195.171
195.375
195.59
195.816
196.051
196.293
196.538
196.786
197.032
197.28
197.522
197.77
198.001
198.256
198.457
198.754
198.845
221.075
218.712
223.248
234.11
250.139
263.87
276.084
285.037
291.279
295.245
297.89
298.059
297.828
296.793
295.291
293.227
290.903
288.45
285.941
283.418
280.917
278.47
276.093
273.802
271.605
269.508
267.512
265.62
263.828
262.138
260.543
259.042
257.63
256.303
255.059
253.889
252.797
251.769
250.813
249.915
249.081
248.3
247.575
246.903
246.278
245.706
245.175
244.7
244.257
243.874
243.525
243.217
242.988
242.734
242.595
242.465
242.372
242.328
242.11
242.111
242.011
242.12
242.311
242.602
242.922
243.277
243.654
244.041
244.432
244.826
245.225
245.629
246.042
246.463
246.891
247.324
247.761
248.197
248.634
249.065
249.498
249.916
250.345
250.738
251.179
251.51
252.032
252.147
262.533
291.433
351.851
410.332
457.896
486.088
504.021
508.279
506.71
502.253
494.145
484.584
474.547
464.564
454.912
445.724
437.066
428.998
421.505
414.593
408.216
402.357
396.969
392.024
387.483
383.317
379.49
375.98
372.753
369.792
367.068
364.568
362.265
360.149
358.2
356.407
354.756
353.236
351.837
350.551
349.366
348.283
347.283
346.377
345.541
344.794
344.108
343.506
342.962
342.492
342.107
341.696
341.61
340.86
340.7
340.808
340.507
340.546
340.633
340.94
341.317
341.729
342.183
342.745
343.253
343.805
344.389
344.998
345.623
346.26
346.907
347.561
348.221
348.885
349.551
350.216
350.881
351.538
352.194
352.837
353.481
354.1
354.735
355.313
355.959
356.446
357.196
357.389
418.372
635.51
847.534
959.855
1002.32
993.432
967.699
924.41
879.568
837.263
798.46
763.551
732.52
705.102
680.955
659.717
641.01
624.548
610.002
597.174
585.799
575.734
566.781
558.829
551.739
545.416
539.766
534.711
530.184
526.123
522.478
519.203
516.254
513.605
511.213
509.063
507.118
505.372
503.791
502.375
501.093
499.95
498.917
498.006
497.188
496.471
495.86
495.31
494.856
494.552
493.998
493.818
493.247
493.166
493.142
493.309
493.635
494.077
494.561
495.145
495.825
496.629
497.532
498.496
499.315
500.162
501.033
501.924
502.833
503.755
504.688
505.628
506.572
507.516
508.459
509.394
510.324
511.239
512.15
513.035
513.924
514.767
515.641
516.416
517.311
517.936
519.004
519.158
1072.67
1717.15
1954.65
1926.69
1823.45
1658.15
1510.4
1382.37
1274.35
1184.29
1109.34
1046.82
994.506
950.528
913.415
881.967
855.191
832.353
812.747
795.939
781.411
768.899
758.034
748.633
740.448
733.333
727.132
721.718
717.004
712.865
709.273
706.11
703.362
700.952
698.846
697.012
695.405
694.023
692.809
691.779
690.87
690.108
689.45
688.903
688.475
688.108
688.009
687.409
687.322
687.48
687.327
687.518
687.842
688.251
688.744
689.353
690.048
690.854
691.763
692.804
693.966
695.275
696.703
698.117
699.293
700.495
701.721
702.963
704.22
705.486
706.758
708.029
709.3
710.561
711.816
713.053
714.28
715.48
716.673
717.824
718.983
720.069
721.208
722.188
723.365
724.121
725.567
725.61
2967.11
3580
3440.24
3038.73
2610.91
2264.93
1996.06
1787.54
1624.65
1496.25
1394.08
1312.02
1245.56
1191.32
1146.79
1110.02
1079.5
1054.11
1032.84
1015.09
1000.11
987.59
976.992
968.107
960.602
954.291
948.988
944.526
940.811
937.66
935.118
932.928
931.223
929.757
928.598
927.681
926.985
926.465
926.115
925.827
925.679
925.538
925.464
925.635
925.945
926.315
926.74
927.208
927.735
928.343
928.966
929.681
930.483
931.403
932.417
933.546
934.781
936.142
937.62
939.242
940.995
942.908
944.956
946.891
948.482
950.097
951.731
953.376
955.031
956.686
958.341
959.987
961.624
963.242
964.847
966.421
967.981
969.499
971.008
972.456
973.914
975.271
976.694
977.92
979.37
980.344
982.006
982.037
5867.83
5728.1
4901.12
3945.86
3254.39
2757.87
2398.32
2133.58
1935.02
1783.65
1666.62
1575.07
1502.76
1445.17
1399.06
1361.91
1331.9
1307.61
1287.88
1271.93
1258.93
1248.51
1240.03
1233.29
1227.9
1223.63
1220.34
1217.79
1215.9
1214.49
1213.66
1213.01
1212.91
1212.65
1212.86
1213.26
1213.81
1214.41
1215.11
1215.89
1216.7
1217.58
1218.47
1219.39
1220.37
1221.41
1222.48
1223.62
1224.79
1226.01
1227.28
1228.61
1229.99
1231.47
1233.04
1234.72
1236.52
1238.45
1240.52
1242.75
1245.12
1247.67
1250.38
1252.87
1254.9
1256.95
1259.02
1261.1
1263.18
1265.26
1267.33
1269.38
1271.41
1273.42
1275.41
1277.35
1279.28
1281.14
1283
1284.77
1286.56
1288.21
1289.96
1291.43
1293.21
1294.37
1296.45
1296.41
8904.19
7872.9
6002.92
4660.01
3768.93
3167.84
2751.23
2454.74
2238.66
2078.16
1957.08
1864.67
1793.5
1738.31
1695.4
1661.87
1635.75
1615.4
1599.62
1587.49
1578.2
1571.33
1566.15
1562.59
1560.13
1558.58
1557.92
1557.64
1557.95
1558.62
1559.73
1560.85
1562.34
1563.75
1565.32
1566.95
1568.67
1570.36
1572.08
1573.8
1575.51
1577.21
1578.91
1580.6
1582.26
1583.93
1585.6
1587.28
1588.97
1590.69
1592.45
1594.27
1596.14
1598.12
1600.18
1602.37
1604.68
1607.14
1609.76
1612.55
1615.53
1618.71
1622.07
1625.12
1627.6
1630.11
1632.63
1635.15
1637.68
1640.19
1642.7
1645.18
1647.65
1650.07
1652.48
1654.82
1657.14
1659.38
1661.63
1663.75
1665.91
1667.87
1670
1671.73
1673.91
1675.24
1677.83
1677.68
11933.2
9669.99
6916.94
5246.75
4213.93
3548.22
3102.02
2793.19
2573.82
2414.95
2298.18
2211.57
2146.88
2098.44
2062.24
2035.19
2015.28
2000.71
1990.37
1983.14
1978.49
1975.77
1974.36
1974.31
1974.88
1976.18
1978.11
1980.26
1982.64
1985.19
1987.93
1990.6
1993.44
1996.14
1998.87
2001.51
2004.15
2006.71
2009.19
2011.61
2013.94
2016.21
2018.43
2020.6
2022.71
2024.8
2026.86
2028.92
2030.97
2033.05
2035.14
2037.31
2039.54
2041.88
2044.32
2046.91
2049.65
2052.56