/*--------------------------------*- C++ -*----------------------------------*\
| =========                 |                                                 |
| \\      /  F ield         | OpenFOAM: The Open Source CFD Toolbox           |
|  \\    /   O peration     | Version:  2306                                  |
|   \\  /    A nd           | Website:  www.openfoam.com                      |
|    \\/     M anipulation  |                                                 |
\*---------------------------------------------------------------------------*/
FoamFile
{
    version     2.0;
    format      ascii;
    arch        "LSB;label=32;scalar=64";
    class       volScalarField;
    location    "1900";
    object      k;
}
// * * * * * * * * * * * * * * * * * * * * * * * * * * * * * * * * * * * * * //

dimensions      [0 2 -2 0 0 0 0];

internalField   nonuniform List<scalar> 
20540
(
42.434
131.853
42.4196
131.836
42.3586
131.763
42.2476
131.63
42.0775
131.426
41.837
131.135
41.5132
130.739
41.0907
130.216
40.5515
129.538
39.8751
128.673
39.0379
127.579
38.0136
126.208
36.7738
124.497
35.2885
122.373
33.5284
119.742
31.4678
116.493
29.0901
112.493
26.3961
107.583
23.4161
101.584
20.2268
94.3051
16.9731
85.5665
13.8854
75.2426
11.2643
63.3396
9.36703
50.1004
8.23028
36.0419
7.64466
22.6905
7.3225
13.0015
7.03654
8.51057
6.78973
6.97894
6.66841
6.3619
6.63904
6.15394
6.63592
6.09133
6.63561
6.09575
6.63946
6.16858
6.67339
6.38936
6.80041
7.01109
7.04645
8.5777
7.33552
13.1481
7.67995
22.9529
8.32782
36.4974
9.59495
50.7992
11.7059
64.2883
14.6092
76.4443
18.0217
87.0101
21.6255
95.9691
25.1771
103.442
28.5206
109.609
31.5693
114.664
34.2851
118.787
36.6615
122.141
38.7113
124.863
40.4584
127.069
41.9316
128.853
43.1605
130.293
44.175
131.452
45.0043
132.38
45.6745
133.118
46.2092
133.699
46.6288
134.15
46.9509
134.493
47.1905
134.747
47.3605
134.925
47.4717
135.041
47.5332
135.106
47.5524
135.126
35.4331
23.1974
20.7822
19.5625
18.7759
18.2329
17.8399
17.5407
17.3066
17.1192
16.9668
16.8405
16.7351
16.6457
16.5698
16.5044
16.4481
16.399
16.3564
16.3187
16.2859
16.2565
16.2308
16.2078
16.1871
16.1687
16.1522
16.1374
16.124
16.112
16.101
16.0912
16.0823
16.0742
16.0668
16.0602
16.0541
16.0487
16.0439
16.0397
16.036
16.0329
16.0305
16.0287
16.0276
16.0273
16.0279
16.0295
16.0323
16.0363
16.0419
16.0492
16.0584
16.0697
16.0836
16.1001
16.1199
16.143
16.1703
16.2016
16.2383
16.28
16.3284
16.3745
16.4144
16.4564
16.5013
16.5487
16.5988
16.6517
16.7075
16.7664
16.8283
16.8935
16.9625
17.0347
17.1123
17.1918
17.2816
17.368
17.4783
17.5667
17.7209
17.7974
18.0316
18.1388
18.4382
18.7375
31.158
18.4678
16.2267
15.1248
14.43
13.9533
13.6098
13.3495
13.1464
12.9841
12.8524
12.7433
12.6525
12.5754
12.51
12.4538
12.4055
12.3633
12.3267
12.2944
12.2662
12.241
12.219
12.1993
12.1816
12.1658
12.1517
12.139
12.1276
12.1173
12.1079
12.0995
12.0919
12.085
12.0786
12.073
12.0678
12.0631
12.059
12.0553
12.052
12.0493
12.047
12.0453
12.0441
12.0435
12.0436
12.0444
12.046
12.0487
12.0524
12.0573
12.0637
12.0715
12.0812
12.0928
12.1068
12.123
12.1423
12.1644
12.1903
12.2196
12.2537
12.2859
12.3139
12.3434
12.3746
12.4076
12.4423
12.4788
12.517
12.5574
12.5993
12.6436
12.6896
12.7381
12.7887
12.8416
12.8982
12.9552
13.0213
13.0793
13.1678
13.2139
13.3461
13.3847
13.5776
13.6364
35.2959
20.9302
18.4595
17.2554
16.5009
15.9827
15.6089
15.3256
15.1044
14.9275
14.7838
14.6647
14.5656
14.4815
14.41
14.3486
14.2958
14.2496
14.2097
14.1743
14.1435
14.116
14.0919
14.0703
14.051
14.0337
14.0183
14.0044
13.9919
13.9806
13.9704
13.9613
13.9528
13.9453
13.9384
13.9322
13.9265
13.9214
13.9168
13.9127
13.9092
13.9061
13.9036
13.9015
13.9001
13.8993
13.8992
13.8998
13.9013
13.9037
13.9073
13.9121
13.9184
13.9261
13.9357
13.9472
13.961
13.9772
13.9963
14.0182
14.0439
14.073
14.1068
14.1386
14.1662
14.1954
14.2261
14.2585
14.2925
14.3281
14.3654
14.4046
14.4451
14.488
14.5319
14.5785
14.6261
14.6767
14.7287
14.7832
14.8418
14.8971
14.9734
15.0148
15.1304
15.1432
15.361
15.077
38.4328
22.3899
19.7498
18.4922
17.7143
17.1816
16.7976
16.5069
16.28
16.0984
15.951
15.8289
15.7271
15.6408
15.5675
15.5044
15.4502
15.4029
15.3619
15.3256
15.294
15.2657
15.241
15.2189
15.199
15.1812
15.1654
15.1512
15.1384
15.1268
15.1163
15.107
15.0983
15.0906
15.0835
15.0771
15.0713
15.066
15.0613
15.0571
15.0534
15.0502
15.0475
15.0454
15.0438
15.0427
15.0424
15.0428
15.044
15.0461
15.0493
15.0536
15.0593
15.0663
15.0752
15.0857
15.0985
15.1134
15.1312
15.1514
15.1751
15.202
15.2331
15.2624
15.2877
15.3145
15.3427
15.3723
15.4033
15.4357
15.4695
15.5051
15.5414
15.58
15.619
15.6609
15.7024
15.7477
15.7918
15.8406
15.8883
15.938
15.9987
16.0329
16.1292
16.1143
16.3634
15.7821
41.1525
23.3421
20.5017
19.1932
18.3993
17.859
17.4705
17.1771
16.9483
16.7652
16.6167
16.4936
16.3911
16.3041
16.2303
16.1668
16.1122
16.0645
16.0232
15.9867
15.9549
15.9264
15.9015
15.8793
15.8593
15.8414
15.8255
15.8111
15.7983
15.7867
15.7761
15.7667
15.758
15.7502
15.7431
15.7367
15.7308
15.7255
15.7207
15.7165
15.7127
15.7094
15.7067
15.7044
15.7026
15.7014
15.7009
15.701
15.7018
15.7035
15.7061
15.7098
15.7148
15.7209
15.7287
15.738
15.7494
15.7626
15.7783
15.7962
15.8173
15.841
15.8686
15.8945
15.9168
15.9404
15.9652
15.9912
16.0183
16.0466
16.0758
16.1068
16.138
16.1714
16.2044
16.2404
16.2747
16.3138
16.3489
16.3912
16.4271
16.4703
16.5153
16.5414
16.6182
16.5814
16.8362
16.1329
43.7007
24.0959
20.9951
19.6237
18.8128
18.2668
17.8761
17.582
17.3531
17.1702
17.0218
16.899
16.7967
16.7099
16.6363
16.5729
16.5185
16.4709
16.4298
16.3933
16.3617
16.3333
16.3086
16.2864
16.2665
16.2486
16.2328
16.2185
16.2057
16.1942
16.1837
16.1744
16.1657
16.158
16.1509
16.1445
16.1386
16.1334
16.1286
16.1243
16.1206
16.1172
16.1144
16.112
16.1101
16.1088
16.108
16.1078
16.1082
16.1094
16.1115
16.1145
16.1186
16.1238
16.1304
16.1383
16.148
16.1593
16.1728
16.1881
16.2061
16.2264
16.25
16.272
16.291
16.3111
16.3322
16.3542
16.377
16.4009
16.4253
16.4512
16.4769
16.5048
16.5315
16.5615
16.5884
16.6209
16.6471
16.6826
16.7075
16.7436
16.7743
16.7929
16.8507
16.804
17.0206
16.3879
46.1595
24.7965
21.3609
19.9048
19.0708
18.5182
18.1258
17.8321
17.6042
17.4224
17.2751
17.1533
17.0519
16.966
16.893
16.8303
16.7765
16.7294
16.6888
16.6527
16.6214
16.5934
16.5689
16.547
16.5273
16.5097
16.4941
16.48
16.4674
16.4561
16.4457
16.4365
16.428
16.4204
16.4133
16.4071
16.4013
16.3961
16.3914
16.3872
16.3834
16.3801
16.3772
16.3747
16.3728
16.3712
16.3702
16.3697
16.3698
16.3705
16.372
16.3743
16.3775
16.3816
16.387
16.3934
16.4014
16.4106
16.4218
16.4343
16.4493
16.4659
16.4853
16.5034
16.519
16.5354
16.5527
16.5706
16.589
16.6083
16.6278
16.6487
16.6688
16.6912
16.7116
16.7357
16.7554
16.7815
16.7995
16.828
16.8435
16.8721
16.8903
16.9026
16.9415
16.8974
17.0442
16.5783
48.5569
25.5209
21.6708
20.0996
19.2315
18.6689
18.2742
17.981
17.7548
17.5748
17.4293
17.3091
17.2092
17.1246
17.0529
16.9912
16.9384
16.8921
16.8523
16.8169
16.7862
16.7587
16.7348
16.7133
16.694
16.6768
16.6615
16.6477
16.6354
16.6243
16.6142
16.6053
16.5969
16.5895
16.5826
16.5765
16.5709
16.5658
16.5612
16.557
16.5533
16.55
16.5472
16.5447
16.5426
16.5409
16.5397
16.5389
16.5386
16.5389
16.5398
16.5414
16.5438
16.5468
16.551
16.5559
16.5621
16.5692
16.578
16.5878
16.5996
16.6125
16.6278
16.642
16.6541
16.6669
16.6803
16.6942
16.7083
16.7231
16.7378
16.7538
16.7686
16.7857
16.8002
16.8184
16.8317
16.8515
16.8625
16.8836
16.892
16.9122
16.9204
16.928
16.9485
16.9152
16.985
16.6798
50.8995
26.3131
21.9713
20.2472
19.3288
18.7499
18.3505
18.0573
17.8328
17.6551
17.512
17.394
17.2962
17.2134
17.1433
17.0832
17.0317
16.9865
16.9478
16.9133
16.8836
16.8568
16.8336
16.8128
16.7941
16.7773
16.7626
16.7492
16.7373
16.7266
16.7168
16.7082
16.7001
16.693
16.6863
16.6805
16.675
16.6701
16.6656
16.6616
16.658
16.6548
16.652
16.6494
16.6473
16.6456
16.6442
16.6431
16.6425
16.6424
16.6428
16.6436
16.6452
16.6472
16.6501
16.6535
16.658
16.6632
16.6697
16.6768
16.6854
16.6948
16.706
16.7163
16.7252
16.7344
16.7441
16.7541
16.7641
16.7747
16.7849
16.7963
16.8061
16.8182
16.8274
16.8401
16.8478
16.8613
16.8669
16.8804
16.8835
16.8957
16.896
16.9
16.9038
16.8832
16.8929
16.7013
53.1836
27.1985
22.2961
20.3761
19.3857
18.7807
18.3723
18.0774
17.8542
17.6789
17.5384
17.4231
17.3278
17.2473
17.1794
17.1211
17.0714
17.0277
16.9905
16.9572
16.9286
16.9029
16.8806
16.8606
16.8427
16.8266
16.8125
16.7997
16.7883
16.7782
16.7689
16.7606
16.7529
16.7461
16.7398
16.7343
16.7291
16.7244
16.7202
16.7163
16.7129
16.7098
16.7071
16.7046
16.7025
16.7007
16.6992
16.6979
16.697
16.6965
16.6964
16.6966
16.6974
16.6984
16.7002
16.7022
16.7051
16.7084
16.7126
16.7172
16.7229
16.7289
16.7362
16.743
16.7487
16.7547
16.7609
16.7673
16.7735
16.7801
16.7863
16.7934
16.7988
16.8062
16.8108
16.8183
16.8215
16.8289
16.8302
16.8366
16.8355
16.8405
16.8354
16.836
16.8281
16.8163
16.7936
16.6673
55.3983
28.1901
22.6714
20.5097
19.4204
18.7755
18.3515
18.0516
17.8282
17.6548
17.517
17.4047
17.3123
17.2346
17.1692
17.1132
17.0656
17.0239
16.9884
16.9567
16.9296
16.9052
16.8841
16.8652
16.8482
16.833
16.8198
16.8077
16.7971
16.7876
16.7788
16.7712
16.764
16.7577
16.7518
16.7466
16.7418
16.7374
16.7335
16.7299
16.7267
16.7238
16.7212
16.7189
16.7168
16.715
16.7134
16.712
16.7109
16.7101
16.7096
16.7092
16.7093
16.7095
16.7102
16.711
16.7124
16.7139
16.7162
16.7183
16.7213
16.7243
16.728
16.7315
16.7344
16.7375
16.7406
16.7437
16.7465
16.7495
16.7521
16.7553
16.757
16.7602
16.761
16.7636
16.7633
16.765
16.7629
16.7639
16.7589
16.7587
16.7491
16.7464
16.7288
16.7198
16.6882
16.5919
57.5255
29.2923
23.1169
20.6691
19.4498
18.7469
18.2973
17.9871
17.7609
17.5881
17.4526
17.3431
17.2539
17.1792
17.1168
17.0635
17.0185
16.9791
16.9458
16.916
16.8907
16.8679
16.8483
16.8308
16.815
16.8009
16.7887
16.7776
16.7679
16.7592
16.7512
16.7443
16.7377
16.732
16.7266
16.722
16.7176
16.7137
16.7101
16.7069
16.704
16.7014
16.6991
16.6969
16.695
16.6932
16.6917
16.6902
16.689
16.6879
16.687
16.6862
16.6857
16.6852
16.685
16.6847
16.6848
16.6848
16.6852
16.6853
16.6859
16.6862
16.6868
16.6874
16.6878
16.6883
16.6887
16.6888
16.6887
16.6887
16.6883
16.6881
16.6867
16.6862
16.6839
16.6828
16.679
16.6772
16.6712
16.6686
16.6596
16.6561
16.6419
16.6365
16.6129
16.6024
16.5694
16.49
59.5397
30.503
23.6463
20.8727
19.4904
18.7073
18.2187
17.8904
17.6569
17.4823
17.3477
17.2406
17.1543
17.0828
17.0236
16.9734
16.9314
16.8946
16.8639
16.8364
16.8133
16.7924
16.7746
16.7588
16.7445
16.7318
16.7209
16.711
16.7023
16.6947
16.6876
16.6816
16.6758
16.6708
16.6661
16.6622
16.6583
16.655
16.6519
16.6492
16.6467
16.6444
16.6424
16.6405
16.6389
16.6373
16.6358
16.6344
16.6331
16.6319
16.6309
16.6297
16.6288
16.6277
16.6268
16.6255
16.6246
16.6233
16.6222
16.6205
16.6191
16.6171
16.6151
16.6132
16.6116
16.6098
16.6079
16.6059
16.6032
16.6009
16.5975
16.5951
16.5906
16.5877
16.5821
16.5787
16.5716
16.5674
16.558
16.5531
16.5405
16.5345
16.517
16.509
16.4823
16.4685
16.4349
16.3682
61.4057
31.8135
24.2678
21.1362
19.5583
18.6699
18.1255
17.7682
17.5207
17.3401
17.2041
17.098
17.014
16.9454
16.8894
16.8424
16.8036
16.7698
16.742
16.7171
16.6966
16.678
16.6624
16.6486
16.6361
16.625
16.6157
16.6072
16.5999
16.5935
16.5876
16.5826
16.5778
16.5738
16.57
16.5668
16.5637
16.561
16.5586
16.5564
16.5545
16.5527
16.5512
16.5496
16.5483
16.547
16.5458
16.5445
16.5433
16.5421
16.541
16.5397
16.5385
16.5369
16.5356
16.5336
16.5319
16.5295
16.5273
16.5242
16.5212
16.5173
16.5131
16.5093
16.506
16.5026
16.4988
16.495
16.4903
16.4862
16.4805
16.4763
16.4694
16.4648
16.4565
16.4514
16.4415
16.4357
16.4237
16.4169
16.4019
16.3939
16.3741
16.3636
16.3353
16.3184
16.2806
16.2291
63.0762
33.209
24.9834
21.4709
19.6685
18.649
18.0289
17.6287
17.3577
17.1651
17.0237
16.916
16.8328
16.7662
16.7129
16.669
16.6334
16.6028
16.5782
16.5562
16.5384
16.5225
16.5094
16.4979
16.4875
16.4784
16.4709
16.4642
16.4584
16.4536
16.4491
16.4455
16.4418
16.4389
16.4361
16.434
16.4318
16.4299
16.4283
16.4268
16.4256
16.4244
16.4235
16.4224
16.4216
16.4207
16.4198
16.4188
16.4178
16.4168
16.4157
16.4144
16.4131
16.4114
16.4097
16.4073
16.4051
16.4019
16.3989
16.3947
16.3906
16.3853
16.3796
16.3742
16.3698
16.365
16.3598
16.3547
16.3486
16.3431
16.3358
16.3301
16.3215
16.3155
16.3053
16.2991
16.2871
16.2801
16.2661
16.2581
16.2412
16.2316
16.2103
16.1978
16.1684
16.1493
16.1061
16.0696
64.4896
34.6662
25.7893
21.883
19.8335
18.6583
17.9414
17.4819
17.1753
16.962
16.8092
16.6959
16.6108
16.5443
16.4927
16.4511
16.4184
16.3908
16.3693
16.3503
16.3356
16.3226
16.3122
16.3033
16.2953
16.2885
16.2832
16.2784
16.2745
16.2715
16.2686
16.2665
16.2642
16.2627
16.2612
16.2602
16.2591
16.2583
16.2577
16.2571
16.2567
16.2562
16.256
16.2556
16.2554
16.2551
16.2547
16.2541
16.2535
16.2528
16.2519
16.2508
16.2496
16.2479
16.2461
16.2436
16.2411
16.2375
16.2339
16.2291
16.2242
16.218
16.2113
16.2049
16.1996
16.194
16.1878
16.1818
16.1746
16.1682
16.1599
16.1531
16.1434
16.1364
16.125
16.1177
16.1045
16.0966
16.0813
16.0722
16.0541
16.0433
16.0208
16.0068
15.9767
15.9562
15.9089
15.8848
65.5656
36.1505
26.6749
22.3727
20.0612
18.7099
17.8758
17.3392
16.9828
16.7378
16.5655
16.4406
16.3492
16.2798
16.2276
16.1869
16.156
16.1307
16.112
16.0959
16.0841
16.074
16.0664
16.0603
16.0549
16.0506
16.0476
16.0451
16.0434
16.0424
16.0414
16.041
16.0404
16.0405
16.0404
16.0409
16.0411
16.0414
16.042
16.0424
16.0431
16.0435
16.0442
16.0446
16.0452
16.0456
16.0458
16.0457
16.0457
16.0455
16.045
16.0443
16.0433
16.0419
16.0403
16.0378
16.0353
16.0316
16.0278
16.0227
16.0174
16.0107
16.0034
15.9964
15.9906
15.9845
15.9778
15.9712
15.9635
15.9564
15.9475
15.94
15.9297
15.9219
15.91
15.9018
15.8879
15.8792
15.863
15.8532
15.8341
15.8224
15.7991
15.784
15.7535
15.7322
15.6827
15.6687
66.1986
37.6119
27.6209
22.933
20.3532
18.8118
17.8434
17.2126
16.7909
16.5015
16.2995
16.1549
16.0511
15.9742
15.9179
15.8754
15.8444
15.82
15.8031
15.789
15.7798
15.7723
15.7673
15.7639
15.7611
15.7594
15.7589
15.7587
15.7593
15.7605
15.7616
15.7632
15.7645
15.7663
15.768
15.7699
15.7717
15.7734
15.7753
15.777
15.7788
15.7803
15.7821
15.7835
15.7851
15.7862
15.7874
15.7881
15.7888
15.789
15.7891
15.789
15.7883
15.7875
15.7861
15.784
15.7817
15.7781
15.7744
15.7693
15.7639
15.7571
15.7496
15.7425
15.7365
15.7301
15.7232
15.7163
15.7084
15.7009
15.6918
15.6838
15.6733
15.6648
15.6528
15.6437
15.6297
15.6201
15.6037
15.5931
15.5734
15.561
15.537
15.5212
15.4907
15.4689
15.419
15.4133
66.2491
38.9782
28.5957
23.5479
20.7035
18.9657
17.851
17.1118
16.6106
16.2634
16.0201
15.8462
15.722
15.6312
15.5657
15.5174
15.4832
15.4572
15.4402
15.4267
15.4188
15.4131
15.4103
15.4089
15.4084
15.4091
15.411
15.4132
15.4161
15.4195
15.4227
15.4264
15.4296
15.4334
15.4368
15.4405
15.4439
15.4472
15.4505
15.4536
15.4568
15.4596
15.4626
15.465
15.4677
15.4698
15.4721
15.4736
15.4753
15.4763
15.4772
15.4777
15.4774
15.4772
15.4762
15.4748
15.4728
15.4696
15.4661
15.4614
15.4561
15.4495
15.4421
15.435
15.4291
15.4227
15.4158
15.4088
15.4009
15.3932
15.3841
15.3757
15.3654
15.3563
15.3444
15.3346
15.3208
15.3102
15.2939
15.2822
15.2626
15.2492
15.2251
15.2088
15.1786
15.1564
15.1087
15.1089
65.5322
40.1517
29.5507
24.1897
21.096
19.1645
17.8987
17.0419
16.4499
16.0331
15.7369
15.5234
15.3697
15.2571
15.1759
15.1163
15.0743
15.043
15.0228
15.0076
14.999
14.9935
14.9914
14.9911
14.9921
14.9945
14.9983
15.0025
15.0073
15.0127
15.0178
15.0235
15.0287
15.0344
15.0396
15.045
15.0501
15.0549
15.0598
15.0644
15.069
15.0731
15.0774
15.0811
15.085
15.0882
15.0915
15.0941
15.0968
15.0987
15.1006
15.1019
15.1024
15.1027
15.1021
15.1013
15.0998
15.0972
15.0942
15.0899
15.085
15.0787
15.0715
15.0647
15.059
15.0528
15.0461
15.039
15.0313
15.0234
15.0146
15.0059
14.9958
14.9863
14.9746
14.9641
14.9506
14.939
14.9231
14.9102
14.8911
14.8764
14.8529
14.8358
14.8067
14.7846
14.7415
14.7442
63.8062
41.0065
30.4115
24.8129
21.5011
19.3893
17.9764
16.9998
16.3108
15.816
15.4576
15.1949
15.0025
14.8598
14.7553
14.6777
14.6223
14.5808
14.5532
14.5325
14.5203
14.5124
14.5088
14.5078
14.5088
14.5116
14.5161
14.5213
14.5274
14.5342
14.5407
14.5479
14.5546
14.5619
14.5687
14.5756
14.5822
14.5886
14.595
14.6009
14.6069
14.6123
14.6179
14.6228
14.6279
14.6322
14.6367
14.6403
14.6441
14.647
14.6499
14.652
14.6538
14.6544
14.6547
14.6537
14.653
14.651
14.6486
14.6449
14.6404
14.6345
14.6277
14.6212
14.6157
14.6097
14.6032
14.5963
14.5887
14.5808
14.5721
14.5633
14.5534
14.5435
14.5321
14.521
14.5077
14.4953
14.4798
14.4658
14.4472
14.4314
14.4089
14.3912
14.3636
14.3427
14.3036
14.3086
60.766
41.3798
31.0663
25.3454
21.8694
19.605
18.0597
16.9699
16.1849
15.6093
15.1836
14.8649
14.6265
14.4463
14.3112
14.2089
14.1335
14.0762
14.0359
14.0053
13.9853
13.9714
13.9631
13.9592
13.9573
13.9588
13.9619
13.9665
13.9726
13.9794
13.9862
13.9941
14.0016
14.0098
14.0175
14.0254
14.0332
14.0406
14.0481
14.0552
14.0623
14.0688
14.0754
14.0814
14.0876
14.093
14.0985
14.103
14.1078
14.1115
14.1153
14.1183
14.1211
14.1225
14.1233
14.1223
14.122
14.1203
14.1189
14.1158
14.1116
14.106
14.0995
14.0935
14.0883
14.0825
14.0761
14.0693
14.0618
14.0539
14.0454
14.0364
14.0266
14.0165
14.0052
13.9937
13.9806
13.9676
13.9523
13.9376
13.9196
13.9032
13.8817
13.8639
13.838
13.8188
13.7834
13.7903
56.0447
41.0706
31.347
25.6745
22.1215
19.7533
18.1044
16.9192
16.0484
15.3969
14.9048
14.5287
14.2408
14.0183
13.8474
13.7146
13.6137
13.5349
13.4766
13.4312
13.3988
13.3747
13.358
13.3472
13.3402
13.3372
13.336
13.3377
13.3417
13.3467
13.3521
13.3593
13.3661
13.3739
13.3814
13.3896
13.3975
13.4053
13.4131
13.4206
13.4282
13.4353
13.4427
13.4493
13.4562
13.4622
13.4684
13.4736
13.479
13.4835
13.4879
13.4916
13.4949
13.497
13.4976
13.4974
13.4974
13.4951
13.4946
13.4922
13.4883
13.483
13.4767
13.4709
13.4659
13.4603
13.454
13.4472
13.4398
13.4319
13.4233
13.4143
13.4045
13.3943
13.383
13.3713
13.3583
13.345
13.33
13.315
13.2976
13.2811
13.2608
13.2435
13.2196
13.2023
13.1703
13.1786
49.3048
39.759
31.0019
25.6281
22.1338
19.7405
18.0379
16.7901
15.8558
15.1433
14.5943
14.1662
13.8313
13.5667
13.3586
13.1928
13.063
12.9589
12.8786
12.8141
12.7652
12.7268
12.6979
12.6764
12.6605
12.6497
12.6425
12.6381
12.6374
12.6371
12.6389
12.6435
12.6476
12.6533
12.6591
12.666
12.6727
12.6796
12.6866
12.6934
12.7006
12.7075
12.7146
12.7213
12.728
12.7342
12.7403
12.7458
12.7512
12.7561
12.7605
12.7644
12.7679
12.7699
12.7709
12.7705
12.7704
12.767
12.767
12.7652
12.7617
12.7566
12.7504
12.7449
12.7399
12.7342
12.7279
12.721
12.7135
12.7055
12.6969
12.6878
12.6781
12.6677
12.6566
12.6448
12.632
12.6188
12.6042
12.5894
12.5728
12.5568
12.5381
12.5216
12.5
12.4847
12.4562
12.465
41.0713
36.3136
29.6565
24.9521
21.7188
19.4226
17.7458
16.49
15.5308
14.7855
14.2001
13.7349
13.3636
13.0642
12.8235
12.6274
12.4696
12.3401
12.2365
12.1512
12.0833
12.0281
11.9841
11.9489
11.9213
11.8997
11.8832
11.8705
11.8618
11.8557
11.8513
11.8502
11.8481
11.8499
11.8524
11.8562
11.8599
11.8643
11.8684
11.8731
11.8786
11.8842
11.8901
11.8956
11.9013
11.9065
11.9115
11.9164
11.9209
11.9256
11.9289
11.9321
11.9352
11.9367
11.9353
11.9349
11.9348
11.9301
11.9283
11.9283
11.9257
11.9214
11.9154
11.9099
11.9048
11.8989
11.8923
11.8851
11.8774
11.8692
11.8605
11.8513
11.8416
11.8313
11.8203
11.8087
11.7963
11.7834
11.7696
11.7556
11.7403
11.7254
11.7085
11.6935
11.6744
11.6616
11.6357
11.6449
31.3085
30.3972
26.9238
23.3043
20.6115
18.5895
17.0585
15.8791
14.9565
14.2242
13.6376
13.1624
12.7758
12.458
12.1972
11.9804
11.8019
11.6522
11.529
11.4253
11.3397
11.268
11.2088
11.1593
11.1186
11.0848
11.0572
11.0346
11.0161
11.0018
10.9897
10.9814
10.9737
10.969
10.9654
10.9638
10.9626
10.9622
10.9605
10.9621
10.9651
10.9684
10.9716
10.9747
10.9779
10.9806
10.9833
10.9861
10.9888
10.9922
10.9923
10.9928
10.9943
10.9953
10.9926
10.9919
10.9915
10.9858
10.9832
10.9827
10.9764
10.976
10.971
10.9657
10.9603
10.9542
10.9472
10.9396
10.9315
10.923
10.914
10.9045
10.8946
10.8841
10.873
10.8613
10.849
10.8369
10.8244
10.8123
10.7994
10.7866
10.7723
10.7594
10.7433
10.7323
10.7105
10.7192
20.3068
22.781
22.087
20.2935
18.4888
16.9716
15.7512
14.7673
13.9699
13.3186
12.784
12.3411
11.9731
11.6645
11.406
11.1869
11.0026
10.8451
10.7121
10.598
10.5012
10.4182
10.3475
10.2868
10.2351
10.1909
10.153
10.1208
10.0931
10.0699
10.0498
10.0335
10.0189
10.0075
9.99721
9.98953
9.98282
9.97745
9.97288
9.96918
9.96683
9.96574
9.96427
9.96364
9.96158
9.9608
9.95768
9.95728
9.95793
9.95754
9.95809
9.9553
9.95453
9.95346
9.95229
9.95228
9.9474
9.94565
9.9369
9.93379
9.93356
9.93225
9.92592
9.92016
9.91422
9.90823
9.90091
9.89288
9.88465
9.87519
9.86557
9.85461
9.84406
9.83213
9.81853
9.80408
9.78403
9.77339
9.75714
9.75754
9.75215
9.74474
9.73504
9.72549
9.71309
9.70453
9.6866
9.69461
11.4382
14.6983
15.8174
15.6617
15.1379
14.3349
13.608
12.9576
12.3927
11.9084
11.4949
11.1407
10.8379
10.5771
10.3535
10.1596
9.9927
9.84716
9.72132
9.61124
9.51559
9.43171
9.35859
9.29436
9.23809
9.18876
9.1453
9.1073
9.07369
9.04438
9.01828
8.99581
8.97556
8.95832
8.94266
8.92939
8.91757
8.90726
8.89829
8.89043
8.88358
8.87787
8.87277
8.86814
8.86425
8.86033
8.85694
8.85392
8.85131
8.84873
8.84639
8.84386
8.8413
8.83855
8.83576
8.83249
8.82878
8.82437
8.81929
8.81385
8.80773
8.80073
8.79212
8.78521
8.77922
8.77294
8.76612
8.75882
8.75116
8.74307
8.73463
8.72587
8.7169
8.70768
8.69821
8.68859
8.6788
8.66929
8.65987
8.65072
8.64137
8.63214
8.62237
8.61335
8.60275
8.59542
8.58073
8.58728
7.54945
8.87135
10.0621
10.6826
10.8897
10.8343
10.6834
10.4331
10.1742
9.92686
9.69603
9.48423
9.29327
9.12128
8.96803
8.83059
8.70843
8.59892
8.50147
8.41409
8.33614
8.26616
8.20356
8.14734
8.09685
8.05153
8.01067
7.97399
7.94086
7.91113
7.88413
7.86004
7.83803
7.81845
7.80055
7.78456
7.77006
7.75698
7.74519
7.73457
7.72496
7.7163
7.70849
7.7013
7.69488
7.68886
7.6834
7.67828
7.67358
7.66906
7.66476
7.66051
7.6563
7.65198
7.64756
7.64285
7.63786
7.63241
7.62648
7.61998
7.61277
7.60483
7.59586
7.589
7.58337
7.57748
7.57133
7.56492
7.55829
7.55145
7.54442
7.53723
7.5299
7.52245
7.51492
7.50732
7.49967
7.49202
7.48435
7.47675
7.46913
7.46169
7.4541
7.44708
7.43925
7.43347
7.42259
7.42751
6.37454
6.52861
6.87488
7.22541
7.49588
7.64414
7.74417
7.7446
7.72901
7.69043
7.62914
7.56055
7.48992
7.41938
7.35108
7.28532
7.22322
7.16459
7.10989
7.05877
7.01133
6.96722
6.92638
6.88855
6.85353
6.82117
6.79123
6.76361
6.73803
6.71449
6.69265
6.67259
6.65398
6.63689
6.62107
6.60652
6.59309
6.58071
6.56932
6.5588
6.54913
6.54019
6.53195
6.52431
6.51725
6.51067
6.50454
6.49878
6.49336
6.48818
6.48322
6.47839
6.47365
6.4689
6.4641
6.45917
6.45404
6.44865
6.44291
6.43678
6.43017
6.42304
6.41523
6.40961
6.4051
6.40047
6.39571
6.39083
6.38586
6.3808
6.37568
6.3705
6.36528
6.36004
6.35479
6.34955
6.34436
6.33921
6.33412
6.32911
6.32418
6.31939
6.31462
6.31016
6.30542
6.30177
6.29442
6.29783
5.99826
5.8815
5.88502
5.91676
5.98488
6.04561
6.10648
6.13991
6.16442
6.17247
6.16985
6.16462
6.15119
6.13303
6.11199
6.08885
6.06467
6.03988
6.01504
5.99038
5.96622
5.94267
5.91991
5.898
5.87701
5.85698
5.83792
5.81983
5.80267
5.78648
5.77115
5.75673
5.74313
5.73038
5.7184
5.70716
5.69666
5.68682
5.67765
5.66905
5.66106
5.65358
5.64661
5.64009
5.63398
5.62827
5.62291
5.61785
5.6131
5.60853
5.60424
5.60004
5.59601
5.59201
5.58804
5.58393
5.57972
5.5754
5.57075
5.56606
5.56112
5.55587
5.55038
5.54687
5.54423
5.54155
5.53887
5.5362
5.53359
5.53103
5.52845
5.52592
5.5235
5.52118
5.51891
5.51672
5.51456
5.51248
5.51048
5.50856
5.5067
5.50496
5.50324
5.50162
5.50032
5.49758
5.4948
5.49677
5.88999
5.70856
5.59789
5.53071
5.50048
5.50122
5.50844
5.52301
5.53738
5.54903
5.55487
5.55625
5.55295
5.54953
5.54273
5.53358
5.52258
5.50994
5.4962
5.48172
5.46683
5.45172
5.4366
5.4216
5.40687
5.39249
5.37851
5.36501
5.35197
5.33948
5.32748
5.31605
5.30513
5.29477
5.28495
5.27564
5.26688
5.25857
5.25083
5.24347
5.23664
5.23017
5.22416
5.21853
5.21326
5.20838
5.20384
5.19954
5.19582
5.19188
5.18895
5.18555
5.18278
5.17991
5.17709
5.17344
5.17104
5.16713
5.16331
5.16059
5.15668
5.15412
5.15048
5.14915
5.14625
5.14521
5.1447
5.14219
5.14374
5.14244
5.14249
5.14481
5.14806
5.15165
5.15169
5.15238
5.15322
5.15587
5.15858
5.16088
5.16299
5.165
5.16698
5.1689
5.17083
5.17255
5.17452
5.17548
5.89385
5.71401
5.60615
5.5403
5.5186
5.52333
5.53586
5.55806
5.57521
5.59215
5.60305
5.60605
5.60594
5.60193
5.59807
5.5904
5.58056
5.56887
5.55584
5.54191
5.52743
5.51259
5.49765
5.48274
5.46803
5.45359
5.43952
5.42588
5.41268
5.4
5.38777
5.37612
5.36494
5.35434
5.34425
5.33467
5.32567
5.31708
5.30911
5.30149
5.29446
5.28778
5.28158
5.27584
5.27038
5.26554
5.26083
5.25673
5.25296
5.24925
5.24692
5.24298
5.23975
5.23731
5.23493
5.23299
5.22982
5.22728
5.2251
5.22287
5.2208
5.22045
5.2184
5.22053
5.22415
5.22792
5.2318
5.2357
5.2396
5.24345
5.24723
5.251
5.25485
5.25876
5.26274
5.26676
5.27079
5.27483
5.27886
5.28284
5.28675
5.29057
5.29433
5.29795
5.3016
5.30488
5.30878
5.31072
6.01164
5.90593
5.91931
5.9674
6.06167
6.14758
6.2219
6.27739
6.30848
6.33486
6.3374
6.33534
6.32693
6.31281
6.29413
6.27271
6.24949
6.22533
6.20064
6.17589
6.15136
6.12727
6.10379
6.08102
6.0591
6.03804
6.0179
5.9987
5.98039
5.96305
5.94655
5.931
5.91623
5.90236
5.88926
5.87693
5.8654
5.8545
5.84441
5.83484
5.82604
5.81778
5.81005
5.80311
5.79632
5.79067
5.78479
5.78026
5.77549
5.77189
5.7682
5.76581
5.76307
5.76118
5.75894
5.75741
5.75621
5.75517
5.75345
5.75143
5.7515
5.75346
5.75656
5.76126
5.76571
5.77065
5.776
5.78165
5.78746
5.79337
5.79931
5.80527
5.81125
5.81725
5.82328
5.82932
5.83537
5.8414
5.84738
5.85329
5.85911
5.86481
5.87042
5.87581
5.88127
5.8861
5.892
5.89459
6.40976
6.59243
7.0008
7.40356
7.72494
7.9112
8.0293
8.05129
8.03878
8.0057
7.94593
7.87653
7.80358
7.73043
7.65866
7.58949
7.52343
7.46109
7.40236
7.34749
7.29615
7.24836
7.20383
7.16242
7.12394
7.08818
7.05498
7.02417
6.99554
6.96901
6.94433
6.9215
6.90024
6.88059
6.86232
6.84541
6.82975
6.8152
6.80182
6.78936
6.77794
6.7674
6.75763
6.74887
6.74058
6.73344
6.72659
6.72083
6.71554
6.71108
6.70693
6.70527
6.69582
6.69595
6.68903
6.68794
6.68696
6.6877
6.68873
6.69145
6.69576
6.70108
6.70608
6.71206
6.7175
6.72356
6.73018
6.73727
6.74469
6.75231
6.76002
6.76776
6.77548
6.78315
6.79076
6.7983
6.80577
6.81314
6.8204
6.82754
6.83457
6.84142
6.84818
6.85466
6.86123
6.86704
6.8741
6.87739
7.62391
9.05299
10.3787
11.0594
11.3182
11.2677
11.1193
10.8634
10.594
10.3361
10.0941
9.87154
9.66954
9.48749
9.32399
9.1775
9.046
8.92832
8.82245
8.72764
8.64212
8.56535
8.49597
8.43345
8.37689
8.32573
8.27939
8.23737
8.19925
8.1646
8.13311
8.10447
8.07838
8.05465
8.033
8.01329
7.99532
7.97895
7.96405
7.95047
7.93815
7.927
7.91679
7.90783
7.89946
7.89238
7.88574
7.88035
7.8752
7.87185
7.86655
7.86242
7.85527
7.85243
7.85356
7.85006
7.85353
7.85799
7.86199
7.86621
7.87069
7.87614
7.88231
7.88986
7.89667
7.90403
7.91183
7.91995
7.92828
7.93674
7.94525
7.95377
7.96225
7.97069
7.97906
7.98735
7.99554
8.00363
8.0116
8.01943
8.02713
8.03464
8.04206
8.04914
8.05639
8.06266
8.07055
8.07379
11.6309
15.1181
16.356
16.2182
15.7062
14.88
14.1285
13.454
12.8651
12.3587
11.9245
11.5516
11.2308
10.954
10.7146
10.5071
10.3262
10.1688
10.0306
9.90997
9.8034
9.71003
9.6272
9.5543
9.48952
9.43219
9.38122
9.3359
9.2956
9.2596
9.22761
9.19896
9.17346
9.15057
9.13025
9.11198
9.09572
9.08116
9.0682
9.05661
9.04637
9.03726
9.02923
9.02234
9.01604
9.01091
9.00634
9.00284
8.99981
8.99757
8.99459
8.98908
8.98761
8.98453
8.98702
8.99123
8.99586
9.00083
9.0062
9.0122
9.0188
9.02637
9.03469
9.04384
9.05173
9.05996
9.06846
9.07715
9.08597
9.09485
9.10376
9.11264
9.12149
9.13026
9.13895
9.14754
9.15602
9.16437
9.1726
9.18066
9.1886
9.19631
9.20396
9.2112
9.21871
9.22502
9.23339
9.23618
20.7189
23.4233
22.7752
20.9943
19.1483
17.5847
16.3208
15.2981
14.4651
13.7824
13.2188
12.7501
12.358
12.0278
11.7486
11.5115
11.309
11.1361
10.9871
10.8596
10.7488
10.6538
10.5709
10.4995
10.4371
10.3831
10.336
10.295
10.2593
10.2281
10.2011
10.1773
10.1568
10.1388
10.1234
10.1096
10.0981
10.0878
10.0791
10.0716
10.0653
10.0598
10.0557
10.0517
10.0488
10.0464
10.045
10.0439
10.0439
10.0417
10.041
10.0417
10.0443
10.0477
10.052
10.0572
10.063
10.0693
10.0762
10.0838
10.092
10.1012
10.111
10.1212
10.1298
10.1386
10.1475
10.1565
10.1656
10.1747
10.1838
10.1928
10.2018
10.2107
10.2195
10.2281
10.2367
10.2451
10.2533
10.2614
10.2694
10.277
10.2847
10.2919
10.2994
10.3056
10.314
10.3168
31.9675
31.1982
27.7897
24.1035
21.3379
19.2477
17.6559
16.4242
15.4551
14.6824
14.059
13.5514
13.1346
12.7902
12.504
12.2651
12.0646
11.8965
11.7541
11.6347
11.5326
11.4472
11.3736
11.3122
11.2592
11.2148
11.1768
11.1448
11.1176
11.0946
11.0755
11.0589
11.0456
11.0341
11.025
11.017
11.0113
11.0057
11.002
10.9989
10.9971
10.9951
10.9949
10.9925
10.9944
10.994
10.996
10.9992
11.0023
11.0055
11.0087
11.0123
11.0166
11.0217
11.0274
11.0338
11.0408
11.0484
11.0565
11.0654
11.0748
11.0851
11.096
11.1067
11.1156
11.1246
11.1338
11.1429
11.1521
11.1612
11.1703
11.1793
11.1883
11.1971
11.2058
11.2144
11.2228
11.2311
11.2392
11.2472
11.255
11.2625
11.27
11.277
11.2844
11.2904
11.2987
11.3014
41.9279
37.3313
30.6416
25.8279
22.4906
20.1046
18.3511
17.0305
16.0147
15.2205
14.5912
14.0875
13.6808
13.3503
13.0803
12.8588
12.6762
12.5261
12.4011
12.2988
12.2129
12.143
12.0839
12.0363
11.996
11.9637
11.9367
11.9151
11.8973
11.8833
11.8724
11.8632
11.8571
11.8516
11.8484
11.8463
11.8447
11.8433
11.8443
11.8452
11.8473
11.85
11.8534
11.856
11.8595
11.863
11.8668
11.8714
11.8762
11.8812
11.8864
11.8918
11.8977
11.904
11.9108
11.9182
11.9259
11.9343
11.9432
11.9527
11.9627
11.9735
11.9849
11.9958
12.0047
12.0137
12.0227
12.0318
12.0408
12.0498
12.0587
12.0676
12.0763
12.085
12.0935
12.1018
12.1101
12.1181
12.126
12.1337
12.1413
12.1485
12.1558
12.1625
12.1697
12.1754
12.1835
12.1862
50.3356
40.995
32.0873
26.5555
22.9274
20.4247
18.6311
17.3074
16.3075
15.5389
14.9398
14.4683
14.0938
13.7949
13.555
13.3618
13.2057
13.08
12.9776
12.8961
12.8289
12.7763
12.7327
12.6993
12.6718
12.651
12.6345
12.6222
12.6127
12.6066
12.6024
12.5994
12.5991
12.5978
12.5996
12.6019
12.6053
12.608
12.6118