/*--------------------------------*- C++ -*----------------------------------*\
| =========                 |                                                 |
| \\      /  F ield         | OpenFOAM: The Open Source CFD Toolbox           |
|  \\    /   O peration     | Version:  2306                                  |
|   \\  /    A nd           | Website:  www.openfoam.com                      |
|    \\/     M anipulation  |                                                 |
\*---------------------------------------------------------------------------*/
FoamFile
{
    version     2.0;
    format      ascii;
    arch        "LSB;label=32;scalar=64";
    class       volScalarField;
    location    "1900";
    object      nut;
}
// * * * * * * * * * * * * * * * * * * * * * * * * * * * * * * * * * * * * * //

dimensions      [0 2 -1 0 0 0 0];

internalField   nonuniform List<scalar> 
20540
(
0.011818
0.0377872
0.0118159
0.0377853
0.0118073
0.0377762
0.0117918
0.0377591
0.011768
0.037732
0.0117343
0.0376927
0.0116891
0.0376379
0.01163
0.0375637
0.0115548
0.0374648
0.0114605
0.0373344
0.011344
0.0371637
0.0112016
0.036941
0.0110293
0.0366505
0.0108219
0.0362717
0.0105743
0.0357821
0.0102825
0.0351559
0.00994493
0.0343626
0.00956464
0.0333675
0.00915416
0.0321296
0.00874436
0.0305917
0.00840083
0.0286888
0.00825016
0.0263557
0.00850224
0.023548
0.00938946
0.0202886
0.0109097
0.0166466
0.0126034
0.0131249
0.0138732
0.0109298
0.0144877
0.0118045
0.0148507
0.0137654
0.0150382
0.0144594
0.0149909
0.0146911
0.0149532
0.0147247
0.014961
0.0147152
0.0150094
0.0146522
0.0150449
0.0143594
0.0147958
0.0136115
0.0143769
0.0116012
0.0137146
0.010759
0.0123628
0.0129674
0.0106224
0.0165179
0.00913755
0.0201903
0.00834584
0.0234651
0.00819906
0.0262781
0.00844151
0.028612
0.00886208
0.0305136
0.0093379
0.0320492
0.00980625
0.0332849
0.0102378
0.0342784
0.010621
0.0350778
0.0109533
0.0357155
0.0112396
0.0362167
0.0114855
0.0366041
0.0116947
0.0368989
0.0118701
0.0371231
0.0120152
0.0372944
0.0121338
0.0374255
0.0122296
0.0375256
0.0123059
0.0376017
0.0123656
0.037659
0.0124114
0.0377014
0.0124454
0.0377319
0.0124695
0.037753
0.0124853
0.0377663
0.0124941
0.0377735
0.0124969
0.0377755
1.77167e-05
1.43354e-05
1.35684e-05
1.31643e-05
1.28969e-05
1.27091e-05
1.25714e-05
1.24655e-05
1.23821e-05
1.23148e-05
1.22599e-05
1.22142e-05
1.21759e-05
1.21433e-05
1.21156e-05
1.20917e-05
1.2071e-05
1.2053e-05
1.20373e-05
1.20234e-05
1.20113e-05
1.20005e-05
1.1991e-05
1.19825e-05
1.19748e-05
1.1968e-05
1.19619e-05
1.19564e-05
1.19514e-05
1.1947e-05
1.19429e-05
1.19393e-05
1.19359e-05
1.1933e-05
1.19302e-05
1.19277e-05
1.19255e-05
1.19235e-05
1.19217e-05
1.19201e-05
1.19188e-05
1.19176e-05
1.19167e-05
1.1916e-05
1.19156e-05
1.19155e-05
1.19157e-05
1.19164e-05
1.19174e-05
1.19189e-05
1.1921e-05
1.19236e-05
1.19271e-05
1.19313e-05
1.19364e-05
1.19426e-05
1.19499e-05
1.19585e-05
1.19686e-05
1.19802e-05
1.19937e-05
1.20091e-05
1.2027e-05
1.20439e-05
1.20586e-05
1.2074e-05
1.20904e-05
1.21078e-05
1.21261e-05
1.21455e-05
1.21658e-05
1.21872e-05
1.22097e-05
1.22333e-05
1.22583e-05
1.22843e-05
1.23123e-05
1.23408e-05
1.2373e-05
1.24039e-05
1.24432e-05
1.24747e-05
1.25293e-05
1.25563e-05
1.26387e-05
1.26762e-05
1.27803e-05
1.28836e-05
4.34945e-05
2.87007e-05
2.63094e-05
2.51156e-05
2.43706e-05
2.3855e-05
2.34805e-05
2.31956e-05
2.29721e-05
2.27927e-05
2.26465e-05
2.25251e-05
2.24237e-05
2.23376e-05
2.22643e-05
2.22012e-05
2.21469e-05
2.20994e-05
2.20582e-05
2.20218e-05
2.199e-05
2.19616e-05
2.19368e-05
2.19145e-05
2.18945e-05
2.18766e-05
2.18607e-05
2.18463e-05
2.18335e-05
2.18218e-05
2.18113e-05
2.18018e-05
2.17931e-05
2.17853e-05
2.17781e-05
2.17717e-05
2.17658e-05
2.17605e-05
2.17557e-05
2.17514e-05
2.17476e-05
2.17443e-05
2.17415e-05
2.17392e-05
2.17374e-05
2.17361e-05
2.17355e-05
2.17355e-05
2.17362e-05
2.17378e-05
2.17403e-05
2.17438e-05
2.17486e-05
2.17545e-05
2.1762e-05
2.17709e-05
2.17819e-05
2.17946e-05
2.18098e-05
2.18271e-05
2.18474e-05
2.18703e-05
2.18969e-05
2.19217e-05
2.19432e-05
2.1966e-05
2.19898e-05
2.20147e-05
2.20406e-05
2.20677e-05
2.20956e-05
2.2125e-05
2.21546e-05
2.21863e-05
2.22174e-05
2.22514e-05
2.22833e-05
2.23198e-05
2.23517e-05
2.23913e-05
2.24219e-05
2.24631e-05
2.2498e-05
2.2522e-05
2.25849e-05
2.25481e-05
2.27532e-05
2.20961e-05
0.000109389
6.72623e-05
6.16661e-05
5.90277e-05
5.74693e-05
5.64133e-05
5.56534e-05
5.50798e-05
5.46319e-05
5.42727e-05
5.39807e-05
5.37383e-05
5.35361e-05
5.33643e-05
5.32182e-05
5.30925e-05
5.29844e-05
5.28898e-05
5.2808e-05
5.27354e-05
5.26724e-05
5.26158e-05
5.25666e-05
5.25223e-05
5.24826e-05
5.24471e-05
5.24156e-05
5.23872e-05
5.23617e-05
5.23387e-05
5.23178e-05
5.22992e-05
5.2282e-05
5.22666e-05
5.22523e-05
5.22397e-05
5.22279e-05
5.22174e-05
5.22077e-05
5.21991e-05
5.21914e-05
5.21845e-05
5.21785e-05
5.21733e-05
5.21689e-05
5.21653e-05
5.21626e-05
5.2161e-05
5.21601e-05
5.21605e-05
5.21622e-05
5.21651e-05
5.21697e-05
5.21757e-05
5.21838e-05
5.21935e-05
5.22057e-05
5.22199e-05
5.22373e-05
5.22568e-05
5.228e-05
5.23057e-05
5.23359e-05
5.23635e-05
5.23874e-05
5.24129e-05
5.24391e-05
5.24661e-05
5.24935e-05
5.2522e-05
5.25503e-05
5.25808e-05
5.26085e-05
5.26407e-05
5.26667e-05
5.27011e-05
5.27217e-05
5.27604e-05
5.27696e-05
5.28172e-05
5.28045e-05
5.28634e-05
5.28357e-05
5.28461e-05
5.28928e-05
5.26852e-05
5.32985e-05
5.06432e-05
0.000212974
0.000120123
0.000109018
0.000104188
0.000101535
9.9809e-05
9.85946e-05
9.76932e-05
9.69971e-05
9.64426e-05
9.59941e-05
9.56233e-05
9.5315e-05
9.50537e-05
9.4832e-05
9.46415e-05
9.44782e-05
9.43351e-05
9.42121e-05
9.41026e-05
9.40081e-05
9.39229e-05
9.38493e-05
9.3783e-05
9.37234e-05
9.36702e-05
9.36234e-05
9.35809e-05
9.3543e-05
9.3509e-05
9.34779e-05
9.34503e-05
9.34247e-05
9.3402e-05
9.33808e-05
9.33621e-05
9.33446e-05
9.33289e-05
9.33146e-05
9.33016e-05
9.32899e-05
9.32792e-05
9.32697e-05
9.3261e-05
9.32534e-05
9.32464e-05
9.32404e-05
9.32357e-05
9.32312e-05
9.32278e-05
9.32255e-05
9.32239e-05
9.32239e-05
9.32243e-05
9.32265e-05
9.3229e-05
9.32336e-05
9.32387e-05
9.32462e-05
9.32536e-05
9.32636e-05
9.32737e-05
9.32863e-05
9.32969e-05
9.3306e-05
9.33161e-05
9.3326e-05
9.33352e-05
9.3343e-05
9.33512e-05
9.33564e-05
9.3365e-05
9.33645e-05
9.33732e-05
9.33643e-05
9.33754e-05
9.33499e-05
9.33696e-05
9.33132e-05
9.3355e-05
9.32437e-05
9.33166e-05
9.31682e-05
9.3144e-05
9.31432e-05
9.27068e-05
9.38513e-05
9.0183e-05
0.000362771
0.000188872
0.000168319
0.000159945
0.000155651
0.000152995
0.000151184
0.000149871
0.000148874
0.000148089
0.00014746
0.000146942
0.000146515
0.000146154
0.000145849
0.000145588
0.000145365
0.000145169
0.000145003
0.000144854
0.000144726
0.000144611
0.000144512
0.000144423
0.000144342
0.000144271
0.000144208
0.000144152
0.000144101
0.000144056
0.000144015
0.000143979
0.000143945
0.000143915
0.000143887
0.000143862
0.000143839
0.000143818
0.000143799
0.000143782
0.000143766
0.000143752
0.000143739
0.000143726
0.000143715
0.000143704
0.000143693
0.000143684
0.000143674
0.000143665
0.000143656
0.000143647
0.000143638
0.000143628
0.000143619
0.000143608
0.000143597
0.000143585
0.000143572
0.000143555
0.000143539
0.000143518
0.000143495
0.000143473
0.000143453
0.000143433
0.000143412
0.000143388
0.000143359
0.000143331
0.000143294
0.000143264
0.000143216
0.000143184
0.000143119
0.000143091
0.000142995
0.000142984
0.000142833
0.000142864
0.000142621
0.000142712
0.000142415
0.000142351
0.000142269
0.00014164
0.000143272
0.000139238
0.000569787
0.000278078
0.000242168
0.00022808
0.000221237
0.000217223
0.000214586
0.00021273
0.000211354
0.000210288
0.000209444
0.000208758
0.000208196
0.000207725
0.000207329
0.000206992
0.000206706
0.000206455
0.000206243
0.000206054
0.000205893
0.000205747
0.000205624
0.000205512
0.000205411
0.000205322
0.000205245
0.000205175
0.000205113
0.000205058
0.000205007
0.000204963
0.000204922
0.000204886
0.000204851
0.000204822
0.000204794
0.000204769
0.000204746
0.000204725
0.000204706
0.000204688
0.000204671
0.000204655
0.00020464
0.000204625
0.000204609
0.000204594
0.000204579
0.000204562
0.000204544
0.000204525
0.000204504
0.00020448
0.000204455
0.000204424
0.000204392
0.000204353
0.000204311
0.00020426
0.000204205
0.000204139
0.000204066
0.000203998
0.000203938
0.000203875
0.000203809
0.000203739
0.000203661
0.000203582
0.00020349
0.000203408
0.000203297
0.000203213
0.000203075
0.000202999
0.000202816
0.000202768
0.000202509
0.000202524
0.000202143
0.000202248
0.000201798
0.000201707
0.00020155
0.000200845
0.000202621
0.000198769
0.000846791
0.000394068
0.00033456
0.000311419
0.00030057
0.000294499
0.000290668
0.000288062
0.000286185
0.000284764
0.00028366
0.000282775
0.00028206
0.000281466
0.000280973
0.000280555
0.000280205
0.0002799
0.000279644
0.000279415
0.000279224
0.00027905
0.000278904
0.000278773
0.000278655
0.00027855
0.000278461
0.00027838
0.00027831
0.000278247
0.00027819
0.000278141
0.000278094
0.000278054
0.000278016
0.000277984
0.000277952
0.000277925
0.0002779
0.000277877
0.000277856
0.000277835
0.000277817
0.000277798
0.00027778
0.000277761
0.000277741
0.00027772
0.000277699
0.000277674
0.000277646
0.000277614
0.00027758
0.000277538
0.000277494
0.000277439
0.000277379
0.000277308
0.00027723
0.000277136
0.000277033
0.000276912
0.000276777
0.000276651
0.000276543
0.000276428
0.000276309
0.000276183
0.000276046
0.000275907
0.000275751
0.000275609
0.000275426
0.000275283
0.000275067
0.000274936
0.000274664
0.00027457
0.000274213
0.000274196
0.000273708
0.000273808
0.000273228
0.000273139
0.000272928
0.000272299
0.000273934
0.000269053
0.00120834
0.000544849
0.000450967
0.000413843
0.00039671
0.000387461
0.000381839
0.000378147
0.000375573
0.000373679
0.000372243
0.000371116
0.000370222
0.000369491
0.000368892
0.000368392
0.000367979
0.000367621
0.000367327
0.000367063
0.000366848
0.000366651
0.000366491
0.000366346
0.000366216
0.000366102
0.000366007
0.000365921
0.000365847
0.000365783
0.000365724
0.000365675
0.000365627
0.000365588
0.00036555
0.000365519
0.000365488
0.000365462
0.000365438
0.000365416
0.000365396
0.000365376
0.000365358
0.000365339
0.000365321
0.0003653
0.000365277
0.000365251
0.000365224
0.000365193
0.000365155
0.00036511
0.000365062
0.000365002
0.000364936
0.000364855
0.000364766
0.000364659
0.000364541
0.000364399
0.000364242
0.00036406
0.000363856
0.000363668
0.000363507
0.000363336
0.000363159
0.000362973
0.000362773
0.000362571
0.000362349
0.000362145
0.00036189
0.000361688
0.000361399
0.00036121
0.000360868
0.000360718
0.000360304
0.000360224
0.000359713
0.000359752
0.000359116
0.000359071
0.000358849
0.000358415
0.000359835
0.000349382
0.00167074
0.000740085
0.000598621
0.000540551
0.000513681
0.000499488
0.000491115
0.000485787
0.000482194
0.000479632
0.000477746
0.000476304
0.00047519
0.000474296
0.000473583
0.000472997
0.000472524
0.000472118
0.000471795
0.000471505
0.000471278
0.000471069
0.000470905
0.000470759
0.000470627
0.000470514
0.000470424
0.000470342
0.000470275
0.000470218
0.000470166
0.000470126
0.000470084
0.000470053
0.000470022
0.00047
0.000469975
0.000469956
0.000469939
0.000469924
0.00046991
0.000469896
0.000469884
0.000469868
0.000469853
0.000469835
0.000469813
0.000469785
0.000469754
0.00046972
0.000469676
0.000469621
0.000469561
0.000469483
0.000469399
0.000469292
0.000469175
0.000469032
0.000468876
0.000468686
0.000468478
0.000468234
0.000467963
0.000467714
0.000467503
0.000467278
0.000467046
0.000466803
0.000466545
0.000466284
0.000466006
0.000465745
0.000465434
0.00046518
0.000464841
0.000464598
0.000464227
0.000464011
0.000463613
0.000463432
0.000462992
0.000462942
0.000462365
0.000462399
0.000462202
0.000461965
0.000463592
0.000446338
0.00225174
0.000990991
0.000786791
0.000698421
0.000656768
0.000634918
0.000622275
0.000614423
0.000609278
0.000605721
0.000603184
0.000601301
0.000599892
0.000598792
0.000597941
0.00059726
0.00059673
0.000596283
0.000595944
0.000595643
0.00059542
0.000595215
0.000595066
0.000594934
0.000594818
0.000594721
0.000594652
0.00059459
0.000594544
0.00059451
0.000594478
0.00059446
0.000594437
0.000594427
0.000594413
0.000594411
0.000594402
0.0005944
0.000594399
0.000594399
0.0005944
0.000594399
0.000594401
0.000594397
0.000594392
0.000594382
0.000594369
0.000594345
0.000594317
0.000594282
0.00059424
0.000594181
0.000594115
0.000594026
0.000593929
0.000593803
0.000593664
0.000593494
0.000593307
0.000593077
0.000592827
0.000592533
0.000592207
0.000591907
0.000591658
0.000591392
0.000591119
0.000590832
0.000590533
0.000590229
0.000589918
0.000589618
0.000589279
0.000588991
0.000588643
0.000588357
0.000588017
0.000587732
0.000587407
0.000587155
0.000586842
0.000586725
0.000586351
0.000586476
0.000586379
0.000586601
0.000588832
0.000566007
0.00297004
0.00131011
0.00102695
0.000896405
0.000832906
0.000799368
0.000780106
0.000768316
0.000760749
0.00075565
0.000752116
0.000749571
0.00074773
0.000746338
0.000745303
0.000744503
0.00074391
0.000743426
0.000743085
0.000742787
0.000742591
0.000742412
0.000742302
0.00074221
0.000742132
0.000742075
0.000742051
0.000742031
0.000742028
0.000742038
0.000742047
0.000742071
0.000742084
0.000742112
0.000742134
0.000742167
0.00074219
0.000742219
0.000742248
0.000742277
0.000742306
0.000742331
0.000742358
0.000742376
0.000742394
0.000742404
0.000742408
0.0007424
0.000742384
0.000742361
0.000742327
0.000742274
0.000742217
0.000742126
0.00074203
0.000741896
0.000741751
0.000741567
0.000741367
0.000741114
0.000740844
0.000740523
0.000740169
0.000739845
0.00073958
0.000739295
0.000739009
0.000738701
0.00073839
0.000738071
0.000737769
0.000737456
0.000737136
0.000736848
0.000736543
0.000736249
0.000735987
0.000735687
0.000735447
0.000735311
0.00073506
0.000735114
0.000734848
0.000735157
0.000735219
0.000735875
0.000739259
0.000712102
0.00384435
0.00171099
0.00133268
0.00114587
0.00105112
0.00100013
0.000970731
0.000952807
0.000941427
0.000933888
0.000928772
0.00092518
0.000922656
0.00092081
0.00091949
0.000918513
0.00091783
0.000917297
0.000916963
0.000916682
0.000916536
0.00091641
0.000916368
0.000916349
0.00091634
0.000916352
0.000916406
0.000916458
0.00091653
0.000916614
0.000916691
0.000916786
0.000916861
0.000916954
0.000917034
0.000917127
0.000917204
0.000917284
0.000917364
0.000917441
0.000917517
0.000917584
0.000917655
0.000917712
0.000917769
0.000917813
0.000917852
0.000917873
0.000917886
0.00091789
0.000917882
0.000917853
0.000917818
0.000917744
0.000917672
0.000917549
0.000917419
0.000917248
0.000917064
0.000916817
0.000916564
0.000916251
0.000915915
0.000915607
0.00091536
0.000915095
0.000914833
0.000914541
0.000914264
0.000913975
0.000913737
0.000913452
0.000913217
0.000912983
0.000912767
0.000912607
0.000912379
0.000912284
0.000912085
0.000912135
0.000912029
0.000912274
0.00091228
0.000912808
0.000913147
0.000914193
0.000918829
0.000888276
0.00489225
0.00220779
0.00171925
0.00146068
0.00132293
0.00124665
0.00120203
0.00117468
0.00115732
0.0011459
0.00113823
0.00113294
0.00112929
0.00112668
0.00112488
0.0011236
0.00112275
0.00112213
0.00112178
0.00112152
0.00112144
0.00112139
0.00112145
0.00112154
0.00112164
0.00112176
0.00112193
0.00112209
0.00112228
0.00112247
0.00112266
0.00112286
0.00112303
0.00112322
0.0011234
0.00112358
0.00112374
0.0011239
0.00112406
0.00112421
0.00112436
0.0011245
0.00112464
0.00112475
0.00112487
0.00112497
0.00112507
0.00112514
0.00112521
0.00112526
0.0011253
0.00112532
0.00112533
0.00112531
0.00112528
0.00112521
0.00112513
0.001125
0.00112488
0.00112468
0.00112449
0.00112424
0.00112398
0.00112375
0.00112356
0.00112337
0.00112319
0.001123
0.0011228
0.00112263
0.00112246
0.00112234
0.00112218
0.00112212
0.00112201
0.00112203
0.001122
0.00112209
0.00112214
0.00112238
0.00112257
0.00112303
0.00112342
0.00112423
0.00112496
0.00112641
0.0011322
0.00109878
0.0061288
0.00281488
0.00220269
0.00185695
0.00166255
0.00155091
0.00148413
0.00144259
0.00141599
0.00139845
0.00138669
0.0013786
0.00137307
0.00136917
0.00136652
0.00136467
0.00136348
0.00136265
0.00136224
0.00136196
0.00136195
0.00136198
0.00136216
0.00136239
0.00136262
0.00136289
0.00136323
0.00136355
0.00136389
0.00136425
0.00136459
0.00136495
0.00136526
0.00136559
0.0013659
0.00136622
0.0013665
0.00136678
0.00136706
0.00136732
0.00136758
0.00136781
0.00136805
0.00136826
0.00136848
0.00136867
0.00136885
0.001369
0.00136915
0.00136928
0.0013694
0.0013695
0.0013696
0.00136966
0.00136972
0.00136973
0.00136976
0.00136971
0.0013697
0.00136961
0.00136956
0.00136943
0.00136934
0.00136923
0.00136919
0.00136912
0.00136909
0.00136904
0.00136902
0.00136902
0.00136903
0.0013691
0.00136916
0.00136931
0.00136945
0.00136968
0.00136997
0.00137027
0.00137072
0.00137119
0.00137182
0.00137255
0.00137343
0.00137457
0.00137578
0.00137774
0.00138397
0.00134871
0.00756051
0.00354635
0.0027985
0.00235197
0.00208662
0.0019277
0.00182977
0.00176753
0.00172704
0.00170003
0.00168177
0.00166916
0.0016605
0.0016544
0.00165023
0.00164734
0.00164549
0.00164421
0.00164357
0.00164316
0.00164314
0.00164322
0.00164352
0.00164389
0.00164429
0.00164474
0.00164527
0.0016458
0.00164635
0.00164693
0.00164747
0.00164804
0.00164853
0.00164907
0.00164956
0.00165007
0.00165052
0.00165096
0.0016514
0.00165182
0.00165223
0.00165261
0.00165299
0.00165334
0.00165369
0.00165401
0.00165431
0.00165458
0.00165485
0.00165511
0.00165535
0.00165557
0.00165579
0.00165598
0.00165618
0.00165633
0.00165651
0.00165661
0.00165678
0.00165686
0.00165702
0.00165709
0.00165727
0.00165737
0.00165755
0.00165766
0.00165787
0.00165804
0.00165829
0.00165851
0.00165882
0.00165914
0.00165953
0.00165994
0.00166045
0.00166097
0.00166168
0.00166226
0.00166322
0.00166397
0.00166516
0.0016662
0.00166765
0.00166919
0.00167092
0.00167356
0.00167946
0.00164321
0.00917863
0.00441563
0.00351995
0.00296252
0.00261314
0.00239419
0.00225447
0.00216319
0.00210248
0.00206128
0.002033
0.00201323
0.00199947
0.00198968
0.0019829
0.00197813
0.00197499
0.00197279
0.00197159
0.00197079
0.0019706
0.00197061
0.00197094
0.00197142
0.00197196
0.00197258
0.00197333
0.00197408
0.00197488
0.00197573
0.00197652
0.00197735
0.00197808
0.00197887
0.0019796
0.00198035
0.00198103
0.0019817
0.00198236
0.00198299
0.0019836
0.00198417
0.00198475
0.00198528
0.00198582
0.00198632
0.00198679
0.00198722
0.00198766
0.0019881
0.0019885
0.00198891
0.0019893
0.00198967
0.00199007
0.00199041
0.00199082
0.00199113
0.00199155
0.00199186
0.00199233
0.00199268
0.00199323
0.00199363
0.00199411
0.00199448
0.00199502
0.00199546
0.00199608
0.00199659
0.00199732
0.00199793
0.00199878
0.0019995
0.00200051
0.00200136
0.00200259
0.00200354
0.00200506
0.00200615
0.002008
0.00200938
0.00201151
0.00201341
0.00201575
0.00201914
0.00202427
0.00198772
0.010952
0.00543549
0.00437622
0.00370223
0.0032593
0.00296862
0.00277585
0.00264583
0.002557
0.00249533
0.00245213
0.0024214
0.00239961
0.00238383
0.00237268
0.00236467
0.00235918
0.00235523
0.00235284
0.00235116
0.00235043
0.00235008
0.00235025
0.00235067
0.00235123
0.00235195
0.00235288
0.00235384
0.00235489
0.00235602
0.00235708
0.00235822
0.00235921
0.00236032
0.00236133
0.00236238
0.00236334
0.00236429
0.00236523
0.00236612
0.002367
0.00236782
0.00236866
0.00236942
0.0023702
0.00237093
0.00237162
0.00237226
0.00237293
0.00237361
0.00237423
0.00237487
0.00237548
0.00237612
0.00237676
0.00237736
0.00237806
0.00237864
0.0023794
0.00238002
0.00238088
0.0023816
0.00238263
0.00238339
0.00238426
0.00238495
0.00238593
0.00238669
0.00238779
0.00238864
0.00238987
0.00239084
0.00239224
0.00239333
0.00239492
0.00239616
0.00239798
0.00239938
0.0024015
0.00240302
0.00240554
0.00240725
0.00241016
0.00241233
0.00241538
0.0024193
0.00242364
0.00238736
0.0128159
0.00661912
0.00537034
0.00457833
0.00403811
0.00366765
0.0034119
0.00323325
0.00310741
0.00301769
0.00295332
0.00290653
0.0028726
0.00284752
0.00282937
0.002816
0.00280648
0.00279942
0.00279476
0.00279132
0.00278936
0.00278811
0.00278767
0.00278769
0.00278799
0.00278861
0.00278956
0.00279061
0.00279183
0.00279319
0.00279449
0.00279592
0.0027972
0.00279862
0.00279994
0.00280132
0.0028026
0.00280386
0.00280512
0.00280631
0.00280751
0.00280862
0.00280977
0.00281082
0.00281191
0.00281291
0.00281393
0.00281484
0.00281582
0.0028167
0.0028176
0.00281856
0.0028194
0.0028204
0.00282133
0.00282227
0.00282332
0.00282423
0.00282538
0.00282639
0.00282772
0.00282886
0.00283047
0.00283168
0.00283301
0.00283407
0.00283554
0.0028367
0.00283833
0.00283959
0.00284139
0.00284278
0.00284478
0.0028463
0.00284851
0.0028502
0.00285265
0.00285452
0.00285725
0.0028593
0.00286238
0.00286455
0.00286811
0.00287051
0.00287436
0.00287834
0.00288206
0.00284664
0.0146682
0.00797353
0.00649664
0.00558831
0.00495408
0.00450199
0.00417733
0.00394215
0.00377091
0.00364518
0.00355249
0.00348344
0.00343214
0.00339331
0.00336455
0.00334278
0.00332673
0.00331447
0.00330585
0.00329923
0.00329488
0.00329178
0.00328994
0.00328888
0.00328836
0.00328847
0.00328907
0.00328995
0.0032911
0.00329252
0.00329389
0.0032955
0.00329697
0.00329865
0.00330024
0.0033019
0.0033035
0.00330506
0.00330665
0.00330817
0.0033097
0.00331113
0.00331263
0.00331398
0.00331544
0.00331674
0.00331815
0.00331935
0.00332068
0.0033219
0.00332317
0.00332442
0.0033255
0.00332688
0.00332811
0.00332949
0.00333092
0.00333221
0.00333382
0.00333526
0.00333711
0.00333873
0.00334095
0.00334267
0.0033445
0.003346
0.003348
0.0033496
0.00335178
0.00335351
0.00335589
0.00335776
0.00336035
0.00336237
0.00336519
0.00336736
0.00337042
0.00337276
0.0033761
0.00337861
0.00338226
0.00338493
0.00338895
0.00339174
0.00339615
0.00339975
0.00340332
0.00336911
0.0164008
0.00945751
0.00773674
0.00671678
0.0059987
0.0054711
0.00507831
0.00478344
0.0045613
0.00439299
0.00426523
0.00416749
0.00409294
0.00403513
0.00399116
0.00395707
0.00393112
0.00391075
0.00389573
0.00388381
0.00387531
0.00386882
0.0038643
0.00386103
0.0038588
0.0038576
0.00385721
0.00385731
0.00385793
0.00385897
0.00386008
0.00386157
0.00386302
0.00386475
0.00386643
0.00386825
0.00387004
0.00387182
0.00387366
0.00387544
0.00387728
0.00387898
0.00388081
0.00388246
0.00388429
0.00388592
0.00388772
0.00388917
0.0038909
0.00389247
0.00389414
0.00389576
0.00389722
0.00389887
0.00390036
0.00390214
0.00390395
0.00390566
0.00390775
0.00390965
0.00391203
0.00391414
0.00391696
0.00391924
0.00392157
0.00392355
0.00392606
0.00392816
0.00393087
0.0039331
0.00393603
0.00393841
0.00394155
0.00394408
0.00394746
0.00395011
0.00395373
0.00395651
0.0039604
0.00396327
0.00396746
0.00397041
0.00397495
0.00397792
0.00398289
0.00398589
0.00399019
0.00395668
0.0178809
0.0109979
0.00905579
0.00793294
0.00714657
0.00655761
0.00610596
0.00575559
0.00548274
0.00526932
0.00510233
0.00497093
0.00486787
0.00478614
0.00472184
0.00467097
0.00463127
0.00459919
0.0045746
0.00455455
0.00453947
0.00452744
0.00451834
0.00451127
0.00450582
0.00450207
0.00449958
0.00449793
0.00449721
0.00449714
0.00449732
0.00449816
0.00449908
0.00450045
0.00450184
0.0045035
0.0045052
0.00450696
0.00450885
0.00451071
0.00451267
0.00451453
0.00451656
0.00451842
0.00452049
0.00452233
0.00452445
0.00452618
0.00452832
0.00453018
0.00453217
0.0045341
0.00453619
0.00453787
0.00453978
0.00454139
0.00454371
0.00454583
0.0045484
0.00455077
0.00455359
0.00455616
0.0045595
0.00456235
0.00456514
0.00456761
0.00457058
0.00457318
0.00457634
0.00457908
0.00458247
0.00458536
0.00458897
0.004592
0.00459583
0.00459894
0.004603
0.00460616
0.00461047
0.00461363
0.00461822
0.00462132
0.00462626
0.00462924
0.00463462
0.00463725
0.00464189
0.00460985
0.0189438
0.0124969
0.0103987
0.00918849
0.00835309
0.0077232
0.00723019
0.00683722
0.00652187
0.00626752
0.00606244
0.00589636
0.00576236
0.00565342
0.00556532
0.0054938
0.00543577
0.00538898
0.0053514
0.00531997
0.00529549
0.0052752
0.00525909
0.0052463
0.00523542
0.00522752
0.00522115
0.00521634
0.00521309
0.00521074
0.00520893
0.00520825
0.00520782
0.0052081
0.00520853
0.00520947
0.00521055
0.00521182
0.00521333
0.00521488
0.00521663
0.00521832
0.00522029
0.00522212
0.00522422
0.0052261
0.0052283
0.00523017
0.00523245
0.00523442
0.00523678
0.00523904
0.00524135
0.00524323
0.00524526
0.00524656
0.00524913
0.00525126
0.0052545
0.00525729
0.00526039
0.00526329
0.00526697
0.00527036
0.00527353
0.00527645
0.00527979
0.00528283
0.00528634
0.00528953
0.00529326
0.00529661
0.00530057
0.00530402
0.00530818
0.00531167
0.00531601
0.00531947
0.00532401
0.00532736
0.00533215
0.00533532
0.00534043
0.00534336
0.00534891
0.00535126
0.00535594
0.00532599
0.0193672
0.0138678
0.0116863
0.0104152
0.00955359
0.00890696
0.00839611
0.00798122
0.00764004
0.0073573
0.00712283
0.00692757
0.00676555
0.00663039
0.00651816
0.00642459
0.00634689
0.00628215
0.00622857
0.00618379
0.00614742
0.00611605
0.00609057
0.00606948
0.00605156
0.00603731
0.00602479
0.00601505
0.00600772
0.00600145
0.0059962
0.00599289
0.00598986
0.00598799
0.00598646
0.00598584
0.00598546
0.00598552
0.00598593
0.00598651
0.00598744
0.00598847
0.0059899
0.00599127
0.00599298
0.00599458
0.00599645
0.00599817
0.00600024
0.00600216
0.00600438
0.00600648
0.00600903
0.00601109
0.00601243
0.00601369
0.00601619
0.00601743
0.00602136
0.00602455
0.00602774
0.00603076
0.00603456
0.00603836
0.00604179
0.00604504
0.00604858
0.00605191
0.00605561
0.0060591
0.00606304
0.00606671
0.00607088
0.00607464
0.00607898
0.00608273
0.00608718
0.00609081
0.00609539
0.00609882
0.00610359
0.00610672
0.00611179
0.00611457
0.0061201
0.00612217
0.00612666
0.00609925
0.0188393
0.0150668
0.0128082
0.0115209
0.0106631
0.0100265
0.00952442
0.00911307
0.00876927
0.00847821
0.00823101
0.00801986
0.00784003
0.00768612
0.00755506
0.00744283
0.00734756
0.0072657
0.00719681
0.00713692
0.00708787
0.00704422
0.0070083
0.00697689
0.0069502
0.00692775
0.00690847
0.0068919
0.00687866
0.00686599
0.00685594
0.00684879
0.00684155
0.00683627
0.00683164
0.00682846
0.00682555
0.00682341
0.00682166
0.00682031
0.00681963
0.00681932
0.00681955
0.00681985
0.00682053
0.00682129
0.0068222
0.00682336
0.00682458
0.0068262
0.00682759
0.0068294
0.00683115
0.00683268
0.00683417
0.00683453
0.0068363
0.00683555
0.00683984
0.00684341
0.00684674
0.00684976
0.00685347
0.00685745
0.00686091
0.00686421
0.00686768
0.00687102
0.00687466
0.00687822
0.00688215
0.00688594
0.00689013
0.00689404
0.00689838
0.00690223
0.00690662
0.00691029
0.00691473
0.00691812
0.0069227
0.0069257
0.00693056
0.00693311
0.00693844
0.00694026
0.00694429
0.00691979
0.0175704
0.0155281
0.0135879
0.0123812
0.0115751
0.0109807
0.0105156
0.0101348
0.00981445
0.00953957
0.009302
0.00909483
0.00891442
0.00875627
0.00861851
0.00849739
0.00839241
0.00829957
0.00821995
0.00814878
0.00808857
0.00803466
0.00798864
0.00794764
0.0079128
0.00788203
0.00785522
0.00783143
0.00781065
0.00779292
0.00777688
0.00776411
0.00775013
0.00774074
0.00773237
0.00772571
0.00771918
0.00771379
0.00770833
0.00770405
0.00770109
0.00769886
0.00769723
0.00769567
0.00769462
0.00769369
0.00769285
0.00769274
0.00769234
0.00769329
0.00769277
0.00769331
0.00769407
0.00769394
0.00769269
0.00769237
0.00769424
0.0076904
0.00769232
0.00769797
0.00770206
0.00770579
0.00770957
0.00771355
0.0077167
0.00771967
0.00772265
0.00772554
0.00772871
0.00773192
0.00773549
0.00773901
0.00774291
0.00774665
0.00775069
0.00775438
0.00775848
0.00776207
0.00776632
0.0077697
0.00777409
0.00777702
0.00778163
0.00778399
0.00778893
0.00779125
0.00779355
0.00777251
0.0155575
0.0150397
0.0137988
0.0128366
0.0121619
0.0116531
0.0112572
0.0109347
0.0106635
0.0104296
0.0102256
0.0100452
0.00988544
0.00974248
0.00961557
0.00950118
0.00940012
0.00930834
0.00922794
0.00915449
0.00909037
0.00903215
0.00898099
0.00893474
0.0088938
0.00885752
0.00882457
0.00879621
0.00876888
0.00874779
0.00872666
0.00870904
0.00869109
0.00867652
0.00866299
0.00865189
0.00864158
0.00863199
0.00862033
0.00861358
0.00860876
0.00860454
0.0086004
0.00859624
0.00859266
0.00858881
0.00858522
0.00858266
0.00858013
0.00857976
0.0085745
0.00857156
0.00857021
0.00856994
0.00856731
0.00856633
0.00856893
0.00856184
0.00856204
0.00856759
0.00856618
0.00857603
0.00858103
0.00858537
0.00858807
0.00859061
0.00859272
0.00859458
0.00859678
0.00859882
0.00860124
0.00860342
0.00860617
0.0086087
0.00861127
0.00861368
0.00861623
0.00861951
0.00862379
0.00862827
0.00863353
0.00863736
0.00864229
0.00864509
0.00864982
0.00865226
0.00865414
0.00863643
0.0130255
0.0136239
0.0133302
0.0127365
0.0122944
0.0119273
0.0116397
0.0114043
0.0112062
0.0110356
0.0108868
0.0107542
0.0106356
0.0105278
0.0104307
0.0103411
0.0102606
0.0101856
0.0101184
0.0100558
0.00999948
0.00994738
0.00990028
0.00985706
0.00981744
0.00978187
0.00974855
0.00971936
0.00969136
0.00966713
0.00964426
0.00962448
0.009605
0.00958864
0.00957169
0.00955907
0.009549
0.00953758
0.00952601
0.00951458
0.00950538
0.00949802
0.00949008
0.00948339
0.00947419
0.00946742
0.00945659
0.00945071
0.00944778
0.00944277
0.00944013
0.00943437
0.00943116
0.00943147
0.00943037
0.0094318
0.00943057
0.00942743
0.00941556
0.00941744
0.00942747
0.00943758
0.00944083
0.00944441
0.00944607
0.00944861
0.00944973
0.00945029
0.00945131
0.0094508
0.00945085
0.00944914
0.00944913
0.00944723
0.00944314
0.00943793
0.00942282
0.00942587
0.00941909
0.00944422
0.00945984
0.00947021
0.009479
0.00948422
0.0094902
0.00949344
0.00949493
0.00948108
0.0114678
0.0119418
0.012168
0.0121005
0.0119308
0.0117487
0.0116073
0.0114825
0.0113761
0.0112855
0.0112071
0.011137
0.0110745
0.0110166
0.0109642
0.0109144
0.0108691
0.0108254
0.0107853
0.0107467
0.010711
0.010677
0.0106452
0.0106153
0.010587
0.0105609
0.0105358
0.0105129
0.010491
0.0104709
0.0104517
0.0104346
0.0104178
0.0104031
0.0103883
0.0103756
0.0103637
0.0103526
0.0103424
0.0103326
0.0103236
0.0103155
0.010308
0.0103005
0.010294
0.0102869
0.0102807
0.0102749
0.0102702
0.0102655
0.0102616
0.0102578
0.0102546
0.0102518
0.01025
0.0102482
0.0102469
0.010245
0.0102433
0.0102426
0.0102429
0.0102434
0.0102432
0.0102446
0.0102457
0.0102471
0.0102483
0.0102492
0.0102502
0.0102509
0.0102517
0.0102523
0.0102532
0.0102542
0.0102552
0.0102563
0.0102576
0.0102596
0.0102624
0.0102655
0.0102693
0.010272
0.0102757
0.0102775
0.0102812
0.0102825
0.0102832
0.010272
0.0126873
0.0117432
0.0114528
0.0114312
0.0113852
0.0113643
0.0113285