/*--------------------------------*- C++ -*----------------------------------*\
| =========                 |                                                 |
| \\      /  F ield         | OpenFOAM: The Open Source CFD Toolbox           |
|  \\    /   O peration     | Version:  2306                                  |
|   \\  /    A nd           | Website:  www.openfoam.com                      |
|    \\/     M anipulation  |                                                 |
\*---------------------------------------------------------------------------*/
FoamFile
{
    version     2.0;
    format      ascii;
    arch        "LSB;label=32;scalar=64";
    class       volScalarField;
    location    "1900";
    object      p;
}
// * * * * * * * * * * * * * * * * * * * * * * * * * * * * * * * * * * * * * //

dimensions      [0 2 -2 0 0 0 0];

internalField   nonuniform List<scalar> 
20540
(
177.904
69.958
177.903
65.5997
177.9
62.3284
177.897
60.4944
177.892
59.3504
177.885
58.4898
177.875
57.7952
177.863
57.2261
177.848
56.7534
177.829
56.355
177.806
56.0164
177.777
55.7281
177.742
55.4843
177.701
55.2813
177.651
55.1167
177.593
54.9892
177.526
54.8977
177.45
54.8406
177.365
54.815
177.273
54.8165
177.176
54.8388
177.076
54.8754
176.966
54.9264
176.82
55.0136
176.594
55.1951
176.254
55.5335
175.825
56.0096
175.381
56.5199
174.967
57.0016
174.595
57.4339
174.336
57.7178
174.221
57.8152
174.246
57.7346
174.409
57.4757
174.712
57.033
175.116
56.4655
175.556
55.8725
176.021
55.2678
176.469
54.7118
176.825
54.3072
177.066
54.0705
177.23
53.9347
177.36
53.8387
177.481
53.7602
177.598
53.6989
177.71
53.6605
177.813
53.6502
177.905
53.6716
177.987
53.7271
178.059
53.8177
178.12
53.9441
178.173
54.1066
178.218
54.3062
178.255
54.545
178.286
54.8267
178.312
55.1569
178.333
55.5447
178.35
56.0044
178.363
56.5573
178.373
57.2319
178.381
58.0678
178.386
59.1815
178.39
60.9761
178.393
64.1902
178.394
68.4801
5.33625
9.18176
2.7895
-4.716
-10.8021
-16.4301
-21.9202
-27.1176
-32.0364
-36.721
-41.1895
-45.4521
-49.5235
-53.4157
-57.1397
-60.7046
-64.1194
-67.3922
-70.5301
-73.5403
-76.4288
-79.2013
-81.8637
-84.4206
-86.8775
-89.2384
-91.5075
-93.6888
-95.7862
-97.803
-99.7432
-101.61
-103.405
-105.134
-106.799
-108.401
-109.946
-111.435
-112.872
-114.26
-115.602
-116.901
-118.162
-119.389
-120.585
-121.756
-122.906
-124.043
-125.17
-126.296
-127.427
-128.571
-129.737
-130.932
-132.168
-133.455
-134.803
-136.227
-137.735
-139.347
-141.072
-142.936
-144.945
-146.775
-148.297
-149.858
-151.469
-153.133
-154.848
-156.616
-158.439
-160.318
-162.254
-164.253
-166.309
-168.44
-170.629
-172.916
-175.251
-177.74
-180.238
-183.026
-185.691
-189.008
-191.838
-196.207
-199.584
-206.491
5.34128
9.18301
2.78995
-4.71574
-10.802
-16.4299
-21.9201
-27.1175
-32.0363
-36.7209
-41.1894
-45.4521
-49.5234
-53.4156
-57.1397
-60.7046
-64.1194
-67.3922
-70.5301
-73.5403
-76.4288
-79.2013
-81.8637
-84.4205
-86.8775
-89.2384
-91.5075
-93.6888
-95.7862
-97.803
-99.7432
-101.609
-103.405
-105.134
-106.799
-108.401
-109.946
-111.435
-112.872
-114.26
-115.602
-116.901
-118.162
-119.389
-120.585
-121.756
-122.906
-124.043
-125.17
-126.296
-127.427
-128.571
-129.737
-130.932
-132.168
-133.455
-134.803
-136.227
-137.736
-139.347
-141.072
-142.936
-144.945
-146.775
-148.297
-149.858
-151.47
-153.133
-154.848
-156.617
-158.439
-160.319
-162.254
-164.253
-166.31
-168.441
-170.63
-172.917
-175.252
-177.741
-180.239
-183.027
-185.693
-189.009
-191.841
-196.208
-199.59
-206.307
5.34307
9.18538
2.79091
-4.71516
-10.8016
-16.4296
-21.9199
-27.1174
-32.0362
-36.7208
-41.1893
-45.452
-49.5234
-53.4156
-57.1396
-60.7045
-64.1193
-67.3921
-70.5301
-73.5402
-76.4287
-79.2013
-81.8637
-84.4205
-86.8775
-89.2384
-91.5074
-93.6888
-95.7862
-97.803
-99.7432
-101.609
-103.405
-105.134
-106.799
-108.401
-109.946
-111.435
-112.872
-114.26
-115.602
-116.901
-118.162
-119.389
-120.585
-121.756
-122.906
-124.043
-125.17
-126.296
-127.427
-128.571
-129.737
-130.933
-132.168
-133.455
-134.803
-136.227
-137.736
-139.347
-141.073
-142.936
-144.945
-146.776
-148.297
-149.858
-151.47
-153.134
-154.849
-156.617
-158.44
-160.32
-162.256
-164.254
-166.311
-168.442
-170.631
-172.919
-175.254
-177.744
-180.242
-183.03
-185.696
-189.013
-191.847
-196.212
-199.602
-206.015
5.34357
9.18855
2.79241
-4.71423
-10.8009
-16.4291
-21.9195
-27.117
-32.0359
-36.7206
-41.1891
-45.4518
-49.5232
-53.4154
-57.1395
-60.7044
-64.1192
-67.3921
-70.53
-73.5401
-76.4287
-79.2012
-81.8636
-84.4205
-86.8774
-89.2384
-91.5074
-93.6887
-95.7861
-97.803
-99.7432
-101.609
-103.405
-105.134
-106.799
-108.401
-109.946
-111.435
-112.872
-114.26
-115.602
-116.901
-118.162
-119.389
-120.585
-121.756
-122.906
-124.043
-125.17
-126.296
-127.427
-128.571
-129.737
-130.933
-132.168
-133.455
-134.804
-136.227
-137.736
-139.348
-141.073
-142.936
-144.946
-146.777
-148.298
-149.859
-151.471
-153.135
-154.85
-156.619
-158.442
-160.321
-162.257
-164.256
-166.313
-168.445
-170.634
-172.922
-175.257
-177.748
-180.246
-183.035
-185.701
-189.02
-191.856
-196.215
-199.613
-205.746
5.34081
9.19182
2.79427
-4.71302
-10.8
-16.4285
-21.919
-27.1166
-32.0356
-36.7203
-41.1889
-45.4516
-49.523
-53.4153
-57.1394
-60.7043
-64.1191
-67.392
-70.5299
-73.5401
-76.4286
-79.2011
-81.8636
-84.4204
-86.8773
-89.2383
-91.5073
-93.6887
-95.7861
-97.8029
-99.7431
-101.609
-103.405
-105.134
-106.799
-108.401
-109.946
-111.435
-112.872
-114.26
-115.602
-116.901
-118.162
-119.389
-120.585
-121.756
-122.906
-124.043
-125.17
-126.296
-127.427
-128.571
-129.737
-130.933
-132.169
-133.455
-134.804
-136.227
-137.736
-139.348
-141.074
-142.937
-144.947
-146.777
-148.299
-149.861
-151.473
-153.136
-154.851
-156.621
-158.444
-160.324
-162.26
-164.259
-166.316
-168.448
-170.637
-172.926
-175.262
-177.753
-180.251
-183.042
-185.708
-189.028
-191.867
-196.218
-199.613
-205.554
5.33206
9.1948
2.79637
-4.71155
-10.7988
-16.4276
-21.9183
-27.116
-32.0351
-36.7199
-41.1885
-45.4513
-49.5228
-53.415
-57.1392
-60.7041
-64.119
-67.3918
-70.5298
-73.5399
-76.4285
-79.201
-81.8635
-84.4203
-86.8773
-89.2382
-91.5073
-93.6886
-95.786
-97.8029
-99.7431
-101.609
-103.405
-105.134
-106.798
-108.401
-109.946
-111.435
-112.872
-114.26
-115.602
-116.901
-118.162
-119.389
-120.585
-121.756
-122.906
-124.043
-125.17
-126.296
-127.427
-128.572
-129.737
-130.933
-132.169
-133.456
-134.804
-136.228
-137.737
-139.349
-141.075
-142.938
-144.948
-146.779
-148.301
-149.862
-151.474
-153.138
-154.854
-156.623
-158.446
-160.326
-162.263
-164.263
-166.32
-168.452
-170.642
-172.931
-175.267
-177.759
-180.257
-183.05
-185.717
-189.036
-191.879
-196.217
-199.595
-205.43
5.31456
9.19722
2.79857
-4.70989
-10.7975
-16.4265
-21.9174
-27.1153
-32.0345
-36.7194
-41.1881
-45.4509
-49.5224
-53.4147
-57.1389
-60.7039
-64.1187
-67.3916
-70.5296
-73.5398
-76.4283
-79.2009
-81.8633
-84.4202
-86.8772
-89.2381
-91.5072
-93.6885
-95.7859
-97.8028
-99.743
-101.609
-103.405
-105.134
-106.798
-108.401
-109.946
-111.435
-112.872
-114.26
-115.602
-116.901
-118.162
-119.389
-120.585
-121.756
-122.906
-124.043
-125.17
-126.296
-127.427
-128.572
-129.737
-130.933
-132.169
-133.456
-134.805
-136.228
-137.738
-139.35
-141.075
-142.939
-144.949
-146.78
-148.302
-149.864
-151.477
-153.14
-154.856
-156.626
-158.449
-160.33
-162.267
-164.267
-166.325
-168.458
-170.647
-172.937
-175.274
-177.767
-180.265
-183.059
-185.726
-189.045
-191.891
-196.213
-199.558
-205.316
5.2854
9.19868
2.8007
-4.70808
-10.7959
-16.4252
-21.9163
-27.1144
-32.0337
-36.7187
-41.1875
-45.4504
-49.522
-53.4143
-57.1386
-60.7036
-64.1185
-67.3914
-70.5294
-73.5396
-76.4281
-79.2007
-81.8632
-84.42
-86.877
-89.238
-91.507
-93.6884
-95.7858
-97.8027
-99.7429
-101.609
-103.405
-105.134
-106.798
-108.401
-109.946
-111.435
-112.872
-114.26
-115.602
-116.901
-118.162
-119.389
-120.585
-121.756
-122.906
-124.043
-125.171
-126.296
-127.428
-128.572
-129.738
-130.934
-132.17
-133.457
-134.805
-136.229
-137.738
-139.351
-141.077
-142.941
-144.951
-146.782
-148.305
-149.866
-151.479
-153.143
-154.859
-156.629
-158.453
-160.334
-162.271
-164.272
-166.33
-168.463
-170.654
-172.944
-175.281
-177.775
-180.273
-183.068
-185.735
-189.053
-191.9
-196.201
-199.502
-205.162
5.24135
9.1986
2.80254
-4.70626
-10.7941
-16.4236
-21.915
-27.1133
-32.0328
-36.7179
-41.1868
-45.4498
-49.5214
-53.4139
-57.1381
-60.7032
-64.1181
-67.391
-70.5291
-73.5393
-76.4279
-79.2005
-81.863
-84.4198
-86.8768
-89.2378
-91.5069
-93.6882
-95.7857
-97.8025
-99.7428
-101.609
-103.405
-105.134
-106.798
-108.401
-109.946
-111.435
-112.872
-114.259
-115.601
-116.901
-118.162
-119.389
-120.585
-121.756
-122.907
-124.043
-125.171
-126.297
-127.428
-128.572
-129.738
-130.934
-132.17
-133.457
-134.806
-136.23
-137.739
-139.352
-141.078
-142.942
-144.953
-146.785
-148.307
-149.869
-151.482
-153.147
-154.863
-156.633
-158.458
-160.339
-162.277
-164.277
-166.336
-168.47
-170.661
-172.952
-175.289
-177.784
-180.281
-183.077
-185.743
-189.057
-191.905
-196.176
-199.424
-204.949
5.17894
9.1962
2.80374
-4.70463
-10.7922
-16.4219
-21.9135
-27.112
-32.0317
-36.7169
-41.186
-45.449
-49.5208
-53.4133
-57.1376
-60.7027
-64.1177
-67.3906
-70.5287
-73.5389
-76.4276
-79.2002
-81.8627
-84.4196
-86.8766
-89.2376
-91.5067
-93.6881
-95.7855
-97.8024
-99.7426
-101.609
-103.405
-105.134
-106.798
-108.401
-109.945
-111.435
-112.872
-114.259
-115.601
-116.901
-118.162
-119.388
-120.585
-121.756
-122.907
-124.043
-125.171
-126.297
-127.428
-128.572
-129.738
-130.934
-132.171
-133.458
-134.807
-136.231
-137.741
-139.353
-141.08
-142.944
-144.955
-146.787
-148.31
-149.872
-151.486
-153.151
-154.867
-156.638
-158.462
-160.344
-162.282
-164.284
-166.343
-168.477
-170.668
-172.96
-175.296
-177.792
-180.289
-183.084
-185.749
-189.055
-191.902
-196.129
-199.316
-204.672
5.09459
9.19045
2.80389
-4.70349
-10.7904
-16.42
-21.9118
-27.1105
-32.0303
-36.7158
-41.1849
-45.4481
-49.5199
-53.4125
-57.1369
-60.7021
-64.1171
-67.3901
-70.5282
-73.5385
-76.4272
-79.1998
-81.8623
-84.4193
-86.8763
-89.2373
-91.5064
-93.6878
-95.7853
-97.8022
-99.7424
-101.609
-103.405
-105.134
-106.798
-108.401
-109.945
-111.435
-112.871
-114.259
-115.601
-116.901
-118.162
-119.388
-120.585
-121.756
-122.907
-124.043
-125.171
-126.297
-127.428
-128.573
-129.738
-130.935
-132.171
-133.459
-134.808
-136.232
-137.742
-139.355
-141.081
-142.946
-144.958
-146.79
-148.313
-149.876
-151.489
-153.155
-154.872
-156.643
-158.468
-160.35
-162.288
-164.29
-166.349
-168.484
-170.675
-172.967
-175.303
-177.798
-180.293
-183.087
-185.749
-189.041
-191.885
-196.051
-199.164
-204.32
4.98492
9.18016
2.80243
-4.70324
-10.7888
-16.4182
-21.91
-27.1088
-32.0288
-36.7144
-41.1837
-45.447
-49.5189
-53.4116
-57.1361
-60.7013
-64.1164
-67.3895
-70.5276
-73.538
-76.4267
-79.1993
-81.8619
-84.4189
-86.8759
-89.237
-91.5061
-93.6875
-95.785
-97.8019
-99.7421
-101.608
-103.404
-105.133
-106.798
-108.401
-109.945
-111.434
-112.871
-114.259
-115.601
-116.901
-118.162
-119.388
-120.585
-121.756
-122.907
-124.043
-125.171
-126.297
-127.428
-128.573
-129.739
-130.935
-132.172
-133.459
-134.809
-136.233
-137.743
-139.356
-141.083
-142.948
-144.96
-146.793
-148.316
-149.879
-151.493
-153.159
-154.876
-156.647
-158.472
-160.355
-162.293
-164.295
-166.354
-168.489
-170.68
-172.971
-175.306
-177.8
-180.293
-183.081
-185.74
-189.01
-191.847
-195.927
-198.953
-203.874
4.84706
9.16387
2.79875
-4.70442
-10.788
-16.4166
-21.9082
-27.107
-32.027
-36.7128
-41.1822
-45.4456
-49.5177
-53.4105
-57.1351
-60.7004
-64.1155
-67.3887
-70.5269
-73.5373
-76.426
-79.1987
-81.8614
-84.4183
-86.8754
-89.2365
-91.5056
-93.6871
-95.7846
-97.8015
-99.7418
-101.608
-103.404
-105.133
-106.797
-108.4
-109.945
-111.434
-112.871
-114.259
-115.601
-116.901
-118.162
-119.388
-120.585
-121.756
-122.906
-124.043
-125.171
-126.297
-127.428
-128.573
-129.739
-130.936
-132.172
-133.46
-134.809
-136.234
-137.744
-139.358
-141.085
-142.95
-144.962
-146.795
-148.319
-149.882
-151.496
-153.162
-154.88
-156.651
-158.476
-160.359
-162.297
-164.299
-166.357
-168.492
-170.681
-172.971
-175.304
-177.794
-180.284
-183.061
-185.716
-188.952
-191.775
-195.743
-198.664
-203.316
4.6793
9.13995
2.79214
-4.70769
-10.7883
-16.4155
-21.9066
-27.1052
-32.0252
-36.711
-41.1805
-45.4441
-49.5163
-53.4092
-57.1338
-60.6992
-64.1145
-67.3877
-70.526
-73.5364
-76.4253
-79.198
-81.8607
-84.4177
-86.8748
-89.2359
-91.5051
-93.6866
-95.7841
-97.801
-99.7413
-101.608
-103.404
-105.133
-106.797
-108.4
-109.945
-111.434
-112.871
-114.259
-115.601
-116.9
-118.161
-119.388
-120.584
-121.755
-122.906
-124.043
-125.171
-126.297
-127.428
-128.573
-129.739
-130.936
-132.173
-133.46
-134.81
-136.235
-137.745
-139.359
-141.086
-142.952
-144.964
-146.797
-148.321
-149.884
-151.498
-153.164
-154.881
-156.653
-158.478
-160.36
-162.297
-164.298
-166.356
-168.489
-170.676
-172.963
-175.292
-177.776
-180.26
-183.02
-185.666
-188.853
-191.653
-195.478
-198.277
-202.629
4.48196
9.1065
2.78194
-4.71381
-10.7904
-16.4154
-21.9055
-27.1036
-32.0235
-36.7092
-41.1788
-45.4424
-49.5147
-53.4076
-57.1324
-60.6979
-64.1133
-67.3865
-70.5249
-73.5354
-76.4243
-79.1971
-81.8598
-84.4169
-86.874
-89.2352
-91.5044
-93.6859
-95.7835
-97.8004
-99.7408
-101.607
-103.403
-105.132
-106.797
-108.4
-109.944
-111.433
-112.87
-114.258
-115.6
-116.9
-118.161
-119.388
-120.584
-121.755
-122.906
-124.043
-125.171
-126.297
-127.428
-128.573
-129.739
-130.936
-132.173
-133.461
-134.81
-136.235
-137.746
-139.359
-141.087
-142.952
-144.965
-146.797
-148.321
-149.884
-151.498
-153.163
-154.88
-156.651
-158.475
-160.356
-162.292
-164.291
-166.346
-168.476
-170.66
-172.941
-175.265
-177.737
-180.212
-182.946
-185.577
-188.696
-191.46
-195.107
-197.768
-201.794
4.2587
9.06136
2.76754
-4.72354
-10.795
-16.417
-21.9055
-27.1027
-32.022
-36.7075
-41.177
-45.4406
-49.5129
-53.406
-57.1308
-60.6964
-64.1118
-67.3852
-70.5236
-73.5342
-76.4231
-79.196
-81.8588
-84.4159
-86.8731
-89.2343
-91.5036
-93.6851
-95.7827
-97.7997
-99.7401
-101.607
-103.403
-105.132
-106.796
-108.399
-109.944
-111.433
-112.87
-114.258
-115.6
-116.9
-118.161
-119.387
-120.584
-121.755
-122.906
-124.042
-125.17
-126.296
-127.428
-128.573
-129.739
-130.935
-132.172
-133.46
-134.81
-136.234
-137.745
-139.358
-141.086
-142.951
-144.963
-146.795
-148.318
-149.881
-151.493
-153.158
-154.874
-156.643
-158.465
-160.344
-162.277
-164.273
-166.324
-168.448
-170.626
-172.898
-175.212
-177.666
-180.126
-182.822
-185.429
-188.457
-191.166
-194.603
-197.109
-200.791
4.01804
9.00209
2.74843
-4.73758
-10.8028
-16.4208
-21.907
-27.1028
-32.0213
-36.7063
-41.1755
-45.439
-49.5112
-53.4042
-57.1291
-60.6947
-64.1102
-67.3836
-70.5221
-73.5328
-76.4218
-79.1947
-81.8575
-84.4147
-86.872
-89.2332
-91.5025
-93.6841
-95.7817
-97.7988
-99.7392
-101.606
-103.402
-105.131
-106.795
-108.398
-109.943
-111.432
-112.869
-114.257
-115.599
-116.899
-118.16
-119.387
-120.583
-121.754
-122.905
-124.041
-125.169
-126.296
-127.427
-128.572
-129.738
-130.934
-132.171
-133.458
-134.808
-136.232
-137.742
-139.355
-141.082
-142.946
-144.957
-146.787
-148.309
-149.871
-151.482
-153.144
-154.858
-156.624
-158.443
-160.318
-162.247
-164.237
-166.282
-168.397
-170.564
-172.822
-175.121
-177.548
-179.985
-182.626
-185.195
-188.106
-190.735
-193.931
-196.27
-199.6
3.77488
8.92607
2.72425
-4.75649
-10.8146
-16.4276
-21.9108
-27.1047
-32.0218
-36.7059
-41.1746
-45.4377
-49.5097
-53.4026
-57.1274
-60.693
-64.1085
-67.382
-70.5205
-73.5312
-76.4202
-79.1932
-81.8561
-84.4134
-86.8707
-89.232
-91.5013
-93.6829
-95.7806
-97.7977
-99.7381
-101.605
-103.401
-105.13
-106.794
-108.397
-109.942
-111.431
-112.868
-114.256
-115.598
-116.898
-118.159
-119.386
-120.582
-121.753
-122.904
-124.04
-125.168
-126.294
-127.426
-128.57
-129.736
-130.932
-132.168
-133.455
-134.804
-136.227
-137.737
-139.348
-141.074
-142.936
-144.945
-146.773
-148.293
-149.852
-151.46
-153.119
-154.829
-156.59
-158.404
-160.272
-162.194
-164.174
-166.208
-168.309
-170.461
-172.695
-174.971
-177.359
-179.761
-182.328
-184.838
-187.604
-190.124
-193.056
-195.214
-198.199
3.55084
8.83105
2.69472
-4.78054
-10.8308
-16.4379
-21.9175
-27.1088
-32.024
-36.7069
-41.1746
-45.4371
-49.5087
-53.4014
-57.126
-60.6914
-64.1069
-67.3803
-70.5188
-73.5295
-76.4186
-79.1916
-81.8545
-84.4118
-86.8692
-89.2305
-91.4999
-93.6815
-95.7792
-97.7964
-99.7369
-101.603
-103.4
-105.129
-106.793
-108.396
-109.941
-111.43
-112.867
-114.255
-115.597
-116.897
-118.158
-119.384
-120.581
-121.752
-122.902
-124.039
-125.166
-126.292
-127.423
-128.567
-129.732
-130.928
-132.163
-133.449
-134.797
-136.219
-137.727
-139.336
-141.059
-142.918
-144.923
-146.747
-148.263
-149.819
-151.421
-153.075
-154.778
-156.532
-158.337
-160.195
-162.104
-164.07
-166.087
-168.166
-170.294
-172.496
-174.736
-177.069
-179.417
-181.888
-184.311
-186.906
-189.282
-191.937
-193.902
-196.56
3.37322
8.71594
2.65991
-4.80971
-10.8515
-16.4521
-21.9275
-27.1158
-32.0287
-36.7098
-41.1763
-45.4378
-49.5088
-53.4009
-57.1251
-60.6903
-64.1056
-67.3789
-70.5173
-73.528
-76.417
-79.19
-81.8529
-84.4102
-86.8676
-89.2289
-91.4983
-93.68
-95.7777
-97.7949
-99.7354
-101.602
-103.398
-105.127
-106.792
-108.395
-109.94
-111.429
-112.866
-114.254
-115.596
-116.895
-118.156
-119.383
-120.579
-121.75
-122.9
-124.036
-125.163
-126.289
-127.419
-128.562
-129.727
-130.921
-132.155
-133.439
-134.785
-136.205
-137.71
-139.316
-141.034
-142.888
-144.887
-146.704
-148.214
-149.763
-151.358
-153.002
-154.695
-156.437
-158.228
-160.07
-161.961
-163.904
-165.896
-167.943
-170.035
-172.188
-174.377
-176.635
-178.904
-181.254
-183.556
-185.955
-188.155
-190.527
-192.292
-194.643
3.27351
8.58149
2.6207
-4.84366
-10.8764
-16.4699
-21.941
-27.1259
-32.0361
-36.7151
-41.18
-45.4403
-49.5103
-53.4017
-57.1253
-60.6901
-64.105
-67.378
-70.5162
-73.5267
-76.4156
-79.1886
-81.8514
-84.4087
-86.866
-89.2273
-91.4967
-93.6784
-95.7761
-97.7933
-99.7339
-101.6
-103.397
-105.126
-106.79
-108.393
-109.938
-111.427
-112.864
-114.252
-115.594
-116.894
-118.154
-119.381
-120.577
-121.747
-122.897
-124.032
-125.159
-126.283
-127.413
-128.555
-129.717
-130.91
-132.142
-133.424
-134.766
-136.182
-137.682
-139.283
-140.995
-142.84
-144.829
-146.635
-148.135
-149.674
-151.257
-152.887
-154.564
-156.288
-158.058
-159.875
-161.738
-163.649
-165.602
-167.603
-169.642
-171.729
-173.842
-176
-178.161
-180.36
-182.507
-184.688
-186.683
-188.772
-190.335
-192.399
3.28552
8.43088
2.57904
-4.88174
-10.9049
-16.4908
-21.9575
-27.1391
-32.0464
-36.7231
-41.1862
-45.445
-49.5138
-53.4042
-57.127
-60.6911
-64.1055
-67.3781
-70.516
-73.5262
-76.4149
-79.1876
-81.8503
-84.4076
-86.8648
-89.226
-91.4953
-93.677
-95.7746
-97.7918
-99.7323
-101.599
-103.395
-105.124
-106.789
-108.392
-109.936
-111.426
-112.862
-114.25
-115.592
-116.891
-118.152
-119.378
-120.573
-121.743
-122.893
-124.027
-125.153
-126.276
-127.403
-128.543
-129.704
-130.893
-132.122
-133.399
-134.736
-136.146
-137.639
-139.231
-140.933
-142.765
-144.738
-146.527
-148.013
-149.536
-151.1
-152.709
-154.362
-156.059
-157.798
-159.579
-161.401
-163.263
-165.161
-167.096
-169.06
-171.055
-173.064
-175.094
-177.111
-179.131
-181.087
-183.032
-184.802
-186.613
-187.972
-189.766
3.44188
8.27181
2.53769
-4.92308
-10.9362
-16.5135
-21.9761
-27.1547
-32.0592
-36.7336
-41.1948
-45.452
-49.5194
-53.4087
-57.1305
-60.6938
-64.1075
-67.3795
-70.5169
-73.5267
-76.4151
-79.1876
-81.85
-84.4071
-86.8641
-89.2251
-91.4944
-93.6759
-95.7734
-97.7906
-99.731
-101.598
-103.394
-105.123
-106.787
-108.39
-109.935
-111.424
-112.861
-114.248
-115.59
-116.889
-118.149
-119.374
-120.569
-121.738
-122.886
-124.019
-125.143
-126.264
-127.389
-128.526
-129.683
-130.868
-132.091
-133.362
-134.691
-136.092
-137.574
-139.152
-140.837
-142.65
-144.599
-146.364
-147.828
-149.327
-150.863
-152.44
-154.057
-155.714
-157.407
-159.136
-160.898
-162.691
-164.511
-166.355
-168.216
-170.088
-171.961
-173.828
-175.667
-177.479
-179.216
-180.91
-182.442
-183.981
-185.137
-186.67
3.76868
8.12013
2.49995
-4.96668
-10.969
-16.5367
-21.9954
-27.1714
-32.0734
-36.7457
-41.2052
-45.4609
-49.527
-53.4151
-57.1359
-60.6983
-64.1113
-67.3825
-70.5194
-73.5286
-76.4165
-79.1887
-81.8508
-84.4076
-86.8643
-89.2252
-91.4942
-93.6755
-95.7729
-97.79
-99.7302
-101.597
-103.393
-105.122
-106.786
-108.389
-109.933
-111.422
-112.859
-114.246
-115.587
-116.886
-118.145
-119.37
-120.563
-121.731
-122.878
-124.008
-125.13
-126.247
-127.369
-128.501
-129.652
-130.83
-132.045
-133.306
-134.624
-136.01
-137.475
-139.033
-140.694
-142.478
-144.391
-146.119
-147.55
-149.013
-150.508
-152.039
-153.605
-155.203
-156.83
-158.485
-160.163
-161.861
-163.573
-165.295
-167.017
-168.734
-170.432
-172.104
-173.73
-175.308
-176.803
-178.237
-179.524
-180.798
-181.752
-183.029
4.27722
7.99509
2.47432
-5.0107
-11.0024
-16.5587
-22.0137
-27.1876
-32.0874
-36.758
-41.2162
-45.4707
-49.5356
-53.4227
-57.1427
-60.7043
-64.1164
-67.387
-70.5233
-73.532
-76.4194
-79.1911
-81.8528
-84.4093
-86.8657
-89.2262
-91.4951
-93.6761
-95.7734
-97.7903
-99.7302
-101.596
-103.392
-105.121
-106.785
-108.388
-109.932
-111.421
-112.857
-114.244
-115.584
-116.882
-118.14
-119.364
-120.556
-121.721
-122.865
-123.993
-125.111
-126.223
-127.339
-128.464
-129.606
-130.775
-131.977
-133.224
-134.523
-135.888
-137.328
-138.856
-140.482
-142.221
-144.082
-145.757
-147.141
-148.551
-149.987
-151.452
-152.944
-154.459
-155.994
-157.546
-159.109
-160.678
-162.247
-163.809
-165.356
-166.879
-168.367
-169.811
-171.197
-172.52
-173.758
-174.926
-175.965
-176.979
-177.73
-178.754
4.95132
7.90801
2.47888
-5.05064
-11.0346
-16.5778
-22.0293
-27.2018
-32.0996
-36.7689
-41.2261
-45.4798
-49.544
-53.4304
-57.1497
-60.7106
-64.1223
-67.3923
-70.5281
-73.5363
-76.4232
-79.1946
-81.8559
-84.412
-86.8681
-89.2284
-91.497
-93.6778
-95.7748
-97.7915
-99.7312
-101.597
-103.393
-105.121
-106.785
-108.388
-109.932
-111.42
-112.855
-114.241
-115.581
-116.877
-118.134
-119.356
-120.546
-121.708
-122.849
-123.972
-125.083
-126.189
-127.296
-128.411
-129.54
-130.693
-131.878
-133.102
-134.376
-135.709
-137.112
-138.596
-140.169
-141.845
-143.631
-145.23
-146.546
-147.881
-149.233
-150.605
-151.994
-153.395
-154.805
-156.217
-157.627
-159.028
-160.414
-161.778
-163.111
-164.406
-165.651
-166.841
-167.964
-169.019
-169.99
-170.89
-171.68
-172.439
-172.987
-173.757
5.73191
7.85819
2.53522
-5.0774
-11.0623
-16.5916
-22.0404
-27.2121
-32.1084
-36.7766
-41.2333
-45.4865
-49.5503
-53.4363
-57.1553
-60.7159
-64.1273
-67.397
-70.5325
-73.5405
-76.4271
-79.1982
-81.8593
-84.4152
-86.8711
-89.2311
-91.4994
-93.6801
-95.7768
-97.7933
-99.7328
-101.599
-103.394
-105.122
-106.786
-108.388
-109.931
-111.419
-112.854
-114.239
-115.577
-116.872
-118.127
-119.346
-120.532
-121.69
-122.825
-123.941
-125.044
-126.14
-127.234
-128.333
-129.444
-130.575
-131.732
-132.925
-134.161
-135.449
-136.798
-138.218
-139.716
-141.302
-142.981
-144.473
-145.693
-146.924
-148.162
-149.407
-150.658
-151.907
-153.152
-154.385
-155.6
-156.793
-157.955
-159.081
-160.164
-161.196
-162.172
-163.086
-163.933
-164.712
-165.414
-166.05
-166.594
-167.105
-167.452
-167.971
6.53047
7.81866
2.64725
-5.07907
-11.0791
-16.596
-22.0441
-27.2167
-32.112
-36.7796
-41.2362
-45.4893
-49.553
-53.439
-57.158
-60.7187
-64.13
-67.3997
-70.5352
-73.5431
-76.4297
-79.2008
-81.8618
-84.4176
-86.8734
-89.2333
-91.5015
-93.6821
-95.7788
-97.7951
-99.7345
-101.6
-103.396
-105.123
-106.787
-108.388
-109.931
-111.418
-112.852
-114.236
-115.572
-116.865
-118.117
-119.332
-120.513
-121.665
-122.792
-123.898
-124.989
-126.069
-127.145
-128.221
-129.305
-130.403
-131.523
-132.67
-133.852
-135.076
-136.348
-137.678
-139.069
-140.53
-142.06
-143.405
-144.495
-145.584
-146.668
-147.747
-148.817
-149.873
-150.909
-151.92
-152.9
-153.844
-154.747
-155.602
-156.406
-157.154
-157.844
-158.473
-159.039
-159.541
-159.978
-160.355
-160.659
-160.932
-161.082
-161.357
7.30779
7.7603
2.77655
-5.06305
-11.0844
-16.5888
-22.0386
-27.214
-32.1092
-36.7768
-41.2338
-45.4873
-49.5512
-53.4375
-57.1568
-60.7177
-64.1293
-67.3992
-70.5349
-73.543
-76.4298
-79.201
-81.8621
-84.4181
-86.8739
-89.2339
-91.5022
-93.6828
-95.7795
-97.7958
-99.7352
-101.601
-103.396
-105.124
-106.786
-108.388
-109.93
-111.416
-112.848
-114.23
-115.564
-116.853
-118.101
-119.31
-120.485
-121.628
-122.743
-123.836
-124.909
-125.968
-127.017
-128.062
-129.108
-130.161
-131.225
-132.308
-133.414
-134.548
-135.715
-136.92
-138.165
-139.454
-140.785
-141.934
-142.852
-143.756
-144.643
-145.511
-146.357
-147.175
-147.961
-148.711
-149.42
-150.085
-150.702
-151.268
-151.781
-152.239
-152.641
-152.988
-153.278
-153.514
-153.695
-153.829
-153.907
-153.958
-153.923
-153.969
8.02223
7.71339
2.89596
-5.05186
-11.0929
-16.582
-22.0322
-27.2093
-32.1037
-36.7712
-41.2285
-45.4822
-49.5464
-53.4329
-57.1524
-60.7137
-64.1256
-67.3958
-70.5318
-73.5402
-76.4272
-79.1987
-81.86
-84.4163
-86.8722
-89.2324
-91.5009
-93.6816
-95.7784
-97.7948
-99.7342
-101.6
-103.395
-105.122
-106.785
-108.385
-109.926
-111.411
-112.842
-114.221
-115.552
-116.837
-118.078
-119.28
-120.445
-121.575
-122.675
-123.747
-124.796
-125.825
-126.838
-127.839
-128.832
-129.821
-130.811
-131.804
-132.805
-133.816
-134.84
-135.878
-136.929
-137.993
-139.064
-139.963
-140.664
-141.339
-141.985
-142.6
-143.181
-143.725
-144.228
-144.687
-145.101
-145.468
-145.787
-146.055
-146.275
-146.445
-146.566
-146.641
-146.67
-146.657
-146.602
-146.512
-146.382
-146.23
-146.027
-145.862
8.50198
7.7032
2.98632
-5.04019
-11.0977
-16.5787
-22.0305
-27.2091
-32.1029
-36.7704
-41.2274
-45.4806
-49.5448
-53.4313
-57.1508
-60.7119
-64.1238
-67.394
-70.53
-73.5384
-76.4255
-79.197
-81.8585
-84.4148
-86.8708
-89.231
-91.4995
-93.6803
-95.7771
-97.7935
-99.7328
-101.598
-103.393
-105.12
-106.782
-108.382
-109.922
-111.405
-112.833
-114.21
-115.536
-116.816
-118.05
-119.243
-120.396
-121.511
-122.592
-123.641
-124.66
-125.653
-126.623
-127.571
-128.501
-129.415
-130.316
-131.205
-132.083
-132.952
-133.811
-134.658
-135.492
-136.307
-137.097
-137.73
-138.205
-138.644
-139.047
-139.412
-139.736
-140.018
-140.256
-140.45
-140.6
-140.705
-140.765
-140.782
-140.757
-140.692
-140.588
-140.448
-140.274
-140.069
-139.836
-139.577
-139.295
-138.997
-138.672
-138.358
8.71095
7.70543
3.02711
-5.0339
-11.0986
-16.5768
-22.0299
-27.2095
-32.1033
-36.7708
-41.2277
-45.4806
-49.545
-53.4314
-57.1507
-60.7117
-64.1235
-67.3938
-70.5298
-73.5381
-76.4252
-79.1967
-81.8581
-84.4144
-86.8704
-89.2306
-91.4991
-93.6798
-95.7766
-97.7929
-99.7322
-101.598
-103.392
-105.119
-106.78
-108.379
-109.918
-111.399
-112.825
-114.198
-115.521
-116.794
-118.022
-119.205
-120.345
-121.445
-122.506
-123.53
-124.52
-125.476
-126.4
-127.294
-128.16
-128.997
-129.807
-130.59
-131.345
-132.071
-132.767
-133.428
-134.051
-134.629
-135.155
-135.543
-135.812
-136.04
-136.228
-136.374
-136.477
-136.537
-136.556
-136.532
-136.467
-136.363
-136.22
-136.042
-135.829
-135.585
-135.312
-135.012
-134.689
-134.345
-133.982
-133.605
-133.214
-132.814
-132.404
-131.99
8.6645
7.71654
3.02598
-5.03015
-11.0944
-16.5744
-22.0279
-27.2077
-32.1019
-36.7696
-41.2267
-45.4797
-49.5441
-53.4307
-57.15
-60.7111
-64.123
-67.3933
-70.5293
-73.5377
-76.4248
-79.1963
-81.8578
-84.4141
-86.8701
-89.2303
-91.4988
-93.6795
-95.7763
-97.7925
-99.7316
-101.597
-103.391
-105.117
-106.778
-108.376
-109.914
-111.393
-112.817
-114.187
-115.505
-116.773
-117.993
-119.166
-120.293
-121.377
-122.418
-123.418
-124.377
-125.295
-126.174
-127.014
-127.814
-128.574
-129.294
-129.971
-130.605
-131.192
-131.729
-132.211
-132.632
-132.987
-133.269
-133.433
-133.517
-133.558
-133.558
-133.515
-133.43
-133.305
-133.14
-132.938
-132.7
-132.429
-132.127
-131.796
-131.439
-131.06
-130.66
-130.242
-129.81
-129.365
-128.911
-128.449
-127.982
-127.512
-127.043
-126.563
8.36215
7.73724
2.98281
-5.02914
-11.0853
-16.5713
-22.0247
-27.2041
-32.099
-36.7671
-41.2245
-45.4781
-49.5427
-53.4295
-57.1492
-60.7105
-64.1225
-67.3928
-70.5289
-73.5374
-76.4246
-79.1962
-81.8577
-84.414
-86.8701
-89.2303
-91.4988
-93.6795
-95.7762
-97.7924
-99.7314
-101.596
-103.39
-105.116
-106.776
-108.373
-109.91
-111.388
-112.809
-114.176
-115.49
-116.752
-117.964
-119.128
-120.243
-121.312
-122.333
-123.308
-124.237
-125.119
-125.954
-126.741
-127.478
-128.164
-128.797
-129.374
-129.892
-130.347
-130.736
-131.052
-131.291
-131.444
-131.507
-131.475
-131.399
-131.28
-131.12
-130.918
-130.677
-130.398
-130.085
-129.739
-129.364
-128.962
-128.535
-128.088
-127.622
-127.14
-126.646
-126.142
-125.63
-125.113
-124.593
-124.072
-123.553
-123.035
-122.526
-122.004
7.79489
7.77193
2.89239
-5.03252
-11.0722
-16.5696
-22.0229
-27.2014
-32.0977
-36.7665
-41.2244
-45.4787
-49.5437
-53.4305
-57.1504
-60.7119
-64.124
-67.3943
-70.5305
-73.5389
-76.4261
-79.1976
-81.8591
-84.4153
-86.8714
-89.2314
-91.4998
-93.6805
-95.7771
-97.7931
-99.732
-101.597
-103.39
-105.116
-106.775
-108.371
-109.907
-111.383
-112.802
-114.166
-115.476
-116.733
-117.938
-119.093
-120.197
-121.25
-122.253
-123.206
-124.106
-124.954
-125.748
-126.485
-127.163
-127.78
-128.332
-128.817
-129.229
-129.565
-129.82
-129.988
-130.063
-130.039
-129.911
-129.711
-129.499
-129.245
-128.952
-128.62
-128.251
-127.849
-127.416
-126.957
-126.473
-125.969
-125.447
-124.91
-124.361
-123.803
-123.239
-122.671
-122.101
-121.531
-120.964
-120.401
-119.845
-119.293
-118.756
-118.206
7.01963
7.8386
2.77645
-5.03607
-11.058
-16.573
-22.0272
-27.2045
-32.1019
-36.7712
-41.229
-45.4832
-49.548
-53.4346
-57.1543
-60.7155
-64.1273
-67.3974
-70.5333
-73.5414
-76.4283
-79.1996
-81.8609
-84.4169
-86.8728
-89.2326
-91.5008
-93.6813
-95.7777
-97.7936
-99.7322
-101.597
-103.39
-105.115
-106.774
-108.37
-109.904
-111.379
-112.796
-114.157
-115.464
-116.716
-117.916
-119.063
-120.158
-121.199
-122.187
-123.121
-123.999
-124.819
-125.579
-126.275
-126.906
-127.467
-127.955
-128.365
-128.693
-128.934
-129.083
-129.134
-129.082
-128.921
-128.649
-128.323
-128.009
-127.655
-127.264
-126.837
-126.376
-125.885
-125.368
-124.828
-124.269
-123.694
-123.106
-122.508
-121.904
-121.295
-120.685
-120.075
-119.469
-118.867
-118.271
-117.684
-117.107
-116.537
-115.987
-115.421
6.19607
7.91135
2.64953