/*--------------------------------*- C++ -*----------------------------------*\
| =========                 |                                                 |
| \\      /  F ield         | OpenFOAM: The Open Source CFD Toolbox           |
|  \\    /   O peration     | Version:  2306                                  |
|   \\  /    A nd           | Website:  www.openfoam.com                      |
|    \\/     M anipulation  |                                                 |
\*---------------------------------------------------------------------------*/
FoamFile
{
    version     2.0;
    format      ascii;
    arch        "LSB;label=32;scalar=64";
    class       surfaceScalarField;
    location    "1900";
    object      phi;
}
// * * * * * * * * * * * * * * * * * * * * * * * * * * * * * * * * * * * * * //

dimensions      [0 3 -1 0 0 0 0];

oriented        oriented;

internalField   nonuniform List<scalar> 
40747
(
1.0546e-05
4.33452e-06
4.24058e-06
6.3054e-06
1.27677e-05
9.56819e-06
7.87838e-06
9.12986e-06
1.54611e-05
1.58838e-05
1.11882e-05
1.21512e-05
1.87282e-05
2.34995e-05
1.43797e-05
1.55368e-05
2.26939e-05
3.26746e-05
1.75654e-05
1.95081e-05
2.75111e-05
4.37162e-05
2.08165e-05
2.42601e-05
3.33683e-05
5.69862e-05
2.41844e-05
3.00003e-05
4.04974e-05
7.29084e-05
2.77125e-05
3.69693e-05
4.9186e-05
9.19748e-05
3.14424e-05
4.54562e-05
5.97911e-05
0.000114751
3.54193e-05
5.58141e-05
7.2758e-05
0.000141876
3.96989e-05
6.84783e-05
8.86452e-05
0.000174062
4.43551e-05
8.3989e-05
0.000108156
0.000212079
4.94914e-05
0.00010302
0.000132183
0.000256726
5.52565e-05
0.000126418
0.000161861
0.000308782
6.18669e-05
0.000155251
0.000198645
0.000368917
6.96344e-05
0.000190877
0.000244407
0.000437563
7.90016e-05
0.00023504
0.000301568
0.000514705
9.05785e-05
0.000289991
0.000373256
0.000599584
0.000105169
0.000358666
0.000463512
0.000690291
0.000123764
0.000444917
0.000577507
0.000783238
0.000147446
0.000553825
0.000721753
0.000872551
0.000177104
0.000692094
0.000904219
0.000949501
0.000212799
0.000868524
0.00113432
0.00100213
0.000252641
0.00109448
0.00142269
0.00101532
0.000291554
0.00138378
0.00177943
0.000972916
0.000320412
0.00175057
0.00220756
0.000866691
0.000325716
0.00220225
0.00269876
0.000709969
0.000295689
0.00272878
0.00326285
0.000522291
0.000234408
0.00332413
0.00393167
0.000310747
0.000151552
0.00401452
0.0037546
0.000120654
7.14078e-05
0.00383474
0.00374927
-6.41066e-05
-8.10579e-06
0.00382878
0.0037497
-0.0002493
-8.76076e-05
0.0038292
0.00375591
-0.000440705
-0.000167662
0.00383596
0.00381419
-0.000647624
-0.000247679
0.0038942
0.00318537
-0.000832123
-0.000306635
0.00324432
0.00265078
-0.000986492
-0.000334766
0.00267891
0.00218103
-0.00109078
-0.000327896
0.00217416
0.00176804
-0.00113118
-0.00029767
0.00173781
0.00142139
-0.00111535
-0.000257377
0.0013811
0.00113929
-0.00105903
-0.000216113
0.00109802
0.000912716
-0.000977122
-0.000179087
0.00087569
0.000731995
-0.000881694
-0.000148316
0.000701224
0.000588395
-0.00078176
-0.000123795
0.000563874
0.000474388
-0.00068353
-0.000104636
0.000455229
0.000383739
-0.000590911
-8.97285e-05
0.000368831
0.000311448
-0.000506078
-7.80395e-05
0.000299759
0.00025358
-0.000429994
-6.87188e-05
0.000244259
0.000207072
-0.000362821
-6.11106e-05
0.000199464
0.000169543
-0.00030422
-5.47315e-05
0.000163164
0.000139144
-0.000253572
-4.92364e-05
0.000133648
0.000114431
-0.000210117
-4.43847e-05
0.000109579
9.42772e-05
-0.000173049
-4.00111e-05
8.99036e-05
7.77937e-05
-0.000141577
-3.60023e-05
7.37848e-05
6.42779e-05
-0.000114957
-3.22799e-05
6.05556e-05
5.31711e-05
-9.2511e-05
-2.87881e-05
4.96792e-05
4.40262e-05
-7.36317e-05
-2.54844e-05
4.07225e-05
3.64843e-05
-5.77852e-05
-2.23335e-05
3.33334e-05
3.02556e-05
-4.45069e-05
-1.93018e-05
2.72239e-05
2.5105e-05
-3.33964e-05
-1.6353e-05
2.21561e-05
2.08416e-05
-2.41104e-05
-1.34413e-05
1.79299e-05
1.73094e-05
-1.63569e-05
-1.05016e-05
1.43697e-05
1.43809e-05
-9.88801e-06
-7.42681e-06
1.13062e-05
1.19513e-05
-4.49452e-06
-4.0149e-06
8.53939e-06
9.93455e-06
5.91965e-06
2.61304e-06
3.69236e-06
2.01001e-06
6.03035e-07
1.85315e-06
1.56854e-07
1.76571e-06
8.74469e-08
1.70754e-06
5.81665e-08
1.66652e-06
4.10194e-08
1.63613e-06
3.03905e-08
1.61269e-06
2.34401e-08
1.59414e-06
1.85444e-08
1.57918e-06
1.49582e-08
1.56691e-06
1.22763e-08
1.5567e-06
1.02089e-08
1.54811e-06
8.58451e-09
1.54082e-06
7.29121e-09
1.53459e-06
6.23403e-09
1.52922e-06
5.3663e-09
1.52457e-06
4.6502e-09
1.52053e-06
4.04835e-09
1.51698e-06
3.54322e-09
1.51387e-06
3.11268e-09
1.51112e-06
2.74763e-09
1.50869e-06
2.43135e-09
1.50654e-06
2.15344e-09
1.50461e-06
1.93007e-09
1.50288e-06
1.72786e-09
1.50134e-06
1.5429e-09
1.49995e-06
1.38444e-09
1.49871e-06
1.24706e-09
1.49759e-06
1.12267e-09
1.49657e-06
1.01603e-09
1.49565e-06
9.16328e-10
1.49482e-06
8.29973e-10
1.49407e-06
7.53208e-10
1.49339e-06
6.83688e-10
1.49277e-06
6.18936e-10
1.49221e-06
5.59962e-10
1.4917e-06
5.05945e-10
1.49125e-06
4.51615e-10
1.49085e-06
3.9959e-10
1.49051e-06
3.47394e-10
1.49021e-06
2.95907e-10
1.48997e-06
2.40594e-10
1.48979e-06
1.82765e-10
1.48967e-06
1.20751e-10
1.48962e-06
5.18791e-11
1.48964e-06
-2.48385e-11
1.48975e-06
-1.12053e-10
1.48996e-06
-2.09864e-10
1.49028e-06
-3.21684e-10
1.49074e-06
-4.51658e-10
1.49133e-06
-5.96825e-10
1.4921e-06
-7.64745e-10
1.49305e-06
-9.51589e-10
1.49422e-06
-1.16618e-09
1.49562e-06
-1.40711e-09
1.4973e-06
-1.67909e-09
1.49929e-06
-1.98281e-09
1.50161e-06
-2.32691e-09
1.50432e-06
-2.70707e-09
1.50746e-06
-3.13779e-09
1.51108e-06
-3.62101e-09
1.51524e-06
-4.16057e-09
1.52003e-06
-4.78937e-09
1.52359e-06
-3.55607e-09
1.52737e-06
-3.77706e-09
1.53138e-06
-4.01797e-09
1.53565e-06
-4.26889e-09
1.54017e-06
-4.51686e-09
1.54495e-06
-4.774e-09
1.54998e-06
-5.03712e-09
1.5553e-06
-5.32074e-09
1.56091e-06
-5.60665e-09
1.56683e-06
-5.91434e-09
1.57307e-06
-6.23869e-09
1.57966e-06
-6.58961e-09
1.58662e-06
-6.96831e-09
1.59401e-06
-7.38641e-09
1.60187e-06
-7.86285e-09
1.61027e-06
-8.39395e-09
1.61931e-06
-9.04401e-09
1.62908e-06
-9.76809e-09
1.6399e-06
-1.08234e-08
1.65202e-06
-1.21208e-08
1.66497e-06
-1.29507e-08
1.68472e-06
-1.97493e-08
1.69925e-06
-1.45276e-08
1.73896e-06
-3.97074e-08
-7.49367e-07
2.48832e-06
5.81322e-06
7.00901e-06
4.78339e-06
1.63287e-06
4.48083e-06
4.5941e-07
4.30844e-06
2.59836e-07
4.1921e-06
1.74505e-07
4.10941e-06
1.23706e-07
4.04783e-06
9.1974e-08
4.00013e-06
7.11349e-08
3.96229e-06
5.63925e-08
3.93168e-06
4.55586e-08
3.90652e-06
3.74386e-08
3.88556e-06
3.11671e-08
3.86792e-06
2.62313e-08
3.85291e-06
2.2296e-08
3.84007e-06
1.90759e-08
3.82901e-06
1.64301e-08
3.81941e-06
1.42446e-08
3.81106e-06
1.24064e-08
3.80374e-06
1.08626e-08
3.7973e-06
9.54597e-09
3.79162e-06
8.42888e-09
3.78659e-06
7.46099e-09
3.78214e-06
6.60996e-09
3.77814e-06
5.92484e-09
3.77457e-06
5.30547e-09
3.77137e-06
4.73893e-09
3.7685e-06
4.25291e-09
3.76592e-06
3.83156e-09
3.76359e-06
3.44992e-09
3.76149e-06
3.12238e-09
3.75959e-06
2.81653e-09
3.75787e-06
2.55134e-09
3.75631e-06
2.31536e-09
3.75489e-06
2.10179e-09
3.75361e-06
1.90248e-09
3.75245e-06
1.72148e-09
3.7514e-06
1.55519e-09
3.75046e-06
1.38751e-09
3.74963e-06
1.22712e-09
3.74892e-06
1.0659e-09
3.74831e-06
9.06761e-10
3.74781e-06
7.35707e-10
3.74744e-06
5.56352e-10
3.7472e-06
3.63546e-10
3.7471e-06
1.49149e-10
3.74716e-06
-8.96345e-11
3.74741e-06
-3.61113e-10
3.74787e-06
-6.66929e-10
3.74857e-06
-1.0154e-09
3.74953e-06
-1.42056e-09
3.75081e-06
-1.87382e-09
3.75245e-06
-2.39757e-09
3.75448e-06
-2.98151e-09
3.75696e-06
-3.65149e-09
3.75996e-06
-4.4028e-09
3.76353e-06
-5.25309e-09
3.76775e-06
-6.20094e-09
3.7727e-06
-7.27492e-09
3.77845e-06
-8.45964e-09
3.78512e-06
-9.80396e-09
3.79281e-06
-1.13064e-08
3.80164e-06
-1.29934e-08
3.8118e-06
-1.49444e-08
3.81933e-06
-1.10887e-08
3.82734e-06
-1.17877e-08
3.83585e-06
-1.25242e-08
3.84489e-06
-1.33042e-08
3.85445e-06
-1.40754e-08
3.86454e-06
-1.48705e-08
3.87519e-06
-1.56873e-08
3.88643e-06
-1.6559e-08
3.89828e-06
-1.74493e-08
3.91075e-06
-1.83878e-08
3.92392e-06
-1.94054e-08
3.93778e-06
-2.04559e-08
3.95249e-06
-2.16711e-08
3.96797e-06
-2.28716e-08
3.98458e-06
-2.44726e-08
4.00205e-06
-2.58659e-08
4.02125e-06
-2.82395e-08
4.04129e-06
-2.98121e-08
4.06451e-06
-3.40418e-08
4.08869e-06
-3.62961e-08
4.1171e-06
-4.1367e-08
4.15532e-06
-5.79633e-08
4.18549e-06
-4.47032e-08
4.30151e-06
-1.55729e-07
-9.82922e-07
4.53507e-06
9.13779e-06
1.00225e-05
7.83712e-06
2.93354e-06
7.40555e-06
8.90971e-07
7.15376e-06
5.11626e-07
6.98133e-06
3.46933e-07
6.85798e-06
2.47055e-07
6.76575e-06
1.84205e-07
6.69411e-06
1.42776e-07
6.63715e-06
1.13353e-07
6.59103e-06
9.16745e-08
6.55307e-06
7.54008e-08
6.52142e-06
6.28147e-08
6.49476e-06
5.28979e-08
6.47207e-06
4.49835e-08
6.45264e-06
3.8504e-08
6.4359e-06
3.31764e-08
6.42137e-06
2.87725e-08
6.40871e-06
2.50672e-08
6.39762e-06
2.19534e-08
6.38787e-06
1.92976e-08
6.37925e-06
1.70425e-08
6.37163e-06
1.50895e-08
6.36487e-06
1.33713e-08
6.35881e-06
1.19848e-08
6.35338e-06
1.07347e-08
6.34853e-06
9.59119e-09
6.34417e-06
8.60853e-09
6.34025e-06
7.75686e-09
6.33671e-06
6.9852e-09
6.33351e-06
6.32228e-09
6.33063e-06
5.70428e-09
6.32801e-06
5.16739e-09
6.32564e-06
4.68947e-09
6.32348e-06
4.25657e-09
6.32153e-06
3.85272e-09
6.31977e-06
3.48556e-09
6.31818e-06
3.14816e-09
6.31676e-06
2.80768e-09
6.3155e-06
2.48108e-09
6.31442e-06
2.15243e-09
6.3135e-06
1.82713e-09
6.31276e-06
1.47698e-09
6.31221e-06
1.1086e-09
6.31186e-06
7.11811e-10
6.31174e-06
2.69705e-10
6.31187e-06
-2.22635e-10
6.31229e-06
-7.82637e-10
6.31304e-06
-1.41703e-09
6.31417e-06
-2.13908e-09
6.31573e-06
-2.97671e-09
6.31777e-06
-3.91653e-09
6.32037e-06
-5.00171e-09
6.32361e-06
-6.21313e-09
6.32756e-06
-7.60247e-09
6.33232e-06
-9.16093e-09
6.33799e-06
-1.09251e-08
6.34468e-06
-1.28908e-08
6.35252e-06
-1.51194e-08
6.36164e-06
-1.75768e-08
6.37221e-06
-2.03688e-08
6.38438e-06
-2.34808e-08
6.39838e-06
-2.69859e-08
6.41445e-06
-3.10196e-08
6.42638e-06
-2.30102e-08
6.43906e-06
-2.44743e-08
6.45252e-06
-2.59817e-08
6.46682e-06
-2.75977e-08
6.48194e-06
-2.92e-08
6.49792e-06
-3.08428e-08
6.51477e-06
-3.25384e-08
6.53254e-06
-3.43285e-08
6.55127e-06
-3.61837e-08
6.57099e-06
-3.80998e-08
6.59181e-06
-4.02334e-08
6.6137e-06
-4.23443e-08
6.63697e-06
-4.4938e-08
6.66136e-06
-4.72659e-08
6.68768e-06
-5.07855e-08
6.71509e-06
-5.32792e-08
6.74556e-06
-5.87122e-08
6.77681e-06
-6.10574e-08
6.81367e-06
-7.0901e-08
6.85105e-06
-7.36803e-08
6.89606e-06
-8.63719e-08
6.95403e-06
-1.15941e-07
6.99906e-06
-8.97263e-08
7.18816e-06
-3.44827e-07
-9.23521e-07
7.12875e-06
1.27341e-05
1.28252e-05
1.12246e-05
4.44301e-06
1.06649e-05
1.45071e-06
1.03291e-05
8.47419e-07
1.00955e-05
5.80481e-07
9.92726e-06
4.15315e-07
9.80095e-06
3.10515e-07
9.70256e-06
2.41158e-07
9.6242e-06
1.91716e-07
9.56068e-06
1.55194e-07
9.50835e-06
1.27737e-07
9.46468e-06
1.06477e-07
9.42787e-06
8.97095e-08
9.39654e-06
7.63162e-08
9.3697e-06
6.53471e-08
9.34655e-06
5.63234e-08
9.32646e-06
4.88593e-08
9.30895e-06
4.25781e-08
9.29361e-06
3.72966e-08
9.28012e-06
3.2792e-08
9.2682e-06
2.89642e-08
9.25764e-06
2.5651e-08
9.24827e-06
2.27351e-08
9.23988e-06
2.03756e-08
9.23236e-06
1.82547e-08
9.22564e-06
1.6315e-08
9.21961e-06
1.4645e-08
9.21416e-06
1.31982e-08
9.20926e-06
1.18869e-08
9.20483e-06
1.07591e-08
9.20082e-06
9.70973e-09
9.1972e-06
8.79625e-09
9.1939e-06
7.9829e-09
9.19091e-06
7.24545e-09
9.18821e-06
6.55798e-09
9.18576e-06
5.9322e-09
9.18356e-06
5.35717e-09
9.18159e-06
4.77687e-09
9.17985e-06
4.21856e-09
9.17835e-06
3.65639e-09
9.17708e-06
3.09854e-09
9.17606e-06
2.49757e-09
9.1753e-06
1.86342e-09
9.17484e-06
1.1794e-09
9.17469e-06
4.16013e-10
9.1749e-06
-4.34725e-10
9.17552e-06
-1.40042e-09
9.1766e-06
-2.50059e-09
9.17822e-06
-3.75365e-09
9.18045e-06
-5.20234e-09
9.18336e-06
-6.83188e-09
9.18707e-06
-8.7123e-09
9.19167e-06
-1.08137e-08
9.19729e-06
-1.32227e-08
9.20406e-06
-1.5926e-08
9.21212e-06
-1.89859e-08
9.22163e-06
-2.23945e-08
9.23277e-06
-2.62604e-08
9.24571e-06
-3.05224e-08
9.26071e-06
-3.53681e-08
9.27799e-06
-4.07594e-08
9.29785e-06
-4.68425e-08
9.32065e-06
-5.38147e-08
9.33755e-06
-3.99117e-08
9.35555e-06
-4.24684e-08
9.37462e-06
-4.50539e-08
9.39487e-06
-4.78443e-08
9.41629e-06
-5.06231e-08
9.43891e-06
-5.34576e-08
9.46277e-06
-5.63949e-08
9.4879e-06
-5.94639e-08
9.51441e-06
-6.26847e-08
9.54226e-06
-6.59515e-08
9.57169e-06
-6.967e-08
9.60257e-06
-7.32169e-08
9.63542e-06
-7.7791e-08
9.66974e-06
-8.1584e-08
9.70685e-06
-8.78987e-08
9.74526e-06
-9.16891e-08
9.78816e-06
-1.01614e-07
9.83173e-06
-1.04623e-07
9.88329e-06
-1.22459e-07
9.93512e-06
-1.25518e-07
9.99766e-06
-1.48911e-07
1.00755e-05
-1.93805e-07
1.01399e-05
-1.54148e-07
1.03662e-05
-5.71049e-07
-8.38917e-07
1.02816e-05
1.69001e-05
1.54332e-05
1.52211e-05
6.12197e-06
1.45298e-05
2.14199e-06
1.41005e-05
1.27672e-06
1.37964e-05
8.8463e-07
1.35753e-05
6.36392e-07
1.34085e-05
4.77288e-07
1.32782e-05
3.71482e-07
1.31742e-05
2.95743e-07
1.30897e-05
2.39639e-07
1.30201e-05
1.97389e-07
1.29619e-05
1.64635e-07
1.29128e-05
1.38775e-07
1.28711e-05
1.18101e-07
1.28352e-05
1.01162e-07
1.28044e-05
8.72199e-08
1.27775e-05
7.56803e-08
1.27541e-05
6.59677e-08
1.27336e-05
5.77964e-08
1.27156e-05
5.08274e-08
1.26997e-05
4.49008e-08
1.26856e-05
3.97742e-08
1.2673e-05
3.52607e-08
1.26618e-05
3.15979e-08
1.26517e-05
2.83157e-08
1.26427e-05
2.53148e-08
1.26347e-05
2.27263e-08
1.26274e-05
2.04843e-08
1.26208e-05
1.84519e-08
1.26149e-05
1.67018e-08
1.26095e-05
1.5077e-08
1.26046e-05
1.36596e-08
1.26002e-05
1.23972e-08
1.25962e-05
1.12515e-08
1.25926e-05
1.01842e-08
1.25893e-05
9.21189e-09
1.25864e-05
8.31854e-09
1.25837e-05
7.41737e-09
1.25814e-05
6.54795e-09
1.25794e-05
5.67236e-09
1.25777e-05
4.8016e-09
1.25763e-05
3.86336e-09
1.25753e-05
2.87079e-09
1.25747e-05
1.79904e-09
1.25745e-05
6.01768e-10
1.25748e-05
-7.34647e-10
1.25757e-05
-2.24584e-09
1.25771e-05
-3.97531e-09
1.25793e-05
-5.95008e-09
1.25823e-05
-8.22444e-09
1.25863e-05
-1.0787e-08
1.25913e-05
-1.37428e-08
1.25976e-05
-1.70491e-08
1.26052e-05
-2.08372e-08
1.26143e-05
-2.50897e-08
1.26253e-05
-2.99024e-08
1.26381e-05
-3.52624e-08
1.26532e-05
-4.13415e-08
1.26707e-05
-4.80436e-08
1.2691e-05
-5.56652e-08
1.27144e-05
-6.41341e-08
1.27413e-05
-7.3699e-08
1.27721e-05
-8.46218e-08
1.27949e-05
-6.27462e-08
1.28192e-05
-6.67862e-08
1.2845e-05
-7.08121e-08
1.28723e-05
-7.51677e-08
1.29012e-05
-7.95262e-08
1.29317e-05
-8.3952e-08
1.29639e-05
-8.85537e-08
1.29977e-05
-9.33143e-08
1.30334e-05
-9.83635e-08
1.30709e-05
-1.03402e-07
1.31104e-05
-1.09244e-07
1.31519e-05
-1.14639e-07
1.31959e-05
-1.2188e-07
1.32419e-05
-1.27495e-07
1.32915e-05
-1.37586e-07
1.33427e-05
-1.4287e-07
1.33999e-05
-1.58824e-07
1.34577e-05
-1.62433e-07
1.35259e-05
-1.90598e-07
1.35942e-05
-1.93863e-07
1.36767e-05
-2.31339e-07
1.37748e-05
-2.91939e-07
1.38679e-05
-2.47269e-07
1.40953e-05
-7.98463e-07
-8.89559e-07
1.4146e-05
2.1874e-05
1.78193e-05
2.00622e-05
7.93377e-06
1.92395e-05
2.96475e-06
1.87066e-05
1.80958e-06
1.83205e-05
1.27078e-06
1.80366e-05
9.20276e-07
1.78211e-05
6.92792e-07
1.7652e-05
5.40582e-07
1.75166e-05
4.31095e-07
1.74065e-05
3.49719e-07
1.73156e-05
2.8831e-07
1.72396e-05
2.40632e-07
1.71754e-05
2.02944e-07
1.71208e-05
1.72783e-07
1.70739e-05
1.48061e-07
1.70334e-05
1.277e-07
1.69982e-05
1.10836e-07
1.69676e-05
9.66382e-08
1.69407e-05
8.46866e-08
1.6917e-05
7.44939e-08
1.68961e-05
6.58181e-08
1.68775e-05
5.83188e-08
1.68611e-05
5.17141e-08
1.68464e-05
4.6337e-08
1.68331e-05
4.15349e-08
1.68213e-05
3.71457e-08
1.68107e-05
3.33517e-08
1.68011e-05
3.00667e-08
1.67925e-05
2.70883e-08
1.67847e-05
2.452e-08
1.67776e-05
2.21419e-08
1.67712e-05
2.00625e-08
1.67654e-05
1.82099e-08
1.67601e-05
1.65269e-08
1.67553e-05
1.49605e-08
1.6751e-05
1.35323e-08
1.67471e-05
1.22206e-08
1.67436e-05
1.08985e-08
1.67406e-05
9.61984e-09
1.67379e-05
8.33219e-09
1.67357e-05
7.04943e-09
1.67338e-05
5.66774e-09
1.67325e-05
4.20282e-09
1.67317e-05
2.61995e-09
1.67314e-05
8.51092e-10
1.67318e-05
-1.12749e-09
1.6733e-05
-3.35544e-09
1.67349e-05
-5.91114e-09
1.67378e-05
-8.84058e-09
1.67418e-05
-1.22037e-08
1.6747e-05
-1.59949e-08
1.67536e-05
-2.03665e-08
1.67618e-05
-2.52605e-08
1.67718e-05
-3.08643e-08
1.67839e-05
-3.71567e-08
1.67983e-05
-4.4277e-08
1.68152e-05
-5.22052e-08
1.68351e-05
-6.11946e-08
1.68581e-05
-7.11059e-08
1.68848e-05
-8.2376e-08
1.69156e-05
-9.48865e-08
1.69509e-05
-1.09023e-07
1.69914e-05
-1.2511e-07
1.70214e-05
-9.27424e-08
1.70534e-05
-9.87372e-08
1.70872e-05
-1.04638e-07
1.71231e-05
-1.11017e-07
1.7161e-05
-1.17432e-07
1.72009e-05
-1.23919e-07
1.72431e-05
-1.30684e-07
1.72874e-05
-1.37615e-07
1.7334e-05
-1.45033e-07
1.7383e-05
-1.52325e-07
1.74346e-05
-1.60913e-07
1.74886e-05
-1.68622e-07
1.7546e-05
-1.79313e-07
1.76057e-05
-1.87148e-07
1.76702e-05
-2.02108e-07
1.77365e-05
-2.09116e-07
1.78104e-05
-2.32744e-07
1.78849e-05
-2.36968e-07
1.79721e-05
-2.77827e-07
1.80595e-05
-2.81259e-07
1.81652e-05
-3.37038e-07
1.82841e-05
-4.10752e-07
1.84165e-05
-3.79669e-07
1.86243e-05
-1.00631e-06
-1.11216e-06
1.88469e-05
2.78928e-05
1.99268e-05
2.5989e-05
9.83751e-06
2.5042e-05
3.91176e-06
2.43974e-05
2.45416e-06
2.39171e-05
1.75107e-06
2.35589e-05
1.2785e-06
2.32847e-05
9.66951e-07
2.30685e-05
7.56852e-07
2.28947e-05
6.04827e-07
2.27531e-05
4.91364e-07
2.26359e-05
4.05511e-07
2.25378e-05
3.38733e-07
2.24549e-05
2.85868e-07
2.23841e-05
2.43508e-07
2.23234e-05
2.08766e-07
2.2271e-05
1.8013e-07
2.22254e-05
1.56396e-07
2.21857e-05
1.36407e-07
2.21508e-05
1.19569e-07
2.21201e-05
1.05209e-07
2.20929e-05
9.29734e-08
2.20688e-05
8.24054e-08
2.20475e-05
7.30946e-08
2.20283e-05
6.54881e-08
2.20111e-05
5.87191e-08
2.19957e-05
5.25339e-08
2.19819e-05
4.71749e-08
2.19695e-05
4.25368e-08
2.19582e-05
3.83308e-08
2.1948e-05
3.46988e-08
2.19388e-05
3.13452e-08
2.19305e-05
2.84063e-08
2.19229e-05
2.57864e-08
2.1916e-05
2.34041e-08
2.19098e-05
2.11887e-08
2.19042e-05
1.91676e-08
2.18991e-05
1.73123e-08
2.18946e-05
1.54447e-08
2.18905e-05
1.36344e-08
2.18871e-05
1.1812e-08
2.18841e-05
9.99414e-09
2.18817e-05
8.03767e-09
2.188e-05
5.95951e-09
2.18789e-05
3.71311e-09
2.18785e-05
1.20338e-09
2.1879e-05
-1.60958e-09
2.18804e-05
-4.76675e-09
2.18829e-05
-8.38707e-09
2.18866e-05
-1.25542e-08
2.18918e-05
-1.73304e-08
2.18985e-05
-2.2711e-08
2.1907e-05
-2.89133e-08
2.19176e-05
-3.58617e-08
2.19306e-05
-4.38128e-08
2.19462e-05
-5.27422e-08
2.19647e-05
-6.28448e-08
2.19866e-05
-7.40907e-08
2.20123e-05
-8.6836e-08
2.2042e-05
-1.00889e-07
2.20765e-05
-1.16864e-07
2.21162e-05
-1.34583e-07
2.21618e-05
-1.54609e-07
2.2214e-05
-1.77319e-07
2.22527e-05
-1.31398e-07
2.22939e-05
-1.39916e-07
2.23375e-05
-1.48217e-07
2.23836e-05
-1.57159e-07
2.24324e-05
-1.66193e-07
2.24837e-05
-1.75294e-07
2.25379e-05
-1.8481e-07
2.25947e-05
-1.9447e-07
2.26546e-05
-2.04886e-07
2.27173e-05
-2.14991e-07
2.27834e-05
-2.27043e-07
2.28524e-05
-2.37598e-07
2.29257e-05
-2.52624e-07
2.30017e-05
-2.63144e-07
2.30837e-05
-2.84162e-07
2.31678e-05
-2.93208e-07
2.32613e-05
-3.26228e-07
2.33555e-05
-3.31211e-07
2.34649e-05
-3.8721e-07
2.35744e-05
-3.90734e-07
2.37073e-05
-4.69987e-07
2.3848e-05
-5.51438e-07
2.40276e-05
-5.59192e-07
2.42179e-05
-1.19668e-06
-1.44531e-06
2.45511e-05
3.52214e-05
2.16747e-05
3.32747e-05
1.17843e-05
3.22207e-05
4.96566e-06
3.14609e-05
3.21399e-06
3.08751e-05
2.33684e-06
3.04302e-05
1.72346e-06
3.0086e-05
1.3111e-06
2.98127e-05
1.03021e-06
2.9592e-05
8.25452e-07
2.94116e-05
6.71831e-07
2.92619e-05
5.5519e-07
2.91364e-05
4.64251e-07
2.90301e-05
3.92121e-07
2.89394e-05
3.34235e-07
2.88614e-05
2.86718e-07
2.87941e-05
2.47515e-07
2.87355e-05
2.14994e-07
2.86843e-05
1.87591e-07
2.86394e-05
1.64489e-07
2.85998e-05
1.44786e-07
2.85648e-05
1.27977e-07
2.85337e-05
1.13472e-07
2.85061e-05
1.00686e-07
2.84814e-05
9.02025e-08
2.84592e-05
8.09072e-08
2.84394e-05
7.24158e-08
2.84215e-05
6.50398e-08
2.84054e-05
5.86587e-08
2.83908e-05
5.28712e-08
2.83777e-05
4.78659e-08
2.83658e-05
4.32588e-08
2.8355e-05
3.92115e-08
2.83451e-05
3.56014e-08
2.83362e-05
3.23151e-08
2.83282e-05
2.92622e-08
2.83209e-05
2.64752e-08
2.83143e-05
2.39187e-08
2.83083e-05
2.13498e-08
2.83031e-05
1.88547e-08
2.82986e-05
1.63447e-08
2.82948e-05
1.38382e-08
2.82917e-05
1.11442e-08
2.82893e-05
8.27828e-09
2.82879e-05
5.18e-09
2.82874e-05
1.72094e-09
2.82879e-05
-2.16155e-09
2.82897e-05
-6.51132e-09
2.82928e-05
-1.14878e-08
2.82974e-05
-1.72333e-08
2.83039e-05
-2.38197e-08
2.83124e-05
-3.12321e-08
2.83233e-05
-3.97687e-08
2.83368e-05
-4.9339e-08
2.83533e-05
-6.02833e-08
2.83731e-05
-7.25744e-08
2.83967e-05
-8.64778e-08
2.84246e-05
-1.0195e-07
2.84572e-05
-1.19474e-07
2.84951e-05
-1.38797e-07
2.8539e-05
-1.60753e-07
2.85895e-05
-1.85087e-07
2.86475e-05
-2.12588e-07
2.87139e-05
-2.43673e-07
2.8763e-05
-1.80494e-07
2.88153e-05
-1.92213e-07
2.88706e-05
-2.03548e-07
2.89291e-05
-2.1569e-07
2.8991e-05
-2.28006e-07
2.9056e-05
-2.40371e-07
2.91246e-05
-2.53329e-07
2.91965e-05
-2.66369e-07
2.92721e-05
-2.80511e-07
2.93512e-05
-2.94078e-07
2.94345e-05
-3.10407e-07
2.95214e-05
-3.24435e-07
2.96135e-05
-3.44771e-07
2.97089e-05
-3.58549e-07
2.98116e-05
-3.86871e-07
2.99169e-05
-3.98439e-07
3.00332e-05
-4.42565e-07
3.01507e-05
-4.48675e-07
3.02858e-05
-5.22336e-07
3.0421e-05
-5.25901e-07
3.05853e-05
-6.3433e-07
3.0751e-05
-7.17149e-07
3.098e-05
-7.88196e-07
3.11756e-05
-1.39228e-06
-1.81554e-06
3.15459e-05
4.41726e-05
2.29584e-05
4.22422e-05
1.37147e-05
4.11114e-05
6.09644e-06
4.02406e-05
4.08474e-06
3.95409e-05
3.03654e-06
3.8997e-05
2.26733e-06
3.85707e-05
1.73749e-06
3.8229e-05
1.37191e-06
3.79515e-05
1.10293e-06
3.77235e-05
8.99788e-07
3.75338e-05
7.44854e-07
3.73744e-05
6.23688e-07
3.72392e-05
5.27347e-07
3.71235e-05
4.49877e-07
3.70241e-05
3.86209e-07
3.6938e-05
3.33614e-07
3.6863e-05
2.8994e-07
3.67975e-05
2.53111e-07
3.674e-05
2.22033e-07
3.66892e-05
1.95525e-07
3.66443e-05
1.72877e-07
3.66044e-05
1.53349e-07
3.6569e-05
1.36128e-07
3.65373e-05
1.21952e-07
3.65087e-05
1.09429e-07
3.64832e-05
9.79921e-08
3.64602e-05
8.80298e-08
3.64394e-05
7.94142e-08
3.64207e-05
7.15995e-08
3.64037e-05
6.483e-08
3.63884e-05
5.86198e-08
3.63745e-05
5.31513e-08
3.63618e-05
4.82692e-08
3.63503e-05
4.38199e-08
3.63399e-05
3.96911e-08
3.63304e-05
3.59199e-08
3.63219e-05
3.2463e-08
3.63142e-05
2.89974e-08
3.63075e-05
2.56259e-08
3.63016e-05
2.22369e-08
3.62966e-05
1.88507e-08
3.62925e-05
1.52173e-08
3.62894e-05
1.13477e-08
3.62874e-05
7.16488e-09
3.62867e-05
2.50006e-09
3.62872e-05
-2.73881e-09
3.62893e-05
-8.6045e-09
3.62931e-05
-1.52968e-08
3.62989e-05
-2.30304e-08
3.6307e-05
-3.19058e-08
3.63177e-05
-4.1891e-08
3.63313e-05
-5.33727e-08
3.63482e-05
-6.62513e-08
3.63689e-05
-8.09704e-08
3.63938e-05
-9.74983e-08
3.64235e-05
-1.16191e-07
3.64586e-05
-1.36986e-07
3.64996e-05
-1.60519e-07
3.65473e-05
-1.86468e-07
3.66025e-05
-2.1594e-07
3.6666e-05
-2.48576e-07
3.67389e-05
-2.85454e-07
3.68222e-05
-3.27009e-07
3.68838e-05
-2.42109e-07
3.69494e-05
-2.57836e-07
3.70189e-05
-2.72961e-07
3.70922e-05
-2.89054e-07
3.71697e-05
-3.0543e-07
3.72511e-05
-3.21823e-07
3.73368e-05
-3.39026e-07
3.74267e-05
-3.56204e-07
3.7521e-05
-3.74907e-07
3.76197e-05
-3.92697e-07
3.77235e-05
-4.14211e-07
3.78315e-05
-4.32463e-07
3.79459e-05
-4.5915e-07
3.80643e-05
-4.76926e-07
3.81912e-05
-5.13791e-07
3.83214e-05
-5.28642e-07
3.84643e-05
-5.85503e-07
3.86091e-05
-5.9345e-07
3.8774e-05
-6.87246e-07
3.89392e-05
-6.91129e-07
3.91389e-05
-8.33996e-07
3.93355e-05
-9.13792e-07
3.96117e-05
-1.06436e-06
3.98404e-05
-1.62098e-06
-2.19206e-06
4.02169e-05
5.51231e-05
2.36494e-05
5.32805e-05
1.55572e-05
5.21172e-05
7.25969e-06
5.11513e-05
5.05069e-06
5.03351e-05
3.85276e-06
4.96822e-05
2.92019e-06
4.91614e-05
2.25824e-06
4.87393e-05
1.79404e-06
4.83938e-05
1.44848e-06
4.81083e-05
1.18528e-06
4.78697e-05
9.8338e-07
4.76686e-05
8.24846e-07
4.74975e-05
6.98394e-07
4.7351e-05
5.96449e-07
4.72246e-05
5.12532e-07
4.71152e-05
4.43092e-07
4.70198e-05
3.85359e-07
4.69362e-05
3.36623e-07
4.68628e-05
2.95451e-07
4.6798e-05
2.60322e-07
4.67407e-05
2.30258e-07
4.66897e-05
2.04355e-07
4.66443e-05
1.81502e-07
4.66036e-05
1.62607e-07
4.65671e-05
1.45977e-07
4.65343e-05
1.30796e-07
4.65048e-05
1.17531e-07
4.64782e-05
1.06061e-07
4.64541e-05
9.56579e-08
4.64323e-05
8.663e-08
4.64126e-05
7.83772e-08
4.63946e-05
7.10932e-08
4.63783e-05
6.45832e-08
4.63635e-05
5.86425e-08
4.635e-05
5.31368e-08
4.63379e-05
4.81049e-08
4.63268e-05
4.34956e-08
4.63169e-05
3.8888e-08
4.63082e-05
3.43998e-08
4.63005e-05
2.98933e-08
4.6294e-05
2.53889e-08
4.62886e-05
2.05661e-08
4.62846e-05
1.54259e-08
4.62819e-05
9.87194e-09
4.62807e-05
3.68647e-09
4.62812e-05
-3.25772e-09
4.62836e-05
-1.10328e-08
4.62882e-05
-1.9882e-08
4.62953e-05
-3.01011e-08
4.63052e-05
-4.18371e-08
4.63184e-05
-5.50481e-08
4.63352e-05
-7.02145e-08
4.63562e-05
-8.72275e-08
4.63819e-05
-1.06662e-07
4.64129e-05
-1.28477e-07
4.64498e-05
-1.53145e-07
4.64934e-05
-1.80576e-07
4.65445e-05
-2.11591e-07
4.66038e-05
-2.4579e-07
4.66725e-05
-2.84608e-07
4.67515e-05
-3.27562e-07
4.68421e-05
-3.76077e-07
4.69457e-05
-4.30603e-07
4.70223e-05
-3.18645e-07
4.71038e-05
-3.39322e-07
4.71899e-05
-3.59138e-07
4.7281e-05
-3.80068e-07
4.73769e-05
-4.01408e-07
4.74779e-05
-4.22724e-07
4.75839e-05
-4.45098e-07
4.7695e-05
-4.67297e-07
4.78116e-05
-4.91506e-07
4.79333e-05
-5.14415e-07
4.80612e-05
-5.42107e-07
4.81943e-05
-5.655e-07
4.83347e-05
-5.99619e-07
4.84802e-05
-6.22357e-07
4.86354e-05
-6.68975e-07
4.87949e-05
-6.88221e-07
4.89687e-05
-7.59293e-07
4.91456e-05
-7.70293e-07
4.93446e-05
-8.86298e-07
4.95452e-05
-8.9171e-07
4.97838e-05
-1.07262e-06
5.00194e-05
-1.1494e-06
5.03394e-05
-1.3843e-06
5.06182e-05
-1.89983e-06
-2.58059e-06
5.10068e-05
6.85326e-05
2.35952e-05
6.68625e-05
1.72274e-05
6.57264e-05
8.39576e-06
6.46958e-05
6.08125e-06
6.37701e-05
4.77847e-06
6.3003e-05
3.68728e-06
6.23776e-05
2.88365e-06
6.18631e-05
2.30853e-06
6.14376e-05
1.87399e-06
6.10834e-05
1.53947e-06
6.07859e-05
1.28093e-06
6.05339e-05
1.07685e-06
6.03189e-05
9.13394e-07
6.01341e-05
7.8118e-07
5.99746e-05
6.72107e-07
5.9836e-05
5.81652e-07
5.9715e-05
5.06328e-07
5.9609e-05
4.42652e-07
5.95157e-05
3.88782e-07
5.94332e-05
3.42796e-07
5.93601e-05
3.03363e-07
5.92951e-05
2.69407e-07
5.92371e-05
2.39434e-07
5.91852e-05
2.14538e-07
5.91385e-05
1.927e-07
5.90965e-05
1.72776e-07
5.90588e-05
1.5531e-07
5.90246e-05
1.40205e-07
5.89938e-05
1.26508e-07
5.89658e-05
1.14598e-07
5.89404e-05
1.03749e-07
5.89174e-05
9.41538e-08
5.88964e-05
8.55664e-08
5.88773e-05
7.77181e-08
5.886e-05
7.04551e-08
5.88443e-05
6.38134e-08
5.88301e-05
5.7732e-08
5.88173e-05
5.16741e-08
5.88059e-05
4.57684e-08
5.8796e-05
3.98464e-08
5.87875e-05
3.39272e-08
5.87804e-05
2.76056e-08
5.8775e-05
2.08659e-08
5.87713e-05
1.35884e-08
5.87695e-05
5.49657e-09
5.87698e-05
-3.57645e-09
5.87725e-05
-1.37372e-08
5.87779e-05
-2.52788e-08
5.87864e-05
-3.85873e-08
5.87984e-05
-5.38681e-08
5.88145e-05
-7.10858e-08
5.88351e-05
-9.08207e-08
5.88608e-05
-1.12959e-07
5.88924e-05
-1.38235e-07
5.89305e-05
-1.6659e-07
5.8976e-05
-1.98649e-07
5.90297e-05
-2.34281e-07
5.90927e-05
-2.74526e-07
5.91658e-05
-3.18903e-07
5.92504e-05
-3.69241e-07
5.93478e-05
-4.24898e-07
5.94594e-05
-4.87726e-07
5.9587e-05
-5.58185e-07
5.96812e-05
-4.1284e-07
5.97815e-05
-4.39564e-07
5.98875e-05
-4.6513e-07
5.99993e-05
-4.91937e-07
6.01172e-05
-5.19295e-07
6.02411e-05
-5.4658e-07
6.03712e-05
-5.75175e-07
6.05073e-05
-6.03424e-07
6.065e-05
-6.34209e-07
6.07989e-05
-6.63286e-07
6.0955e-05
-6.98239e-07
6.11174e-05
-7.27894e-07
6.12883e-05
-7.70555e-07
6.14655e-05
-7.99484e-07
6.16536e-05
-8.5707e-07
6.18475e-05
-8.82117e-07
6.20569e-05
-9.68694e-07
6.22712e-05
-9.84668e-07
6.25091e-05
-1.12416e-06
6.27514e-05
-1.13402e-06
6.30326e-05
-1.35382e-06
6.33159e-05
-1.43274e-06
6.36785e-05
-1.7468e-06
6.40131e-05
-2.23444e-06
-2.99278e-06
6.44253e-05
8.49651e-05
2.2619e-05
8.35664e-05
1.86261e-05
8.25322e-05
9.42995e-06
8.14852e-05
7.12827e-06
8.04708e-05
5.79279e-06
7.95928e-05
4.56528e-06
7.8857e-05
3.61949e-06
7.82402e-05
2.92535e-06
7.77232e-05
2.39097e-06
7.72887e-05
1.97395e-06
7.69211e-05
1.64856e-06
7.6608e-05
1.38994e-06
7.63397e-05
1.1817e-06
7.61083e-05
1.01253e-06
7.59079e-05
8.72555e-07
7.57334e-05
7.56139e-07
7.55807e-05
6.58996e-07
7.54466e-05
5.76721e-07
7.53284e-05
5.0699e-07
7.52238e-05
4.47419e-07
7.5131e-05
3.96217e-07
7.50483e-05
3.52138e-07
7.49745e-05
3.13213e-07
7.49083e-05
2.80722e-07
7.48487e-05
2.52304e-07
7.47951e-05
2.26396e-07
7.47468e-05
2.03607e-07
7.47031e-05
1.83888e-07
7.46637e-05
1.6601e-07
7.46278e-05
1.50434e-07
7.45953e-05
1.36296e-07
7.45657e-05
1.23765e-07
7.45387e-05
1.12534e-07
7.45142e-05
1.02252e-07
7.44919e-05
9.27519e-08
7.44717e-05
8.40601e-08
7.44533e-05
7.61012e-08
7.44368e-05
6.82056e-08
7.4422e-05
6.0506e-08
7.44091e-05
5.27967e-08
7.43979e-05
4.50937e-08
7.43887e-05
3.68909e-08
7.43814e-05
2.81474e-08
7.43763e-05
1.87143e-08
7.43735e-05
8.24505e-09
7.43734e-05
-3.46956e-09
7.43763e-05
-1.65897e-08
7.43825e-05
-3.14704e-08
7.43925e-05
-4.85951e-08
7.44069e-05
-6.82392e-08
7.44262e-05
-9.03942e-08
7.44511e-05
-1.15745e-07
7.44823e-05
-1.4419e-07
7.45208e-05
-1.76648e-07
7.45672e-05
-2.13026e-07
7.46227e-05
-2.54158e-07
7.46883e-05
-2.99836e-07
7.47651e-05
-3.51373e-07
7.48544e-05
-4.08209e-07
7.49578e-05
-4.72628e-07
7.50767e-05
-5.43796e-07
7.52131e-05
-6.24082e-07
7.53689e-05
-7.13962e-07
7.54838e-05
-5.27785e-07
7.56061e-05
-5.61823e-07
7.57354e-05
-5.94377e-07
7.58717e-05
-6.28288e-07
7.60153e-05
-6.62882e-07
7.61661e-05
-6.9735e-07
7.63243e-05
-7.33349e-07
7.64897e-05
-7.68855e-07
7.66629e-05
-8.07418e-07
7.68435e-05
-8.43876e-07
7.70326e-05
-8.87298e-07
7.72292e-05
-9.24498e-07
7.74356e-05
-9.76936e-07
7.76496e-05
-1.01351e-06
7.78758e-05
-1.0833e-06
7.81097e-05
-1.11595e-06
7.836e-05
-1.21901e-06
7.86181e-05
-1.2428e-06
7.88999e-05
-1.40594e-06
7.91912e-05
-1.42532e-06
7.9519e-05
-1.68168e-06
7.98584e-05
-1.7721e-06
8.02653e-05
-2.15367e-06
8.06566e-05
-2.62577e-06
-3.43202e-06
8.10958e-05
0.000105116
2.05236e-05
0.000104103
1.96392e-05
0.000103259
1.02736e-05
0.000102262
8.12481e-06
0.000101198
6.85702e-06
0.000100226
5.53776e-06
9.93819e-05
4.46317e-06
9.86576e-05
3.64967e-06
9.804e-05
3.0085e-06
9.75145e-05
2.49946e-06
9.70657e-05
2.09739e-06
9.66806e-05
1.77498e-06
9.63488e-05
1.51358e-06
9.60613e-05