/*--------------------------------*- C++ -*----------------------------------*\
| =========                 |                                                 |
| \\      /  F ield         | OpenFOAM: The Open Source CFD Toolbox           |
|  \\    /   O peration     | Version:  2306                                  |
|   \\  /    A nd           | Website:  www.openfoam.com                      |
|    \\/     M anipulation  |                                                 |
\*---------------------------------------------------------------------------*/
FoamFile
{
    version     2.0;
    format      ascii;
    arch        "LSB;label=32;scalar=64";
    class       volSymmTensorField;
    location    "1900";
    object      turbulenceProperties:devReff;
}
// * * * * * * * * * * * * * * * * * * * * * * * * * * * * * * * * * * * * * //

dimensions      [0 2 -2 0 0 0 0];

internalField   nonuniform List<symmTensor> 
20540
(
(1.55955 -5.45377 -0 -1.55955 -0 -5.41682e-06)
(15.9161 -15.1811 -0 -15.5817 -0 -0.334385)
(1.55633 -11.3452 -0 -1.55633 -0 -3.18838e-06)
(11.7887 -31.6227 -0 -12.054 -0 0.265318)
(1.55137 -12.1555 -0 -1.55139 -0 1.94797e-05)
(8.74926 -33.9906 -0 -8.83387 -0 0.0846078)
(1.54435 -12.8431 -0 -1.54435 -0 -1.54188e-07)
(6.87922 -36.0665 -0 -6.85542 -0 -0.0238055)
(1.5349 -13.4003 -0 -1.5349 -0 -2.8104e-06)
(5.67111 -37.8359 -0 -5.65003 -0 -0.0210749)
(1.52256 -13.8166 -0 -1.52256 -0 -2.98003e-06)
(4.79114 -39.2779 -0 -4.78547 -0 -0.00566873)
(1.50678 -14.0983 -0 -1.50678 -0 -3.70211e-06)
(4.10107 -40.4189 -0 -4.10017 -0 -0.00089735)
(1.48695 -14.2526 -0 -1.48695 -0 -5.19385e-06)
(3.54459 -41.2915 -0 -3.54393 -0 -0.000652766)
(1.46238 -14.2859 -0 -1.46237 -0 -7.38133e-06)
(3.08943 -41.9258 -0 -3.08867 -0 -0.000758117)
(1.43227 -14.2018 -0 -1.43226 -0 -9.99382e-06)
(2.71377 -42.3464 -0 -2.7131 -0 -0.000662362)
(1.39575 -14.0012 -0 -1.39574 -0 -1.29146e-05)
(2.40325 -42.5711 -0 -2.40268 -0 -0.000566801)
(1.35189 -13.6825 -0 -1.35187 -0 -1.81562e-05)
(2.14867 -42.6101 -0 -2.14813 -0 -0.000534986)
(1.29967 -13.2422 -0 -1.29964 -0 -3.10105e-05)
(1.94407 -42.4662 -0 -1.94353 -0 -0.000534227)
(1.23802 -12.6751 -0 -1.23797 -0 -5.08394e-05)
(1.78538 -42.1324 -0 -1.78484 -0 -0.000533111)
(1.16594 -11.9749 -0 -1.16587 -0 -7.27828e-05)
(1.66956 -41.5934 -0 -1.66904 -0 -0.000526268)
(1.08274 -11.1369 -0 -1.08264 -0 -0.000102428)
(1.5935 -40.8226 -0 -1.593 -0 -0.000504703)
(0.988213 -10.1579 -0 -0.988065 -0 -0.000147491)
(1.55281 -39.7794 -0 -1.55235 -0 -0.000453933)
(0.882956 -9.03908 -0 -0.882752 -0 -0.000203795)
(1.54048 -38.4073 -0 -1.54009 -0 -0.000388171)
(0.768767 -7.78803 -0 -0.768537 -0 -0.000230077)
(1.54524 -36.6339 -0 -1.54493 -0 -0.000308342)
(0.64909 -6.42157 -0 -0.649 -0 -8.96409e-05)
(1.5496 -34.363 -0 -1.54932 -0 -0.000273717)
(0.529022 -4.96918 -0 -0.529402 -0 0.000380402)
(1.52897 -31.4865 -0 -1.52839 -0 -0.000575076)
(0.41378 -3.47743 -0 -0.414671 -0 0.000890673)
(1.45243 -27.9008 -0 -1.45088 -0 -0.00154206)
(0.304123 -2.00776 -0 -0.304437 -0 0.000313842)
(1.28923 -23.5494 -0 -1.28639 -0 -0.00284877)
(0.188724 -0.613352 -0 -0.186456 -0 -0.00226748)
(1.02684 -18.5237 -0 -1.02577 -0 -0.00106516)
(0.0436156 0.635423 -0 -0.0383088 -0 -0.00530679)
(0.688001 -13.0559 -0 -0.692916 -0 0.00491473)
(-0.13849 1.53021 -0 0.142856 -0 -0.00436666)
(0.338252 -7.7477 -0 -0.342534 -0 0.00428209)
(-0.30953 1.81132 -0 0.309018 -0 0.000512154)
(0.0439985 -3.58811 -0 -0.0387151 -0 -0.00528336)
(-0.39538 1.49693 -0 0.396729 -0 -0.00134935)
(-0.206329 -1.14127 -0 0.212888 -0 -0.00655896)
(-0.401726 0.94339 -0 0.407345 -0 -0.00561902)
(-0.407009 0.161471 -0 0.409007 -0 -0.00199818)
(-0.374555 0.455046 -0 0.380508 -0 -0.00595274)
(-0.485447 0.433192 -0 0.485827 -0 -0.00038046)
(-0.349429 0.166955 -0 0.355102 -0 -0.00567321)
(-0.499514 0.282893 -0 0.499864 -0 -0.000349901)
(-0.33893 0.0376395 -0 0.344991 -0 -0.00606095)
(-0.496464 0.0802206 -0 0.495961 -0 0.000503168)
(-0.339845 -0.0488372 -0 0.345868 -0 -0.00602335)
(-0.496242 -0.113878 -0 0.495715 -0 0.000527645)
(-0.352317 -0.186195 -0 0.357996 -0 -0.00567835)
(-0.498029 -0.315232 -0 0.498306 -0 -0.00027696)
(-0.378611 -0.48224 -0 0.3846 -0 -0.00598964)
(-0.479982 -0.44728 -0 0.480187 -0 -0.000204843)
(-0.403449 -0.962816 -0 0.409061 -0 -0.00561211)
(-0.397243 -0.138188 -0 0.398912 -0 -0.00166934)
(-0.393273 -1.48923 -0 0.394443 -0 -0.00116983)
(-0.194353 1.19558 -0 0.200529 -0 -0.00617568)
(-0.303635 -1.76272 -0 0.303111 -0 0.00052462)
(0.0549963 3.65981 -0 -0.0502287 -0 -0.00476754)
(-0.130135 -1.42888 -0 0.134724 -0 -0.00458931)
(0.350653 7.84495 -0 -0.355663 -0 0.00500978)
(0.0512213 -0.484558 -0 -0.0458327 -0 -0.00538862)
(0.705054 13.1981 -0 -0.71057 -0 0.00551648)
(0.195393 0.803284 -0 -0.193272 -0 -0.00212099)
(1.04957 18.7278 -0 -1.0488 -0 -0.000772418)
(0.313643 2.24052 -0 -0.314099 -0 0.000455328)
(1.31372 23.8203 -0 -1.31108 -0 -0.0026441)
(0.43069 3.76918 -0 -0.431586 -0 0.000896617)
(1.47222 28.238 -0 -1.47096 -0 -0.00126241)
(0.556635 5.33455 -0 -0.556947 -0 0.000311297)
(1.53754 31.8842 -0 -1.53723 -0 -0.000316502)
(0.689443 6.87258 -0 -0.689292 -0 -0.000150931)
(1.5411 34.8131 -0 -1.541 -0 -0.00010117)
(0.822943 8.33454 -0 -0.822676 -0 -0.000266381)
(1.51442 37.1287 -0 -1.51421 -0 -0.000208739)
(0.951343 9.68781 -0 -0.951116 -0 -0.000226901)
(1.4826 38.94 -0 -1.48227 -0 -0.000335582)
(1.07068 10.9121 -0 -1.0705 -0 -0.00017301)
(1.46359 40.3434 -0 -1.4632 -0 -0.000397065)
(1.17876 11.9968 -0 -1.17863 -0 -0.000126608)
(1.46955 41.4185 -0 -1.46911 -0 -0.000436179)
(1.27474 12.9373 -0 -1.27467 -0 -7.54838e-05)
(1.50795 42.2229 -0 -1.50747 -0 -0.000473059)
(1.35897 13.7363 -0 -1.35893 -0 -3.84529e-05)
(1.5832 42.7987 -0 -1.58271 -0 -0.000489147)
(1.43221 14.3982 -0 -1.43218 -0 -2.7937e-05)
(1.69806 43.1756 -0 -1.69757 -0 -0.000490772)
(1.49526 14.9285 -0 -1.49523 -0 -2.88356e-05)
(1.8547 43.3714 -0 -1.85422 -0 -0.000483909)
(1.5489 15.3317 -0 -1.54888 -0 -2.51286e-05)
(2.05575 43.3972 -0 -2.05527 -0 -0.000484468)
(1.59406 15.6124 -0 -1.59404 -0 -1.73174e-05)
(2.30495 43.2547 -0 -2.30443 -0 -0.000523076)
(1.63169 15.7733 -0 -1.63168 -0 -1.11385e-05)
(2.608 42.9378 -0 -2.60737 -0 -0.000623504)
(1.66274 15.8151 -0 -1.66274 -0 -7.15931e-06)
(2.9738 42.4336 -0 -2.97308 -0 -0.000722253)
(1.68811 15.7354 -0 -1.6881 -0 -4.61827e-06)
(3.41635 41.7229 -0 -3.41573 -0 -0.000624013)
(1.7086 15.5293 -0 -1.70859 -0 -2.95993e-06)
(3.95692 40.7798 -0 -3.95603 -0 -0.000890469)
(1.72492 15.189 -0 -1.72492 -0 -2.00629e-06)
(4.62706 39.5727 -0 -4.62139 -0 -0.00567281)
(1.73771 14.7045 -0 -1.73771 -0 -2.04815e-06)
(5.48213 38.066 -0 -5.46117 -0 -0.0209577)
(1.74752 14.0662 -0 -1.74751 -0 -3.88686e-06)
(6.65894 36.2261 -0 -6.63539 -0 -0.023548)
(1.75483 13.2697 -0 -1.75486 -0 2.43408e-05)
(8.48808 34.0348 -0 -8.57138 -0 0.0833016)
(1.75998 12.3343 -0 -1.75998 -0 -1.1903e-07)
(11.4742 31.5358 -0 -11.7351 -0 0.260896)
(1.76339 5.9184 -0 -1.76338 -0 -1.12851e-05)
(15.5348 15.1111 -0 -15.2076 -0 -0.327195)
(0.0139593 -15.717 -0 -0.0144701 -0 0.000510813)
(0.0020988 -10.1438 -0 -0.00214432 -0 4.55256e-05)
(0.000549826 -9.02087 -0 -0.000560945 -0 1.11187e-05)
(0.000312934 -8.45677 -0 -0.000318522 -0 5.58804e-06)
(0.000213721 -8.09323 -0 -0.000217061 -0 3.34062e-06)
(0.000155232 -7.84316 -0 -0.000157498 -0 2.26599e-06)
(0.000118677 -7.66267 -0 -0.000120345 -0 1.66778e-06)
(9.4598e-05 -7.52555 -0 -9.58783e-05 -0 1.28027e-06)
(7.74165e-05 -7.4184 -0 -7.84348e-05 -0 1.01826e-06)
(6.46337e-05 -7.33274 -0 -6.54676e-05 -0 8.33851e-07)
(5.49323e-05 -7.26318 -0 -5.56295e-05 -0 6.97172e-07)
(4.73235e-05 -7.20556 -0 -4.7916e-05 -0 5.9246e-07)
(4.12365e-05 -7.15755 -0 -4.17468e-05 -0 5.10237e-07)
(3.63018e-05 -7.11684 -0 -3.67469e-05 -0 4.45068e-07)
(3.21771e-05 -7.08226 -0 -3.25683e-05 -0 3.91194e-07)
(2.87181e-05 -7.05252 -0 -2.90645e-05 -0 3.46365e-07)
(2.58064e-05 -7.02693 -0 -2.61159e-05 -0 3.09451e-07)
(2.32989e-05 -7.0046 -0 -2.35767e-05 -0 2.77801e-07)
(2.11502e-05 -6.98524 -0 -2.14012e-05 -0 2.50973e-07)
(1.92721e-05 -6.96813 -0 -1.94998e-05 -0 2.2775e-07)
(1.76466e-05 -6.95321 -0 -1.78543e-05 -0 2.07693e-07)
(1.61991e-05 -6.93987 -0 -1.63892e-05 -0 1.90058e-07)
(1.48836e-05 -6.9282 -0 -1.50575e-05 -0 1.73884e-07)
(1.38405e-05 -6.91774 -0 -1.40022e-05 -0 1.61621e-07)
(1.28552e-05 -6.90836 -0 -1.30055e-05 -0 1.50281e-07)
(1.19093e-05 -6.89998 -0 -1.20478e-05 -0 1.3848e-07)
(1.10874e-05 -6.89251 -0 -1.12157e-05 -0 1.28277e-07)
(1.03625e-05 -6.88576 -0 -1.04822e-05 -0 1.19683e-07)
(9.67901e-06 -6.8797 -0 -9.79039e-06 -0 1.11373e-07)
(9.08984e-06 -6.87423 -0 -9.19409e-06 -0 1.04251e-07)
(8.50588e-06 -6.86927 -0 -8.60366e-06 -0 9.7782e-08)
(7.995e-06 -6.86482 -0 -8.08684e-06 -0 9.18429e-08)
(7.52911e-06 -6.86075 -0 -7.61559e-06 -0 8.64845e-08)
(7.09169e-06 -6.85709 -0 -7.17361e-06 -0 8.19183e-08)
(6.66192e-06 -6.85374 -0 -6.73851e-06 -0 7.65904e-08)
(6.25466e-06 -6.85074 -0 -6.32725e-06 -0 7.25901e-08)
(5.8655e-06 -6.84799 -0 -5.93397e-06 -0 6.84717e-08)
(5.43244e-06 -6.84555 -0 -5.49601e-06 -0 6.35676e-08)
(4.98921e-06 -6.84336 -0 -5.04798e-06 -0 5.87707e-08)
(4.5015e-06 -6.84145 -0 -4.5557e-06 -0 5.42017e-08)
(3.98056e-06 -6.8398 -0 -4.0302e-06 -0 4.96371e-08)
(3.36019e-06 -6.83841 -0 -3.40502e-06 -0 4.48338e-08)
(2.6521e-06 -6.83733 -0 -2.69104e-06 -0 3.89374e-08)
(1.82174e-06 -6.83654 -0 -1.85431e-06 -0 3.2576e-08)
(8.19945e-07 -6.83609 -0 -8.44669e-07 -0 2.47238e-08)
(-3.86792e-07 -6.83601 -0 3.71123e-07 -0 1.56694e-08)
(-1.86376e-06 -6.83635 -0 1.86029e-06 -0 3.47511e-09)
(-3.63278e-06 -6.83717 -0 3.64203e-06 -0 -9.24753e-09)
(-5.78621e-06 -6.83851 -0 5.80806e-06 -0 -2.18496e-08)
(-8.43831e-06 -6.84048 -0 8.48092e-06 -0 -4.26109e-08)
(-1.15777e-05 -6.84316 -0 1.16418e-05 -0 -6.41129e-08)
(-1.54037e-05 -6.84661 -0 1.5495e-05 -0 -9.12576e-08)
(-1.98981e-05 -6.85102 -0 2.00234e-05 -0 -1.25358e-07)
(-2.53157e-05 -6.8564 -0 2.5478e-05 -0 -1.62294e-07)
(-3.17063e-05 -6.86301 -0 3.19158e-05 -0 -2.09475e-07)
(-3.92875e-05 -6.87087 -0 3.95518e-05 -0 -2.64339e-07)
(-4.8154e-05 -6.88028 -0 4.84898e-05 -0 -3.35731e-07)
(-5.86918e-05 -6.89126 -0 5.9093e-05 -0 -4.01213e-07)
(-7.08637e-05 -6.90423 -0 7.13681e-05 -0 -5.04382e-07)
(-8.53366e-05 -6.91912 -0 8.5918e-05 -0 -5.81402e-07)
(-0.000102182 -6.93655 -0 0.000102933 -0 -7.51399e-07)
(-0.000122062 -6.95639 -0 0.000122898 -0 -8.36513e-07)
(-0.0001458 -6.97945 -0 0.000146915 -0 -1.11541e-06)
(-0.000169016 -7.0014 -0 0.00017045 -0 -1.43369e-06)
(-0.000189369 -7.02042 -0 0.000190708 -0 -1.33959e-06)
(-0.000211622 -7.04046 -0 0.000213347 -0 -1.72535e-06)
(-0.000236665 -7.06187 -0 0.000238576 -0 -1.91144e-06)
(-0.000263498 -7.08454 -0 0.000265632 -0 -2.1334e-06)
(-0.00029301 -7.10854 -0 0.000295445 -0 -2.43539e-06)
(-0.000325389 -7.13388 -0 0.000328086 -0 -2.69614e-06)
(-0.000361616 -7.16064 -0 0.000364749 -0 -3.13275e-06)
(-0.000401186 -7.1889 -0 0.000404576 -0 -3.38973e-06)
(-0.00044507 -7.21869 -0 0.000449151 -0 -4.08071e-06)
(-0.000494783 -7.25008 -0 0.000498944 -0 -4.16061e-06)
(-0.000548897 -7.2834 -0 0.00055444 -0 -5.54347e-06)
(-0.000613244 -7.3182 -0 0.000618051 -0 -4.80775e-06)
(-0.000680215 -7.35591 -0 0.000688383 -0 -8.16778e-06)
(-0.000769983 -7.39434 -0 0.000774531 -0 -4.5476e-06)
(-0.000851491 -7.43827 -0 0.00086545 -0 -1.39594e-05)
(-0.000992315 -7.48009 -0 0.00099287 -0 -5.54774e-07)
(-0.00108039 -7.53448 -0 0.00110949 -0 -2.90944e-05)
(-0.00135328 -7.57743 -0 0.00133683 -0 1.64483e-05)
(-0.00142613 -7.65378 -0 0.00149838 -0 -7.22473e-05)
(-0.00191351 -7.69127 -0 0.00183841 -0 7.51021e-05)
(-0.00247093 -7.80798 -0 0.00266393 -0 -0.000193004)
(-0.00269474 -7.86371 -0 0.00248217 -0 0.000212563)
(-0.00570088 -8.00125 -0 0.00636639 -0 -0.00066551)
(-0.112572 -8.28081 1.84665e-21 0.103137 -0 0.00943488)
(0.0167389 -10.7331 -0 -0.0157663 -0 -0.000972598)
(0.00427371 -7.16119 -0 -0.00426149 -0 -1.2221e-05)
(0.00123688 -6.41787 -0 -0.00123929 -0 2.40672e-06)
(0.000711041 -6.04083 -0 -0.000712957 -0 1.91588e-06)
(0.000489395 -5.79768 -0 -0.000490944 -0 1.54908e-06)
(0.000356415 -5.62942 -0 -0.000357615 -0 1.19945e-06)
(0.000272886 -5.50758 -0 -0.00027386 -0 9.73836e-07)
(0.000217773 -5.41491 -0 -0.000218575 -0 8.02143e-07)
(0.000178338 -5.34239 -0 -0.000179006 -0 6.67249e-07)
(0.000148952 -5.28433 -0 -0.000149518 -0 5.66049e-07)
(0.000126637 -5.23715 -0 -0.000127124 -0 4.86984e-07)
(0.000109125 -5.19804 -0 -0.000109549 -0 4.23953e-07)
(9.51094e-05 -5.16543 -0 -9.54813e-05 -0 3.71927e-07)
(8.37413e-05 -5.13776 -0 -8.40714e-05 -0 3.30173e-07)
(7.42397e-05 -5.11426 -0 -7.4534e-05 -0 2.94334e-07)
(6.62706e-05 -5.09403 -0 -6.6535e-05 -0 2.64379e-07)
(5.95586e-05 -5.07663 -0 -5.97973e-05 -0 2.38768e-07)
(5.37792e-05 -5.06144 -0 -5.3996e-05 -0 2.16776e-07)
(4.88247e-05 -5.04826 -0 -4.90224e-05 -0 1.97681e-07)
(4.44948e-05 -5.03662 -0 -4.46757e-05 -0 1.8085e-07)
(4.07457e-05 -5.02646 -0 -4.09123e-05 -0 1.66661e-07)
(3.74088e-05 -5.01738 -0 -3.75621e-05 -0 1.53224e-07)
(3.43768e-05 -5.00943 -0 -3.45184e-05 -0 1.41596e-07)
(3.19626e-05 -5.00231 -0 -3.20946e-05 -0 1.32075e-07)
(2.96912e-05 -4.99593 -0 -2.98141e-05 -0 1.22913e-07)
(2.75142e-05 -4.99022 -0 -2.76286e-05 -0 1.14317e-07)
(2.56179e-05 -4.98513 -0 -2.57247e-05 -0 1.0677e-07)
(2.39458e-05 -4.98053 -0 -2.40459e-05 -0 1.00134e-07)
(2.237e-05 -4.97641 -0 -2.24647e-05 -0 9.47246e-08)
(2.10076e-05 -4.97269 -0 -2.10963e-05 -0 8.87244e-08)
(1.96614e-05 -4.96931 -0 -1.97453e-05 -0 8.38614e-08)
(1.84799e-05 -4.96628 -0 -1.85583e-05 -0 7.83957e-08)
(1.74016e-05 -4.9635 -0 -1.74747e-05 -0 7.30806e-08)
(1.63882e-05 -4.96101 -0 -1.64578e-05 -0 6.96046e-08)
(1.5394e-05 -4.95872 -0 -1.54587e-05 -0 6.47006e-08)
(1.44505e-05 -4.95668 -0 -1.45112e-05 -0 6.07272e-08)
(1.35449e-05 -4.9548 -0 -1.36e-05 -0 5.5116e-08)
(1.25368e-05 -4.95312 -0 -1.25872e-05 -0 5.0406e-08)
(1.15006e-05 -4.95162 -0 -1.15452e-05 -0 4.46494e-08)
(1.03588e-05 -4.9503 -0 -1.03966e-05 -0 3.78412e-08)
(9.13419e-06 -4.94915 -0 -9.16378e-06 -0 2.95892e-08)
(7.67363e-06 -4.94818 -0 -7.693e-06 -0 1.93726e-08)
(5.99814e-06 -4.9474 -0 -6.00444e-06 -0 6.29653e-09)
(4.02856e-06 -4.9468 -0 -4.02081e-06 -0 -7.7499e-09)
(1.6448e-06 -4.94643 -0 -1.61755e-06 -0 -2.72525e-08)
(-1.22162e-06 -4.94628 -0 1.27271e-06 -0 -5.10864e-08)
(-4.73173e-06 -4.9464 -0 4.80923e-06 -0 -7.75028e-08)
(-8.96362e-06 -4.94681 -0 9.07987e-06 -0 -1.16249e-07)
(-1.4099e-05 -4.94755 -0 1.42578e-05 -0 -1.58847e-07)
(-2.04086e-05 -4.94867 -0 2.06208e-05 -0 -2.12263e-07)
(-2.79032e-05 -4.95023 -0 2.81822e-05 -0 -2.78986e-07)
(-3.70202e-05 -4.95226 -0 3.73735e-05 -0 -3.53333e-07)
(-4.77453e-05 -4.95488 -0 4.81913e-05 -0 -4.46061e-07)
(-6.0672e-05 -4.95808 -0 6.12348e-05 -0 -5.62779e-07)
(-7.59058e-05 -4.96204 -0 7.65963e-05 -0 -6.90551e-07)
(-9.3989e-05 -4.96674 -0 9.48323e-05 -0 -8.43323e-07)
(-0.000115133 -4.97239 -0 0.000116173 -0 -1.03926e-06)
(-0.000140248 -4.97898 -0 0.00014149 -0 -1.24223e-06)
(-0.000169238 -4.98676 -0 0.000170758 -0 -1.52056e-06)
(-0.000203723 -4.99568 -0 0.000205516 -0 -1.79287e-06)
(-0.000243753 -5.00613 -0 0.000245948 -0 -2.19419e-06)
(-0.000291111 -5.01799 -0 0.00029364 -0 -2.52944e-06)
(-0.000347349 -5.03176 -0 0.000350462 -0 -3.11237e-06)
(-0.000402335 -5.0448 -0 0.000406028 -0 -3.69363e-06)
(-0.000450881 -5.05611 -0 0.000454658 -0 -3.77636e-06)
(-0.000503157 -5.06803 -0 0.000507589 -0 -4.43111e-06)
(-0.000562456 -5.08069 -0 0.00056737 -0 -4.91441e-06)
(-0.000626099 -5.09405 -0 0.000631575 -0 -5.47534e-06)
(-0.000695764 -5.10814 -0 0.000701885 -0 -6.12149e-06)
(-0.000772357 -5.12296 -0 0.000779127 -0 -6.77034e-06)
(-0.000857374 -5.13855 -0 0.000864952 -0 -7.57816e-06)
(-0.000951065 -5.15496 -0 0.000959397 -0 -8.33232e-06)
(-0.00105348 -5.17213 -0 0.00106294 -0 -9.45537e-06)
(-0.0011714 -5.19017 -0 0.00118155 -0 -1.01511e-05)
(-0.00129613 -5.20913 -0 0.00130814 -0 -1.20072e-05)
(-0.00145022 -5.22889 -0 0.00146234 -0 -1.21187e-05)
(-0.00160053 -5.24998 -0 0.00161649 -0 -1.59535e-05)
(-0.00181955 -5.27149 -0 0.00183307 -0 -1.3516e-05)
(-0.00199173 -5.29546 -0 0.00201516 -0 -2.34318e-05)
(-0.00234523 -5.31849 -0 0.00235666 -0 -1.14294e-05)
(-0.00250304 -5.34709 -0 0.00254458 -0 -4.154e-05)
(-0.00319316 -5.37037 -0 0.00318709 -0 6.07228e-06)
(-0.00325821 -5.40857 -0 0.00335409 -0 -9.58754e-05)
(-0.00447932 -5.42781 -0 0.00439928 -0 8.00332e-05)
(-0.00555034 -5.48323 -0 0.0057955 -0 -0.00024516)
(-0.00561059 -5.50498 -0 0.00531012 -0 0.000300475)
(-0.018787 -5.56163 -0 0.0193697 -0 -0.000582697)
(-0.045145 -5.74384 -3.87036e-21 0.0474445 -0 -0.00229946)
(0.0285581 -11.4764 -0 -0.0289799 -0 0.000421834)
(0.00834114 -7.82785 -0 -0.00831529 -0 -2.5853e-05)
(0.00268272 -7.05575 -0 -0.00268164 -0 -1.0802e-06)
(0.00156985 -6.6581 -0 -0.00157021 -0 3.63268e-07)
(0.00109309 -6.40153 -0 -0.00109359 -0 4.98523e-07)
(0.000799978 -6.22322 -0 -0.000800485 -0 5.07973e-07)
(0.000614256 -6.09376 -0 -0.000614742 -0 4.85817e-07)
(0.00049124 -5.99516 -0 -0.000491666 -0 4.25615e-07)
(0.000402823 -5.91791 -0 -0.000403192 -0 3.68793e-07)
(0.00033675 -5.85598 -0 -0.000337075 -0 3.25642e-07)
(0.000286505 -5.80561 -0 -0.000286793 -0 2.87759e-07)
(0.000247029 -5.76382 -0 -0.000247285 -0 2.55949e-07)
(0.000215401 -5.72897 -0 -0.00021563 -0 2.28515e-07)
(0.000189723 -5.69938 -0 -0.000189928 -0 2.05519e-07)
(0.000168259 -5.67424 -0 -0.000168445 -0 1.85671e-07)
(0.000150247 -5.65259 -0 -0.000150416 -0 1.69052e-07)
(0.000135064 -5.63396 -0 -0.000135218 -0 1.53447e-07)
(0.000121992 -5.61769 -0 -0.000122133 -0 1.4096e-07)
(0.000110776 -5.60358 -0 -0.000110905 -0 1.29121e-07)
(0.000100978 -5.5911 -0 -0.000101097 -0 1.19221e-07)
(9.24827e-05 -5.58022 -0 -9.25929e-05 -0 1.10207e-07)
(8.49345e-05 -5.5705 -0 -8.50369e-05 -0 1.02336e-07)
(7.80706e-05 -5.56198 -0 -7.81664e-05 -0 9.57909e-08)
(7.25717e-05 -5.55435 -0 -7.26596e-05 -0 8.7927e-08)
(6.74388e-05 -5.5475 -0 -6.75218e-05 -0 8.2986e-08)
(6.252e-05 -5.54138 -0 -6.25986e-05 -0 7.86729e-08)
(5.82175e-05 -5.53593 -0 -5.82912e-05 -0 7.37528e-08)
(5.4428e-05 -5.531 -0 -5.44974e-05 -0 6.94037e-08)
(5.08536e-05 -5.52658 -0 -5.09193e-05 -0 6.57162e-08)
(4.77563e-05 -5.52259 -0 -4.78169e-05 -0 6.06097e-08)
(4.47121e-05 -5.51897 -0 -4.47704e-05 -0 5.83099e-08)
(4.20265e-05 -5.51572 -0 -4.20813e-05 -0 5.47966e-08)
(3.95743e-05 -5.51274 -0 -3.96255e-05 -0 5.12101e-08)
(3.72649e-05 -5.51006 -0 -3.73152e-05 -0 5.0334e-08)
(3.49994e-05 -5.50761 -0 -3.50445e-05 -0 4.50748e-08)
(3.28454e-05 -5.50541 -0 -3.28905e-05 -0 4.50609e-08)
(3.07781e-05 -5.5034 -0 -3.08199e-05 -0 4.17927e-08)
(2.84735e-05 -5.5016 -0 -2.85117e-05 -0 3.81603e-08)
(2.60872e-05 -5.49998 -0 -2.61225e-05 -0 3.52199e-08)
(2.3455e-05 -5.49855 -0 -2.34868e-05 -0 3.1797e-08)
(2.06156e-05 -5.4973 -0 -2.06435e-05 -0 2.79066e-08)
(1.72262e-05 -5.49624 -0 -1.72515e-05 -0 2.52431e-08)
(1.33149e-05 -5.49537 -0 -1.33345e-05 -0 1.95849e-08)
(8.70625e-06 -5.4947 -0 -8.71953e-06 -0 1.32797e-08)
(3.11674e-06 -5.49425 -0 -3.12148e-06 -0 4.74037e-09)
(-3.60178e-06 -5.49404 -0 3.60912e-06 -0 -7.33994e-09)
(-1.18196e-05 -5.49409 -0 1.18335e-05 -0 -1.3842e-08)
(-2.18106e-05 -5.49444 -0 2.18445e-05 -0 -3.39039e-08)
(-3.39098e-05 -5.49511 -0 3.3958e-05 -0 -4.81793e-08)
(-4.87213e-05 -5.49618 -0 4.8791e-05 -0 -6.9709e-08)
(-6.63695e-05 -5.49768 -0 6.64623e-05 -0 -9.28897e-08)
(-8.78208e-05 -5.49965 -0 8.79406e-05 -0 -1.1978e-07)
(-0.000113098 -5.50221 -0 0.000113261 -0 -1.63576e-07)
(-0.000143506 -5.50535 -0 0.000143705 -0 -1.98924e-07)
(-0.000179393 -5.50923 -0 0.000179643 -0 -2.50226e-07)
(-0.000221964 -5.51386 -0 0.000222277 -0 -3.12729e-07)
(-0.000271703 -5.51942 -0 0.000272091 -0 -3.87705e-07)
(-0.00033078 -5.52591 -0 0.000331215 -0 -4.34744e-07)
(-0.000399004 -5.53359 -0 0.000399559 -0 -5.54799e-07)
(-0.000480119 -5.54237 -0 0.000480705 -0 -5.86573e-07)
(-0.000574189 -5.55266 -0 0.000574983 -0 -7.93288e-07)
(-0.000685444 -5.56432 -0 0.000686227 -0 -7.82806e-07)
(-0.000817214 -5.57786 -0 0.000818281 -0 -1.06653e-06)
(-0.00094637 -5.59062 -0 0.00094774 -0 -1.3705e-06)
(-0.00106042 -5.60171 -0 0.00106134 -0 -9.14412e-07)
(-0.00118229 -5.61339 -0 0.00118366 -0 -1.36865e-06)
(-0.00132098 -5.62574 -0 0.00132235 -0 -1.36209e-06)
(-0.00147029 -5.63875 -0 0.00147174 -0 -1.44892e-06)
(-0.00163305 -5.65244 -0 0.00163465 -0 -1.5988e-06)
(-0.00181237 -5.66682 -0 0.00181399 -0 -1.61835e-06)
(-0.0020099 -5.68188 -0 0.00201172 -0 -1.81264e-06)
(-0.00222942 -5.69771 -0 0.0022311 -0 -1.68333e-06)
(-0.00246639 -5.71418 -0 0.00246851 -0 -2.12114e-06)
(-0.0027429 -5.73148 -0 0.00274431 -0 -1.41182e-06)
(-0.00302872 -5.7495 -0 0.00303147 -0 -2.75195e-06)
(-0.00339214 -5.76831 -0 0.00339232 -0 -1.8315e-07)
(-0.00373022 -5.78809 -0 0.00373483 -0 -4.60573e-06)
(-0.0042511 -5.80842 -0 0.00424703 -0 4.06297e-06)
(-0.00462387 -5.83045 -0 0.00463478 -0 -1.09122e-05)
(-0.00546905 -5.85213 -0 0.00545086 -0 1.81943e-05)
(-0.00578618 -5.87753 -0 0.00581937 -0 -3.31954e-05)
(-0.00739045 -5.89963 -0 0.00732378 -0 6.66685e-05)
(-0.00752405 -5.93202 -0 0.00763469 -0 -0.000110642)
(-0.0101947 -5.9495 -0 0.00997453 -0 0.00022012)
(-0.0126575 -5.99735 -0 0.012967 -0 -0.000309477)
(-0.0117429 -6.00579 -0 0.0111677 -0 0.000575171)
(-0.0462014 -6.08347 -0 0.0468182 -0 -0.000616754)
(0.00300589 -5.9987 -0 0.00699631 -0 -0.0100022)
(0.0395388 -11.213 -0 -0.0395193 -0 -1.95347e-05)
(0.0130836 -7.67461 -0 -0.0130214 -0 -6.2219e-05)
(0.00462442 -6.93655 -0 -0.0046078 -0 -1.66208e-05)
(0.00276863 -6.55167 -0 -0.00275989 -0 -8.74426e-06)
(0.00195493 -6.30443 -0 -0.00194883 -0 -6.09567e-06)
(0.0014403 -6.13231 -0 -0.0014359 -0 -4.39496e-06)
(0.00111027 -6.00722 -0 -0.00110696 -0 -3.309e-06)
(0.000890452 -5.91197 -0 -0.000887813 -0 -2.63884e-06)
(0.000731592 -5.83731 -0 -0.00072943 -0 -2.1625e-06)
(0.000612425 -5.77745 -0 -0.000610625 -0 -1.79978e-06)
(0.000521603 -5.72874 -0 -0.000520075 -0 -1.52764e-06)
(0.000450124 -5.68834 -0 -0.00044881 -0 -1.31417e-06)
(0.000392769 -5.65463 -0 -0.000391625 -0 -1.14449e-06)
(0.000346143 -5.62603 -0 -0.000345137 -0 -1.00571e-06)
(0.000307149 -5.6017 -0 -0.000306258 -0 -8.90878e-07)
(0.000274403 -5.58077 -0 -0.000273609 -0 -7.93537e-07)
(0.000246769 -5.56276 -0 -0.000246056 -0 -7.12803e-07)
(0.000222972 -5.54701 -0 -0.000222329 -0 -6.42215e-07)
(0.000202535 -5.53338 -0 -0.000201953 -0 -5.82475e-07)
(0.000184685 -5.5213 -0 -0.000184155 -0 -5.30059e-07)
(0.000169188 -5.51078 -0 -0.000168704 -0 -4.84249e-07)
(0.000155435 -5.50137 -0 -0.00015499 -0 -4.44554e-07)
(0.000142923 -5.49313 -0 -0.000142516 -0 -4.06803e-07)
(0.000132839 -5.48576 -0 -0.00013246 -0 -3.78359e-07)
(0.000123487 -5.47914 -0 -0.000123135 -0 -3.51205e-07)
(0.000114533 -5.47321 -0 -0.000114208 -0 -3.24336e-07)
(0.000106671 -5.46794 -0 -0.00010637 -0 -3.01371e-07)
(9.97515e-05 -5.46317 -0 -9.94702e-05 -0 -2.81316e-07)
(9.32239e-05 -5.4589 -0 -9.29629e-05 -0 -2.60996e-07)
(8.75505e-05 -5.45505 -0 -8.73041e-05 -0 -2.4644e-07)
(8.20023e-05 -5.45154 -0 -8.17733e-05 -0 -2.28967e-07)
(7.70842e-05 -5.4484 -0 -7.68689e-05 -0 -2.15239e-07)
(7.25908e-05 -5.44552 -0 -7.23873e-05 -0 -2.03508e-07)
(6.83505e-05 -5.44293 -0 -6.81619e-05 -0 -1.88638e-07)
(6.41978e-05 -5.44056 -0 -6.40182e-05 -0 -1.79583e-07)
(6.02404e-05 -5.43843 -0 -6.00761e-05 -0 -1.64329e-07)
(5.64406e-05 -5.43648 -0 -5.62858e-05 -0 -1.54833e-07)
(5.22104e-05 -5.43473 -0 -5.2067e-05 -0 -1.43346e-07)
(4.78021e-05 -5.43316 -0 -4.7672e-05 -0 -1.30073e-07)
(4.29371e-05 -5.43176 -0 -4.28216e-05 -0 -1.1549e-07)
(3.76659e-05 -5.43054 -0 -3.75661e-05 -0 -9.97364e-08)
(3.13711e-05 -5.42949 -0 -3.12921e-05 -0 -7.89484e-08)
(2.40763e-05 -5.42862 -0 -2.40188e-05 -0 -5.7536e-08)
(1.54715e-05 -5.42793 -0 -1.5441e-05 -0 -3.05541e-08)
(5.01694e-06 -5.42745 -0 -5.01744e-06 -0 4.99201e-10)
(-7.57055e-06 -5.42718 -0 7.53734e-06 -0 3.321e-08)
(-2.28748e-05 -5.42714 -0 2.27859e-05 -0 8.89225e-08)
(-4.162e-05 -5.42738 -0 4.14784e-05 -0 1.41577e-07)
(-6.43764e-05 -5.42791 -0 6.41657e-05 -0 2.10712e-07)
(-9.20771e-05 -5.42878 -0 9.17829e-05 -0 2.94158e-07)
(-0.000125169 -5.43004 -0 0.000124772 -0 3.96248e-07)
(-0.000165348 -5.43172 -0 0.000164823 -0 5.24699e-07)
(-0.000212742 -5.43391 -0 0.000212081 -0 6.61249e-07)
(-0.000269724 -5.43662 -0 0.000268888 -0 8.36355e-07)
(-0.000336968 -5.43999 -0 0.000335919 -0 1.04809e-06)
(-0.000416699 -5.44399 -0 0.000415408 -0 1.2915e-06)
(-0.00050985 -5.44883 -0 0.000508295 -0 1.55513e-06)
(-0.000620414 -5.45447 -0 0.000618475 -0 1.93863e-06)
(-0.000748125 -5.46115 -0 0.000745843 -0 2.28193e-06)
(-0.000899863 -5.46878 -0 0.000897011 -0 2.85202e-06)
(-0.00107563 -5.47772 -0 0.00107236 -0 3.26998e-06)
(-0.00128342 -5.48784 -0 0.0012793 -0 4.12732e-06)
(-0.00152872 -5.49957 -0 0.00152405 -0 4.67151e-06)
(-0.00176969 -5.5106 -0 0.00176458 -0 5.11298e-06)
(-0.00198292 -5.52017 -0 0.00197634 -0 6.57365e-06)
(-0.00220881 -5.53027 -0 0.00220206 -0 6.75359e-06)
(-0.00246593 -5.5409 -0 0.00245819 -0 7.74344e-06)
(-0.00274371 -5.55207 -0 0.00273504 -0 8.67259e-06)
(-0.00304536 -5.56379 -0 0.00303578 -0 9.57668e-06)
(-0.00337828 -5.57605 -0 0.0033675 -0 1.07755e-05)
(-0.00374221 -5.58887 -0 0.0037304 -0 1.18056e-05)
(-0.00414945 -5.6023 -0 0.00413597 -0 1.34806e-05)
(-0.00458387 -5.61618 -0 0.00456951 -0 1.43633e-05)
(-0.00509669 -5.63076 -0 0.00507945 -0 1.72337e-05)
(-0.00561528 -5.64576 -0 0.00559827 -0 1.70089e-05)
(-0.00629153 -5.6615 -0 0.00626836 -0 2.31709e-05)
(-0.00689379 -5.67767 -0 0.00687526 -0 1.85319e-05)
(-0.00786696 -5.69458 -0 0.00783226 -0 3.47031e-05)
(-0.00850811 -5.71206 -0 0.00849379 -0 1.43226e-05)
(-0.0100851 -5.73011 -0 0.0100225 -0 6.26342e-05)
(-0.0105999 -5.74922 -0 0.0106122 -0 -1.22468e-05)
(-0.0135021 -5.76801 -0 0.0133591 -0 0.000143053)
(-0.0137397 -5.79084 -0 0.0138527 -0 -0.000113025)
(-0.0184136 -5.80444 -0 0.0180486 -0 0.000365018)
(-0.02243 -5.84171 -0 0.0227955 -0 -0.000365477)
(-0.0215848 -5.82721 -0 0.0208096 -0 0.000775235)
(-0.072906 -5.9571 -0 0.0736571 -0 -0.000751162)
(0.0226885 -5.54723 -0 -0.0197804 -0 -0.00290814)
(0.0503154 -11.0001 -0 -0.0502652 -0 -5.02743e-05)
(0.0181854 -7.54567 -0 -0.0181616 -0 -2.38225e-05)
(0.00698359 -6.83434 -0 -0.00697442 -0 -9.16466e-06)
(0.0042968 -6.45714 -0 -0.0042921 -0 -4.70136e-06)
(0.00308279 -6.21592 -0 -0.00307918 -0 -3.60077e-06)
(0.00228952 -6.04767 -0 -0.00228682 -0 -2.69961e-06)
(0.00177308 -5.92522 -0 -0.00177102 -0 -2.06026e-06)
(0.00142666 -5.83197 -0 -0.00142498 -0 -1.68701e-06)
(0.00117477 -5.75885 -0 -0.00117336 -0 -1.41419e-06)
(0.000984972 -5.70018 -0 -0.00098378 -0 -1.19198e-06)
(0.000839915 -5.65243 -0 -0.000838891 -0 -1.02361e-06)
(0.000725525 -5.61282 -0 -0.000724636 -0 -8.8885e-07)
(0.000633581 -5.57976 -0 -0.0006328 -0 -7.80597e-07)
(0.000558722 -5.5517 -0 -0.000558032 -0 -6.90038e-07)
(0.000496078 -5.52784 -0 -0.000495464 -0 -6.14865e-07)
(0.000443425 -5.5073 -0 -0.000442876 -0 -5.4952e-07)
(0.000398944 -5.48964 -0 -0.000398448 -0 -4.96035e-07)
(0.000360626 -5.47419 -0 -0.000360178 -0 -4.47765e-07)
(0.000327686 -5.46081 -0 -0.000327279 -0 -4.07406e-07)
(0.000298921 -5.44896 -0 -0.000298549 -0 -3.71359e-07)
(0.000273908 -5.43865 -0 -0.000273568 -0 -3.39636e-07)
(0.000251742 -5.42941 -0 -0.000251429 -0 -3.12497e-07)
(0.000231568 -5.42133 -0 -0.000231283 -0 -2.85329e-07)
(0.000215201 -5.4141 -0 -0.000214934 -0 -2.66339e-07)
(0.000200128 -5.4076 -0 -0.000199881 -0 -2.47311e-07)
(0.000185709 -5.40177 -0 -0.000185481 -0 -2.27793e-07)
(0.000172997 -5.39661 -0 -0.000172785 -0 -2.11584e-07)
(0.000161817 -5.39193 -0 -0.00016162 -0 -1.97544e-07)
(0.000151268 -5.38774 -0 -0.000151086 -0 -1.82496e-07)
(0.000142072 -5.38397 -0 -0.000141898 -0 -1.73771e-07)
(0.00013313 -5.38053 -0 -0.000132969 -0 -1.60357e-07)
(0.000125166 -5.37745 -0 -0.000125015 -0 -1.5081e-07)
(0.000117885 -5.37462 -0 -0.000117741 -0 -1.43416e-07)
(0.000111 -5.37208 -0 -0.000110869 -0 -1.31033e-07)
(0.000104268 -5.36975 -0 -0.000104142 -0 -1.26709e-07)
(9.78462e-05 -5.36767 -0 -9.77332e-05 -0 -1.12981e-07)
(9.16814e-05 -5.36575 -0 -9.15738e-05 -0 -1.07613e-07)
(8.48305e-05 -5.36402 -0 -8.47302e-05 -0 -1.00261e-07)
(7.76557e-05 -5.36247 -0 -7.75652e-05 -0 -9.04963e-08)
(6.97397e-05 -5.36109 -0 -6.96597e-05 -0 -8.00407e-08)
(6.11356e-05 -5.35988 -0 -6.10669e-05 -0 -6.87621e-08)
(5.08699e-05 -5.35882 -0 -5.08174e-05 -0 -5.24973e-08)
(3.89324e-05 -5.35794 -0 -3.88949e-05 -0 -3.75188e-08)
(2.48397e-05 -5.35722 -0 -2.4822e-05 -0 -1.76358e-08)
(7.71105e-06 -5.3567 -0 -7.71504e-06 -0 3.98278e-09)
(-1.29811e-05 -5.35636 -0 1.29573e-05 -0 2.38336e-08)
(-3.79488e-05 -5.35624 -0 3.78847e-05 -0 6.40528e-08)
(-6.86548e-05 -5.35637 -0 6.85514e-05 -0 1.0338e-07)
(-0.000106133 -5.35675 -0 0.000105979 -0 1.53862e-07)
(-0.000151524 -5.35744 -0 0.000151319 -0 2.05306e-07)
(-0.000205783 -5.35847 -0 0.000205502 -0 2.80933e-07)
(-0.000271635 -5.35987 -0 0.000271261 -0 3.747e-07)
(-0.00034938 -5.36174 -0 0.000348917 -0 4.63867e-07)
(-0.000442769 -5.36404 -0 0.000442184 -0 5.84837e-07)
(-0.000552989 -5.36693 -0 0.000552254 -0 7.35465e-07)
(-0.00068363 -5.37038 -0 0.000682728 -0 9.01903e-07)
(-0.000836199 -5.37455 -0 0.000835134 -0 1.06507e-06)
(-0.00101715 -5.3794 -0 0.00101579 -0 1.361e-06)
(-0.00122618 -5.38517 -0 0.00122462 -0 1.55576e-06)
(-0.00147432 -5.39175 -0 0.00147231 -0 2.01798e-06)
(-0.00176151 -5.39946 -0 0.00175931 -0 2.19834e-06)
(-0.00210083 -5.40817 -0 0.0020979 -0 2.93097e-06)
(-0.00249991 -5.41827 -0 0.00249681 -0 3.09533e-06)
(-0.00289246 -5.42772 -0 0.00288933 -0 3.12697e-06)
(-0.00324096 -5.43592 -0 0.00323624 -0 4.71532e-06)
(-0.00360733 -5.44457 -0 0.00360296 -0 4.36823e-06)
(-0.00402326 -5.45366 -0 0.00401816 -0 5.10128e-06)
(-0.00447425 -5.46315 -0 0.00446854 -0 5.71444e-06)
(-0.00496229 -5.47308 -0 0.00495608 -0 6.20711e-06)
(-0.00550173 -5.48344 -0 0.0054947 -0 7.03199e-06)
(-0.00608707 -5.49422 -0 0.00607958 -0 7.48878e-06)
(-0.00674566 -5.5055 -0 0.00673689 -0 8.7699e-06)
(-0.00744067 -5.51703 -0 0.00743192 -0 8.75366e-06)
(-0.00826893 -5.52918 -0 0.0082575 -0 1.14314e-05)
(-0.00909028 -5.54145 -0 0.00908083 -0 9.44282e-06)
(-0.0101833 -5.55447 -0 0.0101669 -0 1.63889e-05)
(-0.0111219 -5.56737 -0 0.0111144 -0 7.50181e-06)
(-0.0126943 -5.58131 -0 0.0126663 -0 2.80237e-05)
(-0.0136661 -5.59468 -0 0.0136703 -0 -4.19449e-06)