/*--------------------------------*- C++ -*----------------------------------*\
| =========                 |                                                 |
| \\      /  F ield         | OpenFOAM: The Open Source CFD Toolbox           |
|  \\    /   O peration     | Version:  2306                                  |
|   \\  /    A nd           | Website:  www.openfoam.com                      |
|    \\/     M anipulation  |                                                 |
\*---------------------------------------------------------------------------*/
FoamFile
{
    version     2.0;
    format      ascii;
    arch        "LSB;label=32;scalar=64";
    class       volVectorField;
    location    "1900";
    object      U;
}
// * * * * * * * * * * * * * * * * * * * * * * * * * * * * * * * * * * * * * //

dimensions      [0 1 -1 0 0 0 0];

internalField   nonuniform List<vector> 
20540
(
(39.407 0.00087417 0)
(28.9005 0.00282842 0)
(39.434 0.00280243 0)
(28.924 0.00839168 0)
(39.4693 0.00513044 0)
(28.9548 0.0132087 0)
(39.5148 0.00793861 0)
(28.9946 0.0174965 0)
(39.5726 0.0113234 0)
(29.0455 0.0216869 0)
(39.6453 0.0153993 0)
(29.1097 0.0259714 0)
(39.7358 0.0203013 0)
(29.1901 0.0304069 0)
(39.8474 0.0261884 0)
(29.2899 0.0350349 0)
(39.9841 0.0332457 0)
(29.4132 0.0399069 0)
(40.1504 0.0416872 0)
(29.5646 0.0450809 0)
(40.3514 0.0517573 0)
(29.7499 0.0506238 0)
(40.5928 0.0637305 0)
(29.976 0.0566203 0)
(40.8808 0.0779083 0)
(30.2511 0.0631867 0)
(41.2221 0.0946106 0)
(30.585 0.0704893 0)
(41.6231 0.114161 0)
(30.9896 0.0787693 0)
(42.0898 0.136861 0)
(31.4791 0.0883773 0)
(42.6264 0.162943 0)
(32.0702 0.0998164 0)
(43.2333 0.192505 0)
(32.7824 0.113793 0)
(43.9047 0.22541 0)
(33.6381 0.131265 0)
(44.6228 0.261157 0)
(34.6615 0.153459 0)
(45.3514 0.29872 0)
(35.8776 0.181818 0)
(46.0255 0.336345 0)
(37.3085 0.217749 0)
(46.5492 0.371088 0)
(38.9655 0.262019 0)
(46.8204 0.398152 0)
(40.8349 0.31366 0)
(46.7891 0.411164 0)
(42.8546 0.369092 0)
(46.4872 0.403961 0)
(44.8637 0.420398 0)
(46.0086 0.372787 0)
(46.4925 0.448567 0)
(45.4906 0.318628 0)
(47.2632 0.427123 0)
(45.0638 0.246815 0)
(47.3247 0.360173 0)
(44.7912 0.165552 0)
(47.1323 0.260647 0)
(44.6753 0.086092 0)
(46.9666 0.149391 0)
(44.6387 0.0111924 0)
(46.8926 0.0422907 0)
(44.6411 -0.0628296 0)
(46.8984 -0.0640491 0)
(44.6842 -0.138008 0)
(46.9847 -0.17117 0)
(44.8099 -0.217 0)
(47.1592 -0.280549 0)
(45.0871 -0.296868 0)
(47.3451 -0.37647 0)
(45.511 -0.367515 0)
(47.2666 -0.440613 0)
(46.019 -0.420712 0)
(46.4677 -0.459733 0)
(46.4821 -0.451137 0)
(44.8034 -0.42953 0)
(46.7602 -0.457553 0)
(42.7561 -0.376343 0)
(46.752 -0.4433 0)
(40.6939 -0.319018 0)
(46.4233 -0.414415 0)
(38.7761 -0.265518 0)
(45.832 -0.37739 0)
(37.0657 -0.219588 0)
(45.0885 -0.33711 0)
(35.5792 -0.182332 0)
(44.2926 -0.296611 0)
(34.3072 -0.153027 0)
(43.5098 -0.257772 0)
(33.2297 -0.130246 0)
(42.777 -0.221739 0)
(32.3228 -0.112497 0)
(42.112 -0.189114 0)
(31.5628 -0.0984869 0)
(41.521 -0.160103 0)
(30.9279 -0.0871968 0)
(41.0037 -0.134656 0)
(30.3988 -0.0778613 0)
(40.5562 -0.112568 0)
(29.9585 -0.0699267 0)
(40.1728 -0.093553 0)
(29.5928 -0.0630038 0)
(39.8469 -0.0772907 0)
(29.2893 -0.0568237 0)
(39.5717 -0.0634545 0)
(29.038 -0.0512025 0)
(39.3408 -0.0517314 0)
(28.8303 -0.0460145 0)
(39.148 -0.0418322 0)
(28.6591 -0.0411717 0)
(38.988 -0.0334966 0)
(28.5185 -0.0366099 0)
(38.856 -0.0264933 0)
(28.4034 -0.0322779 0)
(38.7478 -0.0206206 0)
(28.3098 -0.0281296 0)
(38.6597 -0.0157034 0)
(28.2339 -0.0241232 0)
(38.5885 -0.0115915 0)
(28.173 -0.0202244 0)
(38.5317 -0.00815677 0)
(28.1245 -0.0163828 0)
(38.4868 -0.00529009 0)
(28.0864 -0.0124193 0)
(38.4519 -0.00289901 0)
(28.0568 -0.0079234 0)
(38.4251 -0.000906368 0)
(28.0342 -0.0026792 0)
(9.29924 0.00446448 0)
(6.28613 0.000374444 0)
(5.66536 8.89703e-05 0)
(5.3492 4.94337e-05 0)
(5.14416 3.30065e-05 0)
(5.00241 2.37239e-05 0)
(4.8997 1.80169e-05 0)
(4.82144 1.42785e-05 0)
(4.76014 1.16371e-05 0)
(4.71104 9.68661e-06 0)
(4.67111 8.21207e-06 0)
(4.63798 7.05979e-06 0)
(4.61036 6.14131e-06 0)
(4.58691 5.39809e-06 0)
(4.56698 4.77891e-06 0)
(4.54982 4.2601e-06 0)
(4.53506 3.82438e-06 0)
(4.52216 3.44982e-06 0)
(4.51098 3.12907e-06 0)
(4.50109 2.84955e-06 0)
(4.49246 2.60694e-06 0)
(4.48475 2.39252e-06 0)
(4.478 2.19678e-06 0)
(4.47195 2.04141e-06 0)
(4.46653 1.89676e-06 0)
(4.46167 1.75645e-06 0)
(4.45735 1.63404e-06 0)
(4.45344 1.52667e-06 0)
(4.44994 1.4242e-06 0)
(4.44677 1.33692e-06 0)
(4.4439 1.2511e-06 0)
(4.44132 1.17623e-06 0)
(4.43897 1.10828e-06 0)
(4.43685 1.04426e-06 0)
(4.4349 9.80214e-07 0)
(4.43317 9.21432e-07 0)
(4.43158 8.6618e-07 0)
(4.43016 8.02859e-07 0)
(4.42889 7.39054e-07 0)
(4.42778 6.69842e-07 0)
(4.42683 5.96835e-07 0)
(4.42603 5.11612e-07 0)
(4.4254 4.14266e-07 0)
(4.42494 2.99593e-07 0)
(4.42468 1.635e-07 0)
(4.42463 -3.03145e-10 0)
(4.42482 -2.03155e-07 0)
(4.42529 -4.4113e-07 0)
(4.42607 -7.27991e-07 0)
(4.4272 -1.08838e-06 0)
(4.42874 -1.50679e-06 0)
(4.43074 -2.02526e-06 0)
(4.43328 -2.63552e-06 0)
(4.43638 -3.35376e-06 0)
(4.4402 -4.22311e-06 0)
(4.44473 -5.24889e-06 0)
(4.45016 -6.43811e-06 0)
(4.45649 -7.84989e-06 0)
(4.46397 -9.49358e-06 0)
(4.47255 -1.14186e-05 0)
(4.4826 -1.37263e-05 0)
(4.49403 -1.63639e-05 0)
(4.50732 -1.96441e-05 0)
(4.51995 -2.29001e-05 0)
(4.5309 -2.54932e-05 0)
(4.54242 -2.8681e-05 0)
(4.55474 -3.20642e-05 0)
(4.56777 -3.56977e-05 0)
(4.58156 -3.97547e-05 0)
(4.59611 -4.4142e-05 0)
(4.61147 -4.91976e-05 0)
(4.6277 -5.44913e-05 0)
(4.64478 -6.07453e-05 0)
(4.66279 -6.7201e-05 0)
(4.68188 -7.53517e-05 0)
(4.70183 -8.30049e-05 0)
(4.7234 -9.44366e-05 0)
(4.74544 -0.000103047 0)
(4.77053 -0.000121179 0)
(4.79453 -0.000128799 0)
(4.82555 -0.000162316 0)
(4.85026 -0.000164132 0)
(4.89386 -0.000237406 0)
(4.91535 -0.000201706 0)
(4.98277 -0.000455125 0)
(5.01409 -0.000273571 0)
(5.1 -0.000756508 0)
(5.20817 -0.0312569 0)
(16.3841 0.0077689 0)
(12.2449 0.00168957 0)
(11.2626 0.000466793 0)
(10.7509 0.000270218 0)
(10.4132 0.000186597 0)
(10.1776 0.000136593 0)
(10.0059 0.000105056 0)
(9.87442 8.41198e-05 0)
(9.77113 6.90854e-05 0)
(9.68818 5.78464e-05 0)
(9.62058 4.9281e-05 0)
(9.5644 4.25396e-05 0)
(9.51748 3.71292e-05 0)
(9.47761 3.27334e-05 0)
(9.44369 2.9049e-05 0)
(9.41446 2.59535e-05 0)
(9.38928 2.33437e-05 0)
(9.36729 2.10922e-05 0)
(9.34819 1.91606e-05 0)
(9.33131 1.74697e-05 0)
(9.31656 1.60055e-05 0)
(9.30338 1.4699e-05 0)
(9.29183 1.35111e-05 0)
(9.28148 1.25704e-05 0)
(9.2722 1.16789e-05 0)
(9.26389 1.08221e-05 0)
(9.25649 1.00779e-05 0)
(9.2498 9.42151e-06 0)
(9.24379 8.80322e-06 0)
(9.23836 8.26895e-06 0)
(9.23344 7.73948e-06 0)
(9.22902 7.27531e-06 0)
(9.22498 6.85162e-06 0)
(9.22135 6.45493e-06 0)
(9.21802 6.06463e-06 0)
(9.21504 5.69456e-06 0)
(9.21231 5.3391e-06 0)
(9.20988 4.94489e-06 0)
(9.20771 4.54058e-06 0)
(9.20582 4.09583e-06 0)
(9.20418 3.62023e-06 0)
(9.20282 3.05298e-06 0)
(9.20175 2.40463e-06 0)
(9.20098 1.64602e-06 0)
(9.20055 7.27625e-07 0)
(9.2005 -3.77993e-07 0)
(9.20087 -1.73069e-06 0)
(9.20171 -3.35281e-06 0)
(9.2031 -5.32452e-06 0)
(9.20511 -7.75505e-06 0)
(9.20785 -1.0635e-05 0)
(9.21137 -1.41357e-05 0)
(9.21586 -1.825e-05 0)
(9.22133 -2.32199e-05 0)
(9.22804 -2.90607e-05 0)
(9.23602 -3.59907e-05 0)
(9.24557 -4.41187e-05 0)
(9.2567 -5.37332e-05 0)
(9.26984 -6.48723e-05 0)
(9.28492 -7.80445e-05 0)
(9.30255 -9.34485e-05 0)
(9.32261 -0.000111466 0)
(9.3459 -0.000133171 0)
(9.36805 -0.000154408 0)
(9.38722 -0.000172527 0)
(9.40741 -0.000192925 0)
(9.42895 -0.00021558 0)
(9.45176 -0.000239858 0)
(9.47587 -0.000266576 0)
(9.50131 -0.00029578 0)
(9.52815 -0.000328544 0)
(9.55646 -0.000364091 0)
(9.58629 -0.000403851 0)
(9.61765 -0.000448117 0)
(9.65096 -0.000497582 0)
(9.68563 -0.000553816 0)
(9.72326 -0.000616656 0)
(9.76139 -0.000692002 0)
(9.80519 -0.000774178 0)
(9.84645 -0.00088319 0)
(9.9006 -0.000992789 0)
(9.94271 -0.00117893 0)
(10.0183 -0.00134816 0)
(10.055 -0.00159022 0)
(10.1688 -0.00241259 0)
(10.2249 -0.00201994 0)
(10.3459 -0.0063418 0)
(10.7388 -0.0585384 0)
(20.6839 0.0126413 0)
(16.4913 0.00349715 0)
(15.3432 0.0010595 0)
(14.73 0.000625222 0)
(14.3176 0.000437358 0)
(14.0277 0.000322274 0)
(13.8154 0.000248934 0)
(13.6524 0.000199984 0)
(13.524 0.000164631 0)
(13.4207 0.000138094 0)
(13.3364 0.000117817 0)
(13.2663 0.000101822 0)
(13.2077 8.89604e-05 0)
(13.1579 7.8491e-05 0)
(13.1155 6.9709e-05 0)
(13.0789 6.2322e-05 0)
(13.0474 5.60839e-05 0)
(13.0199 5.0701e-05 0)
(12.996 4.60763e-05 0)
(12.9748 4.20282e-05 0)
(12.9563 3.85168e-05 0)
(12.9398 3.53878e-05 0)
(12.9253 3.25398e-05 0)
(12.9123 3.02704e-05 0)
(12.9007 2.81349e-05 0)
(12.8903 2.6084e-05 0)
(12.881 2.42952e-05 0)
(12.8726 2.27176e-05 0)
(12.865 2.12295e-05 0)
(12.8582 1.99413e-05 0)
(12.852 1.86701e-05 0)
(12.8465 1.7552e-05 0)
(12.8414 1.65309e-05 0)
(12.8368 1.55731e-05 0)
(12.8327 1.46288e-05 0)
(12.8289 1.37357e-05 0)
(12.8255 1.28763e-05 0)
(12.8224 1.19192e-05 0)
(12.8197 1.09346e-05 0)
(12.8174 9.84938e-06 0)
(12.8153 8.68441e-06 0)
(12.8136 7.29592e-06 0)
(12.8123 5.70009e-06 0)
(12.8114 3.82523e-06 0)
(12.8109 1.5543e-06 0)
(12.8109 -1.17735e-06 0)
(12.8114 -4.52029e-06 0)
(12.8126 -8.55758e-06 0)
(12.8144 -1.34451e-05 0)
(12.8171 -1.94596e-05 0)
(12.8207 -2.65985e-05 0)
(12.8254 -3.52801e-05 0)
(12.8313 -4.55014e-05 0)
(12.8385 -5.78033e-05 0)
(12.8473 -7.23071e-05 0)
(12.8578 -8.95114e-05 0)
(12.8703 -0.000109631 0)
(12.8849 -0.000133466 0)
(12.9021 -0.000161047 0)
(12.9219 -0.0001937 0)
(12.945 -0.000231789 0)
(12.9712 -0.000276472 0)
(13.0017 -0.000329932 0)
(13.0307 -0.000382216 0)
(13.0558 -0.000427302 0)
(13.0822 -0.000477159 0)
(13.1104 -0.000532999 0)
(13.1402 -0.000592952 0)
(13.1717 -0.000658635 0)
(13.205 -0.000730605 0)
(13.2401 -0.000810732 0)
(13.2771 -0.000898451 0)
(13.3161 -0.000995189 0)
(13.357 -0.00110475 0)
(13.4007 -0.00122365 0)
(13.4458 -0.00136445 0)
(13.4951 -0.00151169 0)
(13.5446 -0.00170493 0)
(13.6022 -0.00188744 0)
(13.6552 -0.0021791 0)
(13.7267 -0.00239807 0)
(13.7804 -0.00291237 0)
(13.8792 -0.00321294 0)
(13.9269 -0.00392489 0)
(14.0708 -0.00564965 0)
(14.1472 -0.00456018 0)
(14.2775 -0.0180175 0)
(14.8617 -0.0722907 0)
(23.3535 0.0168297 0)
(19.4525 0.00559835 0)
(18.2349 0.00182949 0)
(17.5645 0.00109782 0)
(17.1045 0.000775793 0)
(16.7782 0.000574401 0)
(16.5383 0.00044497 0)
(16.3534 0.000358238 0)
(16.2074 0.000295339 0)
(16.0899 0.000247989 0)
(15.9939 0.000211751 0)
(15.914 0.000183127 0)
(15.8471 0.000160084 0)
(15.7903 0.000141308 0)
(15.7418 0.00012555 0)
(15.7001 0.000112287 0)
(15.664 0.000101078 0)
(15.6326 9.14037e-05 0)
(15.6052 8.30859e-05 0)
(15.581 7.58053e-05 0)
(15.5599 6.94845e-05 0)
(15.541 6.38558e-05 0)
(15.5244 5.87305e-05 0)
(15.5095 5.46306e-05 0)
(15.4962 5.0789e-05 0)
(15.4843 4.71012e-05 0)
(15.4736 4.38768e-05 0)
(15.464 4.10344e-05 0)
(15.4553 3.83525e-05 0)
(15.4475 3.60267e-05 0)
(15.4405 3.3738e-05 0)
(15.4341 3.1719e-05 0)
(15.4283 2.98744e-05 0)
(15.423 2.81414e-05 0)
(15.4182 2.64345e-05 0)
(15.4139 2.48174e-05 0)
(15.41 2.32607e-05 0)
(15.4065 2.15264e-05 0)
(15.4034 1.97342e-05 0)
(15.4007 1.77575e-05 0)
(15.3984 1.5628e-05 0)
(15.3964 1.30877e-05 0)
(15.3949 1.01584e-05 0)
(15.3939 6.71193e-06 0)
(15.3933 2.53151e-06 0)
(15.3934 -2.4978e-06 0)
(15.394 -8.63949e-06 0)
(15.3954 -1.61004e-05 0)
(15.3977 -2.51323e-05 0)
(15.4008 -3.62074e-05 0)
(15.4051 -4.93858e-05 0)
(15.4106 -6.54005e-05 0)
(15.4176 -8.42723e-05 0)
(15.426 -0.000106974 0)
(15.4364 -0.000133744 0)
(15.4487 -0.000165498 0)
(15.4634 -0.000202622 0)
(15.4805 -0.000246614 0)
(15.5007 -0.000297509 0)
(15.5239 -0.0003578 0)
(15.551 -0.000428004 0)
(15.5818 -0.000510502 0)
(15.6176 -0.000608849 0)
(15.6515 -0.000705202 0)
(15.681 -0.000788785 0)
(15.7119 -0.000880129 0)
(15.7449 -0.000982898 0)
(15.7798 -0.0010935 0)
(15.8167 -0.00121431 0)
(15.8557 -0.00134696 0)
(15.8968 -0.0014938 0)
(15.9399 -0.00165568 0)
(15.9856 -0.00183238 0)
(16.0333 -0.002035 0)
(16.0844 -0.00225039 0)
(16.1368 -0.00251277 0)
(16.1946 -0.00277491 0)
(16.2518 -0.00313992 0)
(16.3193 -0.00345318 0)
(16.3802 -0.00401488 0)
(16.4639 -0.00436528 0)
(16.5249 -0.00535878 0)
(16.6392 -0.00580809 0)
(16.6944 -0.00720897 0)
(16.8567 -0.010042 0)
(16.9424 -0.00813606 0)
(17.0932 -0.0334027 0)
(17.6553 -0.066653 0)
(25.2113 0.0207234 0)
(21.7343 0.00800741 0)
(20.5091 0.00280833 0)
(19.8074 0.00171698 0)
(19.3147 0.00122636 0)
(18.9611 0.000912552 0)
(18.6997 0.000708949 0)
(18.4974 0.000571918 0)
(18.3374 0.00047213 0)
(18.2083 0.000396801 0)
(18.1027 0.000339057 0)
(18.0148 0.00029339 0)
(17.9411 0.000256589 0)
(17.8785 0.000226575 0)
(17.8251 0.000201378 0)
(17.779 0.000180161 0)
(17.7392 0.000162215 0)
(17.7045 0.000146725 0)
(17.6743 0.000133398 0)
(17.6476 0.000121736 0)
(17.6242 0.000111601 0)
(17.6033 0.000102584 0)
(17.585 9.43714e-05 0)
(17.5685 8.77733e-05 0)
(17.5538 8.16199e-05 0)
(17.5406 7.57171e-05 0)
(17.5288 7.05422e-05 0)
(17.5182 6.59824e-05 0)
(17.5086 6.16791e-05 0)
(17.5 5.794e-05 0)
(17.4921 5.42731e-05 0)
(17.4851 5.10283e-05 0)
(17.4786 4.80627e-05 0)
(17.4728 4.52717e-05 0)
(17.4675 4.25264e-05 0)
(17.4627 3.99217e-05 0)
(17.4584 3.74136e-05 0)
(17.4545 3.46207e-05 0)
(17.4511 3.17227e-05 0)
(17.448 2.85247e-05 0)
(17.4455 2.50691e-05 0)
(17.4433 2.09459e-05 0)
(17.4417 1.61771e-05 0)
(17.4405 1.056e-05 0)
(17.4399 3.73962e-06 0)
(17.44 -4.47519e-06 0)
(17.4408 -1.44693e-05 0)
(17.4423 -2.66694e-05 0)
(17.4448 -4.14648e-05 0)
(17.4484 -5.95375e-05 0)
(17.4532 -8.10804e-05 0)
(17.4593 -0.000107247 0)
(17.4671 -0.000138106 0)
(17.4766 -0.00017521 0)
(17.4882 -0.000218976 0)
(17.502 -0.000270881 0)
(17.5184 -0.000331555 0)
(17.5376 -0.000403459 0)
(17.5602 -0.000486641 0)
(17.5862 -0.00058521 0)
(17.6165 -0.000699845 0)
(17.6509 -0.000834695 0)
(17.6909 -0.000994964 0)
(17.7288 -0.00115225 0)
(17.7617 -0.00128933 0)
(17.7963 -0.00143776 0)
(17.8331 -0.00160512 0)
(17.872 -0.00178569 0)
(17.9132 -0.00198242 0)
(17.9565 -0.00219886 0)
(18.0023 -0.00243713 0)
(18.0504 -0.00270135 0)
(18.1013 -0.00298721 0)
(18.1542 -0.00331835 0)
(18.211 -0.00366421 0)
(18.269 -0.00409514 0)
(18.3333 -0.00451003 0)
(18.3962 -0.00511433 0)
(18.4712 -0.00559598 0)
(18.5377 -0.00653399 0)
(18.6304 -0.00704682 0)
(18.6967 -0.00869101 0)
(18.8216 -0.00932639 0)
(18.882 -0.0116681 0)
(19.0575 -0.0157722 0)
(19.1416 -0.0134016 0)
(19.334 -0.0500411 0)
(19.7329 -0.0652028 0)
(26.6111 0.0243377 0)
(23.6036 0.0106573 0)
(22.4198 0.00399974 0)
(21.7086 0.00249995 0)
(21.1946 0.00180783 0)
(20.8205 0.00135329 0)
(20.5418 0.0010549 0)
(20.3252 0.000852962 0)
(20.1533 0.000705211 0)
(20.0143 0.000593312 0)
(19.9004 0.000507366 0)
(19.8054 0.000439302 0)
(19.7258 0.000384389 0)
(19.6581 0.000339556 0)
(19.6003 0.000301906 0)
(19.5504 0.000270184 0)
(19.5073 0.000243334 0)
(19.4697 0.000220155 0)
(19.4369 0.0002002 0)
(19.408 0.00018274 0)
(19.3826 0.00016755 0)
(19.3599 0.000154052 0)
(19.34 0.000141753 0)
(19.3222 0.000131826 0)
(19.3062 0.000122615 0)
(19.2918 0.000113785 0)
(19.279 0.000106021 0)
(19.2675 9.91845e-05 0)
(19.257 9.27309e-05 0)
(19.2476 8.71121e-05 0)
(19.2391 8.16233e-05 0)
(19.2314 7.67504e-05 0)
(19.2244 7.22945e-05 0)
(19.2181 6.80946e-05 0)
(19.2123 6.39688e-05 0)
(19.2071 6.00497e-05 0)
(19.2024 5.6277e-05 0)
(19.1982 5.20796e-05 0)
(19.1944 4.77076e-05 0)
(19.1911 4.2883e-05 0)
(19.1883 3.76567e-05 0)
(19.186 3.14225e-05 0)
(19.1842 2.4193e-05 0)
(19.1829 1.56703e-05 0)
(19.1823 5.31732e-06 0)
(19.1823 -7.17567e-06 0)
(19.1832 -2.23098e-05 0)
(19.1849 -4.08388e-05 0)
(19.1876 -6.33837e-05 0)
(19.1915 -9.08303e-05 0)
(19.1967 -0.000123569 0)
(19.2034 -0.000163325 0)
(19.2118 -0.000210243 0)
(19.2222 -0.000266626 0)
(19.2348 -0.000333146 0)
(19.2498 -0.000412028 0)
(19.2677 -0.000504218 0)
(19.2886 -0.000613454 0)
(19.3132 -0.000739828 0)
(19.3414 -0.000889577 0)
(19.3743 -0.00106358 0)
(19.4118 -0.00126838 0)
(19.4553 -0.00151107 0)
(19.4964 -0.00174955 0)
(19.5321 -0.00195824 0)
(19.5697 -0.00218255 0)
(19.6096 -0.00243546 0)
(19.6519 -0.00270907 0)
(19.6965 -0.00300646 0)
(19.7434 -0.00333416 0)
(19.793 -0.00369303 0)
(19.845 -0.00409292 0)
(19.9 -0.00452206 0)
(19.9571 -0.00502339 0)
(20.0184 -0.00553894 0)
(20.0807 -0.00619315 0)
(20.1501 -0.00680393 0)
(20.2174 -0.00772478 0)
(20.2981 -0.00841774 0)
(20.3688 -0.00984946 0)
(20.4682 -0.010564 0)
(20.5384 -0.0130364 0)
(20.6704 -0.013907 0)
(20.7343 -0.0174815 0)
(20.9202 -0.0228553 0)
(20.9942 -0.0210824 0)
(21.2407 -0.0656786 0)
(21.4365 -0.0756964 0)
(27.7275 0.0276009 0)
(25.1911 0.0134776 0)
(24.0893 0.00539499 0)
(23.389 0.00346018 0)
(22.8646 0.00253908 0)
(22.4761 0.00191469 0)
(22.1838 0.0014987 0)
(21.9552 0.00121517 0)
(21.773 0.00100654 0)
(21.6253 0.000847908 0)
(21.504 0.000725762 0)
(21.4028 0.000628863 0)
(21.3178 0.000550576 0)
(21.2454 0.000486582 0)
(21.1835 0.000432816 0)
(21.1301 0.000387483 0)
(21.084 0.000349083 0)
(21.0437 0.000315924 0)
(21.0085 0.000287356 0)
(20.9775 0.000262365 0)
(20.9503 0.000240597 0)
(20.926 0.000221277 0)
(20.9045 0.000203666 0)
(20.8854 0.000189384 0)
(20.8682 0.000176202 0)
(20.8528 0.00016357 0)
(20.839 0.000152429 0)
(20.8266 0.000142627 0)
(20.8154 0.000133371 0)
(20.8052 0.000125296 0)
(20.7961 0.000117442 0)
(20.7878 0.000110446 0)
(20.7802 0.000104044 0)
(20.7734 9.80012e-05 0)
(20.7672 9.20731e-05 0)
(20.7616 8.64361e-05 0)
(20.7565 8.10139e-05 0)
(20.7519 7.49901e-05 0)
(20.7479 6.86941e-05 0)
(20.7443 6.17487e-05 0)
(20.7413 5.42096e-05 0)
(20.7387 4.52234e-05 0)
(20.7368 3.47781e-05 0)
(20.7354 2.24576e-05 0)
(20.7347 7.4917e-06 0)
(20.7347 -1.06059e-05 0)
(20.7356 -3.24484e-05 0)
(20.7374 -5.92048e-05 0)
(20.7403 -9.18907e-05 0)
(20.7444 -0.000131602 0)
(20.75 -0.000178954 0)
(20.7571 -0.000236437 0)
(20.7661 -0.000304325 0)
(20.7772 -0.000385863 0)
(20.7906 -0.000482074 0)
(20.8067 -0.000596149 0)
(20.8258 -0.00072944 0)
(20.8481 -0.000887326 0)
(20.8743 -0.00106999 0)
(20.9045 -0.0012864 0)
(20.9396 -0.00153767 0)
(20.9796 -0.00183348 0)
(21.0259 -0.00218303 0)
(21.0698 -0.00252677 0)
(21.1078 -0.00282876 0)
(21.1479 -0.00315138 0)
(21.1904 -0.00351457 0)
(21.2353 -0.00390848 0)
(21.2827 -0.00433569 0)
(21.3326 -0.00480707 0)
(21.3853 -0.00532066 0)
(21.4403 -0.00589527 0)
(21.4987 -0.00650741 0)
(21.559 -0.00722736 0)
(21.6239 -0.0079579 0)
(21.6896 -0.00889825 0)
(21.7629 -0.00975475 0)
(21.8335 -0.0110788 0)
(21.9185 -0.0120339 0)
(21.9924 -0.0140862 0)
(22.0963 -0.0150536 0)
(22.1696 -0.0185396 0)
(22.3061 -0.019701 0)
(22.3723 -0.0248667 0)
(22.566 -0.0313073 0)
(22.626 -0.0318173 0)
(22.9229 -0.0796554 0)
(22.9551 -0.0970343 0)
(28.6569 0.0304048 0)
(26.5704 0.0163981 0)
(25.583 0.00697389 0)
(24.9136 0.00460711 0)
(24.3902 0.00343993 0)
(23.9934 0.00261764 0)
(23.6912 0.00205956 0)
(23.4529 0.00167566 0)
(23.262 0.0013912 0)
(23.1066 0.00117382 0)
(22.9787 0.00100591 0)
(22.8717 0.000872407 0)
(22.7817 0.000764355 0)
(22.705 0.000675898 0)
(22.6394 0.000601527 0)
(22.5827 0.000538763 0)
(22.5336 0.000485555 0)
(22.4907 0.000439588 0)
(22.4533 0.000399955 0)
(22.4203 0.000365289 0)
(22.3913 0.00033505 0)
(22.3654 0.000308248 0)
(22.3425 0.000283805 0)
(22.3221 0.00026388 0)
(22.3038 0.000245592 0)
(22.2873 0.000228078 0)
(22.2726 0.000212576 0)
(22.2593 0.000198947 0)
(22.2473 0.000186077 0)
(22.2365 0.000174824 0)
(22.2267 0.000163932 0)
(22.2178 0.000154196 0)
(22.2097 0.00014528 0)
(22.2024 0.00013685 0)
(22.1958 0.000128593 0)
(22.1898 0.000120734 0)
(22.1843 0.000113183 0)
(22.1794 0.000104813 0)
(22.175 9.60373e-05 0)
(22.1712 8.63625e-05 0)
(22.1679 7.58437e-05 0)
(22.1652 6.33216e-05 0)
(22.1631 4.87357e-05 0)
(22.1615 3.15259e-05 0)
(22.1607 1.06304e-05 0)
(22.1607 -1.46843e-05 0)
(22.1616 -4.51639e-05 0)
(22.1634 -8.24489e-05 0)
(22.1664 -0.000128146 0)
(22.1708 -0.000183648 0)
(22.1766 -0.000249777 0)
(22.1841 -0.000329999 0)
(22.1936 -0.000424808 0)
(22.2052 -0.000538618 0)
(22.2193 -0.000672919 0)
(22.2362 -0.000832133 0)
(22.2563 -0.00101812 0)
(22.2798 -0.00123833 0)
(22.3074 -0.0014931 0)
(22.3391 -0.00179484 0)
(22.3761 -0.00214495 0)
(22.4181 -0.00255714 0)
(22.4668 -0.00304285 0)
(22.5129 -0.00352062 0)
(22.5528 -0.00394196 0)
(22.5948 -0.00438988 0)
(22.6394 -0.00489272 0)
(22.6865 -0.00543932 0)
(22.7362 -0.00603095 0)
(22.7884 -0.00668448 0)
(22.8435 -0.00739309 0)
(22.901 -0.00818834 0)
(22.9619 -0.00903022 0)
(23.0248 -0.0100252 0)
(23.0925 -0.011024 0)
(23.1608 -0.0123226 0)
(23.2369 -0.0134841 0)
(23.31 -0.0153075 0)
(23.3979 -0.0165887 0)
(23.4744 -0.0193969 0)
(23.581 -0.0206857 0)
(23.6567 -0.0253845 0)
(23.7955 -0.0268979 0)
(23.8632 -0.0340756 0)
(24.0617 -0.0412536 0)
(24.109 -0.0459374 0)
(24.4378 -0.093173 0)
(24.3835 -0.123884 0)
(29.4577 0.0326119 0)
(27.7881 0.0193377 0)
(26.9387 0.00869922 0)
(26.3196 0.00594078 0)
(25.8093 0.00452781 0)
(25.4112 0.00348415 0)
(25.1031 0.0027592 0)
(24.8578 0.00225459 0)
(24.6597 0.00187738 0)
(24.4977 0.00158729 0)
(24.3639 0.00136227 0)
(24.2517 0.00118286 0)
(24.1571 0.00103732 0)
(24.0763 0.000917938 0)
(24.0071 0.000817472 0)
(23.9473 0.000732583 0)
(23.8955 0.000660549 0)
(23.8501 0.000598279 0)
(23.8105 0.000544539 0)
(23.7755 0.000497537 0)
(23.7447 0.000456468 0)
(23.7173 0.000420118 0)
(23.693 0.000386953 0)
(23.6713 0.000359767 0)
(23.6518 0.00033496 0)
(23.6343 0.000311214 0)
(23.6187 0.000290115 0)
(23.6045 0.000271582 0)
(23.5918 0.000254078 0)
(23.5803 0.000238739 0)
(23.5698 0.000223972 0)
(23.5603 0.000210723 0)
(23.5517 0.000198579 0)
(23.5439 0.000187077 0)
(23.5368 0.000175831 0)
(23.5304 0.000165118 0)
(23.5246 0.000154839 0)
(23.5193 0.000143478 0)
(23.5147 0.000131534 0)
(23.5106 0.000118378 0)
(23.507 0.000104058 0)
(23.5041 8.70381e-05 0)
(23.5017 6.71784e-05 0)
(23.5001 4.37425e-05 0)
(23.4992 1.531e-05 0)
(23.4991 -1.91779e-05 0)
(23.4999 -6.06584e-05 0)
(23.5017 -0.000111284 0)
(23.5048 -0.000173443 0)
(23.5092 -0.000248994 0)
(23.5153 -0.000338977 0)
(23.523 -0.000448019 0)
(23.5328 -0.000576951 0)
(23.5449 -0.000731648 0)
(23.5596 -0.000914195 0)
(23.5771 -0.00113057 0)
(23.598 -0.00138328 0)
(23.6224 -0.00168229 0)
(23.6511 -0.00202823 0)
(23.6841 -0.00243781 0)
(23.7225 -0.00291273 0)
(23.7662 -0.00347178 0)
(23.8168 -0.00412882 0)
(23.8646 -0.00477496 0)
(23.906 -0.00534677 0)
(23.9496 -0.00595243 0)
(23.9958 -0.0066299 0)
(24.0446 -0.00736764 0)
(24.096 -0.00816474 0)
(24.15 -0.00904593 0)
(24.207 -0.00999716 0)
(24.2663 -0.0110669 0)
(24.3292 -0.0121938 0)
(24.3939 -0.0135292 0)
(24.4636 -0.0148596 0)
(24.5337 -0.0165978 0)
(24.6117 -0.0181366 0)
(24.6868 -0.0205637 0)
(24.7763 -0.022254 0)
(24.8548 -0.0259605 0)
(24.9624 -0.0276622 0)
(25.0403 -0.0337851 0)
(25.1793 -0.0357313 0)
(25.2483 -0.0453614 0)
(25.4476 -0.0529983 0)
(25.4878 -0.063386 0)
(25.8242 -0.108161 0)
(25.7495 -0.152256 0)
(30.1675 0.0340522 0)
(28.8769 0.0221979 0)
(28.1799 0.0105123 0)
(27.6292 0.00744546 0)
(27.1449 0.00581291 0)
(26.7535 0.00453447 0)
(26.4444 0.00362033 0)
(26.1949 0.00297436 0)
(25.9915 0.00248604 0)
(25.8242 0.00210748 0)
(25.6854 0.00181223 0)
(25.5685 0.00157594 0)
(25.4696 0.00138368 0)
(25.3851 0.0012256 0)
(25.3125 0.00109238 0)
(25.2496 0.00097963 0)
(25.1951 0.000883847 0)
(25.1473 0.000800972 0)
(25.1056 0.000729367 0)
(25.0687 0.000666738 0)
(25.0362 0.000611907 0)
(25.0072 0.000563446 0)
(24.9815 0.000519209 0)
(24.9585 0.000482733 0)
(24.9379 0.00044964 0)
(24.9194 0.000417984 0)
(24.9028 0.000389739 0)
(24.8878 0.000364946 0)
(24.8742 0.000341532 0)
(24.862 0.000320964 0)
(24.8509 0.000301274 0)
(24.8408 0.000283549 0)
(24.8316 0.000267279 0)
(24.8233 0.000251842 0)
(24.8158 0.000236778 0)
(24.8089 0.000222417 0)
(24.8027 0.000208656 0)
(24.7971 0.000193505 0)
(24.7921 0.00017754 0)
(24.7877 0.000159977 0)
(24.7839 0.000140844 0)
(24.7807 0.000118151 0)
(24.7782 9.16329e-05 0)
(24.7763 6.03399e-05 0)
(24.7753 2.24134e-05 0)
(24.775 -2.36092e-05 0)
(24.7758 -7.89623e-05 0)
(24.7776 -0.000146356 0)
(24.7807 -0.000229135 0)
(24.7852 -0.000329839 0)
(24.7913 -0.000449804 0)
(24.7992 -0.00059501 0)
(24.8093 -0.000766741 0)
(24.8217 -0.000972703 0)
(24.8368 -0.00121571 0)
(24.8548 -0.00150371 0)
(24.8763 -0.00183998 0)
(24.9014 -0.00223758 0)
(24.9309 -0.00269757 0)
(24.9648 -0.00324194 0)
(25.0043 -0.00387274 0)
(25.0493 -0.00461507 0)
(25.1013 -0.0054855 0)
(25.1504 -0.00634079 0)
(25.1929 -0.00709997 0)
(25.2376 -0.00790211 0)
(25.285 -0.00879567 0)
(25.335 -0.00976995 0)
(25.3877 -0.0108211 0)
(25.443 -0.0119834 0)
(25.5012 -0.0132333 0)
(25.5618 -0.0146403 0)
(25.626 -0.0161174 0)
(25.6921 -0.0178679 0)
(25.7629 -0.0196059 0)
(25.8344 -0.0218743 0)
(25.9134 -0.0238794 0)
(25.9898 -0.0270224 0)
(26.0798 -0.0292281 0)
(26.1598 -0.0339801 0)
(26.2671 -0.0362193 0)
(26.3468 -0.043978 0)
(26.4841 -0.0464855 0)
(26.5547 -0.0589544 0)
(26.7504 -0.0670083 0)
(26.7902 -0.0838963 0)
(27.1141 -0.126341 0)
(27.0503 -0.181063 0)
(30.8127 0.0345203 0)
(29.8619 0.0248611 0)
(29.3227 0.0123306 0)
(28.8556 0.00908362 0)
(28.4107 0.00729234 0)
(28.0349 0.00578296 0)
(27.7304 0.00466411 0)
(27.4804 0.00385817 0)
(27.2743 0.00324022 0)
(27.1032 0.00275621 0)
(26.9603 0.00237603 0)
(26.8394 0.00207028 0)
(26.7369 0.00182053 0)
(26.6489 0.00161454 0)
(26.5732 0.00144059 0)
(26.5075 0.00129308 0)
(26.4504 0.00116757 0)
(26.4003 0.00105884 0)
(26.3564 0.000964768 0)
(26.3176 0.000882471 0)
(26.2834 0.000810254 0)
(26.2528 0.000746508 0)
(26.2257 0.000688296 0)
(26.2015 0.000639994 0)
(26.1797 0.000596417 0)
(26.1601 0.000554768 0)
(26.1425 0.000517441 0)
(26.1267 0.000484686 0)
(26.1123 0.000453766 0)
(26.0993 0.000426531 0)
(26.0875 0.000400614 0)
(26.0769 0.000377208 0)
(26.0671 0.000355689 0)
(26.0583 0.000335228 0)
(26.0502 0.000315307 0)
(26.0429 0.000296304 0)
(26.0363 0.000278115 0)
(26.0303 0.000258182 0)
(26.025 0.000237146 0)
(26.0203 0.000214037 0)
(26.0162 0.000188851 0)
(26.0127 0.000159051 0)
(26.0099 0.00012419 0)
(26.0079 8.30587e-05 0)
(26.0066 3.32661e-05 0)
(26.0063 -2.71301e-05 0)
(26.0069 -9.98078e-05 0)
(26.0086 -0.000188132 0)
(26.0117 -0.000296525 0)
(26.0161 -0.000428463 0)
(26.0223 -0.00058577 0)
(26.0303 -0.000775904 0)
(26.0405 -0.00100083 0)
(26.053 -0.0012705 0)
(26.0684 -0.00158854 0)
(26.0867 -0.00196545 0)
(26.1086 -0.00240536 0)
(26.1342 -0.0029251 0)
(26.1642 -0.00352641 0)
(26.1988 -0.00423765 0)
(26.239 -0.00506128 0)
(26.2848 -0.00603013 0)
(26.3378 -0.00716393 0)
(26.3877 -0.00827654 0)
(26.431 -0.00926648 0)
(26.4765 -0.010311 0)
(26.5247 -0.0114697 0)
(26.5754 -0.0127338 0)
(26.629 -0.0140962 0)
(26.685 -0.0156016 0)
(26.744 -0.0172161 0)
(26.8054 -0.0190329 0)
(26.8703 -0.0209371 0)
(26.9371 -0.0231877 0)
(27.0084 -0.0254241 0)
(27.0806 -0.0283235 0)
(27.1598 -0.0309023 0)
(27.237 -0.0348837 0)
(27.3267 -0.037735 0)
(27.4077 -0.0436837 0)
(27.5135 -0.0466279 0)
(27.5946 -0.0562163 0)
(27.7285 -0.0595103 0)
(27.8013 -0.0750693 0)
(27.9894 -0.0838637 0)
(28.0335 -0.107291 0)
(28.334 -0.148468 0)
(28.2873 -0.211197 0)
(31.4126 0.0337753 0)
(30.7635 0.0271888 0)
(30.3795 0.0140479 0)
(30.0072 0.0107908 0)
(29.6145 0.00894314 0)
(29.2642 0.00723231 0)
(28.971 0.0059061 0)
(28.725 0.0049275 0)
(28.519 0.00416346 0)
(28.3462 0.00355708 0)
(28.2006 0.00307641 0)
(28.0768 0.00268734 0)
(27.9712 0.00236793 0)
(27.8803 0.00210338 0)
(27.8017 0.00187939 0)
(27.7334 0.00168891 0)
(27.6739 0.00152655 0)
(27.6216 0.00138565 0)
(27.5757 0.00126353 0)
(27.535 0.00115665 0)
(27.4991 0.00106261 0)
(27.467 0.000979683 0)
(27.4385 0.000903935 0)
(27.413 0.000840661 0)
(27.3901 0.000783869 0)
(27.3694 0.000729659 0)
(27.3508 0.000680843 0)
(27.334 0.000638003 0)
(27.3188 0.000597584 0)
(27.3051 0.000561884 0)
(27.2926 0.000528115 0)
(27.2813 0.000497531 0)
(27.2709 0.000469359 0)
(27.2615 0.000442504 0)
(27.2529 0.000416431 0)
(27.2452 0.000391543 0)
(27.2381 0.000367738 0)
(27.2317 0.000341798 0)
(27.226 0.000314396 0)
(27.221 0.000284343 0)
(27.2165 0.00025159 0)
(27.2128 0.000212942 0)
(27.2097 0.0001677 0)
(27.2074 0.000114336 0)
(27.206 4.9816e-05 0)
(27.2054 -2.83511e-05 0)
(27.2059 -0.000122474 0)
(27.2075 -0.000236717 0)
(27.2104 -0.00037673 0)
(27.2148 -0.000547111 0)
(27.2209 -0.000750475 0)
(27.2289 -0.000995988 0)
(27.2391 -0.00128647 0)
(27.2517 -0.00163461 0)
(27.2671 -0.00204498 0)
(27.2856 -0.00253134 0)
(27.3077 -0.00309865 0)
(27.3335 -0.00376839 0)
(27.3639 -0.00454329 0)
(27.3988 -0.00545931 0)
(27.4394 -0.00651938 0)
(27.4856 -0.00776573 0)
(27.5391 -0.0092219 0)
(27.5895 -0.0106485 0)
(27.6331 -0.0119198 0)
(27.679 -0.0132605 0)
(27.7276 -0.0147422 0)
(27.7787 -0.0163585 0)
(27.8325 -0.018099 0)
(27.8889 -0.0200191 0)
(27.9482 -0.0220755 0)
(28.0099 -0.0243857 0)
(28.0749 -0.0268065 0)
(28.1419 -0.0296544 0)
(28.2132 -0.0324943 0)
(28.2856 -0.0361389 0)
(28.3643 -0.0394198 0)
(28.4417 -0.0443721 0)
(28.5304 -0.0480332 0)
(28.6116 -0.0553254 0)
(28.7153 -0.0592029 0)
(28.7973 -0.0707697 0)
(28.9266 -0.0752076 0)
(29.0018 -0.0939362 0)
(29.1795 -0.104127 0)
(29.2299 -0.133622 0)
(29.5033 -0.17467 0)
(29.4704 -0.243379 0)
(31.9824 0.0315423 0)
(31.5989 0.0290202 0)
(31.3615 0.0155348 0)
(31.0899 0.0124721 0)
(30.7606 0.0107151 0)
(30.4459 0.00886611 0)
(30.1716 0.00735035 0)
(29.9351 0.00619771 0)
(29.733 0.0052768 0)
(29.561 0.00453351 0)
(29.4147 0.00393733 0)
(29.2892 0.00345066 0)
(29.1815 0.00304847 0)
(29.0882 0.00271359 0)
(29.0074 0.00242899 0)
(28.9368 0.00218611 0)
(28.8752 0.00197858 0)
(28.8208 0.00179805 0)
(28.773 0.00164123 0)
(28.7305 0.00150389 0)
(28.693 0.00138266 0)
(28.6594 0.00127584 0)
(28.6295 0.00117824 0)
(28.6027 0.00109614 0)
(28.5786 0.00102277 0)
(28.5568 0.000952849 0)
(28.5372 0.000889586 0)
(28.5195 0.000834019 0)
(28.5034 0.000781637 0)
(28.4889 0.000735233 0)
(28.4757 0.0006916 0)
(28.4637 0.000651985 0)
(28.4527 0.000615411 0)
(28.4427 0.000580451 0)
(28.4336 0.000546615 0)
(28.4253 0.000514302 0)
(28.4178 0.00048339 0)
(28.411 0.000449926 0)
(28.4049 0.000414571 0)
(28.3994 0.00037587 0)
(28.3947 0.000333704 0)
(28.3906 0.000284105 0)
(28.3873 0.000226028 0)
(28.3847 0.000157552 0)
(28.383 7.48712e-05 0)
(28.3822 -2.51151e-05 0)
(28.3824 -0.000145572 0)
(28.3838 -0.000291674 0)
(28.3866 -0.00047045 0)
(28.3908 -0.000687814 0)
(28.3968 -0.000947531 0)