/*--------------------------------*- C++ -*----------------------------------*\
| =========                 |                                                 |
| \\      /  F ield         | OpenFOAM: The Open Source CFD Toolbox           |
|  \\    /   O peration     | Version:  2306                                  |
|   \\  /    A nd           | Website:  www.openfoam.com                      |
|    \\/     M anipulation  |                                                 |
\*---------------------------------------------------------------------------*/
FoamFile
{
    version     2.0;
    format      ascii;
    arch        "LSB;label=32;scalar=64";
    class       volVectorField;
    location    "1900";
    object      wallShearStress;
}
// * * * * * * * * * * * * * * * * * * * * * * * * * * * * * * * * * * * * * //

dimensions      [0 2 -2 0 0 0 0];

internalField   uniform (0 0 0);

boundaryField
{
    inlet
    {
        type            calculated;
        value           uniform (0 0 0);
    }
    outlet
    {
        type            calculated;
        value           uniform (0 0 0);
    }
    lowerWallStartup
    {
        type            symmetryPlane;
    }
    upperWallStartup
    {
        type            symmetryPlane;
    }
    upperWall
    {
        type            calculated;
        value           nonuniform List<vector> 
218
(
(-10.9049 0.00880355 0)
(-7.37018 0.000899215 0)
(-6.64983 0.000223362 0)
(-6.27862 0.00012674 0)
(-6.03821 8.55736e-05 0)
(-5.87259 6.17688e-05 0)
(-5.75286 4.70282e-05 0)
(-5.66186 3.73643e-05 0)
(-5.59065 3.04987e-05 0)
(-5.53376 2.5423e-05 0)
(-5.48744 2.15596e-05 0)
(-5.44922 1.85548e-05 0)
(-5.41719 1.61339e-05 0)
(-5.39026 1.41767e-05 0)
(-5.3672 1.25674e-05 0)
(-5.3475 1.1183e-05 0)
(-5.3305 1.00463e-05 0)
(-5.3157 9.04309e-06 0)
(-5.3029 8.20218e-06 0)
(-5.29156 7.46002e-06 0)
(-5.28172 6.81514e-06 0)
(-5.27292 6.25708e-06 0)
(-5.26522 5.74074e-06 0)
(-5.25832 5.31672e-06 0)
(-5.25218 4.90144e-06 0)
(-5.24674 4.54611e-06 0)
(-5.24183 4.25286e-06 0)
(-5.2374 3.98056e-06 0)
(-5.23341 3.70441e-06 0)
(-5.22985 3.46264e-06 0)
(-5.2266 3.25613e-06 0)
(-5.22367 3.05842e-06 0)
(-5.22101 2.88859e-06 0)
(-5.21859 2.726e-06 0)
(-5.21638 2.58279e-06 0)
(-5.21436 2.46829e-06 0)
(-5.21248 2.37162e-06 0)
(-5.21075 2.2974e-06 0)
(-5.20911 2.2607e-06 0)
(-5.20755 2.2336e-06 0)
(-5.20606 2.23173e-06 0)
(-5.2046 2.28101e-06 0)
(-5.20314 2.3756e-06 0)
(-5.20167 2.5435e-06 0)
(-5.2001 2.79043e-06 0)
(-5.19844 3.09941e-06 0)
(-5.19664 3.50738e-06 0)
(-5.19465 4.05512e-06 0)
(-5.1924 4.75652e-06 0)
(-5.18984 5.58003e-06 0)
(-5.18695 6.59734e-06 0)
(-5.18362 7.872e-06 0)
(-5.17979 9.36036e-06 0)
(-5.1754 1.11037e-05 0)
(-5.17039 1.31288e-05 0)
(-5.16469 1.54853e-05 0)
(-5.1582 1.81616e-05 0)
(-5.1509 2.11897e-05 0)
(-5.14269 2.45477e-05 0)
(-5.13359 2.82784e-05 0)
(-5.12345 3.23227e-05 0)
(-5.11241 3.67597e-05 0)
(-5.1002 4.16236e-05 0)
(-5.08923 4.57525e-05 0)
(-5.08019 4.88224e-05 0)
(-5.07106 5.22432e-05 0)
(-5.06177 5.56786e-05 0)
(-5.05238 5.89857e-05 0)
(-5.04294 6.22894e-05 0)
(-5.03346 6.54776e-05 0)
(-5.02403 6.86553e-05 0)
(-5.01461 7.16693e-05 0)
(-5.0053 7.46865e-05 0)
(-4.99606 7.74907e-05 0)
(-4.98698 8.03162e-05 0)
(-4.97802 8.28982e-05 0)
(-4.96926 8.55235e-05 0)
(-4.96066 8.78694e-05 0)
(-4.95225 9.0305e-05 0)
(-4.94411 9.23865e-05 0)
(-4.93603 9.46512e-05 0)
(-4.9285 9.63434e-05 0)
(-4.92062 9.87818e-05 0)
(-4.91398 9.97289e-05 0)
(-4.90587 0.000102597 0)
(-4.90085 0.000103976 0)
(-4.8913 0.000107735 0)
(-4.8893 0.000152863 0)
(-4.88042 0.000212497 -1.249e-20)
(-4.87324 0.000225455 0)
(-4.86745 0.000231442 1.23794e-20)
(-4.86125 0.000233284 -1.23243e-20)
(-4.85494 0.000233076 0)
(-4.84861 0.000232656 -1.22095e-20)
(-4.84222 0.000233261 0)
(-4.83577 0.000232995 0)
(-4.82923 0.000233506 0)
(-4.82266 0.00023328 0)
(-4.81599 0.000233673 1.19004e-20)
(-4.80929 0.000233945 0)
(-4.80248 0.000233654 -1.17679e-20)
(-4.79566 0.000234016 0)
(-4.78874 0.000233386 -1.16303e-20)
(-4.78181 0.000233955 1.15596e-20)
(-4.77478 0.000233416 0)
(-4.76772 0.000233765 1.14146e-20)
(-4.76058 0.000233379 0)
(-4.75344 0.000232768 -1.12648e-20)
(-4.74621 0.000233235 0)
(-4.73896 0.000232415 0)
(-4.73164 0.000232669 0)
(-4.7243 0.000231794 0)
(-4.7169 0.000231912 0)
(-4.70949 0.00023088 0)
(-4.70202 0.000230878 0)
(-4.69453 0.000230383 1.06191e-20)
(-4.68701 0.000229357 -1.05335e-20)
(-4.67947 0.000229386 1.04468e-20)
(-4.67188 0.000228207 -1.03591e-20)
(-4.6643 0.000228075 0)
(-4.65668 0.000226752 -1.01808e-20)
(-4.64906 0.000226577 0)
(-4.64141 0.000225219 -9.99875e-21)
(-4.63376 0.000224823 0)
(-4.6261 0.000223888 0)
(-4.61844 0.000222527 -9.719e-21)
(-4.61078 0.000221932 0)
(-4.60313 0.000220326 -9.5284e-21)
(-4.59548 0.000219751 0)
(-4.58785 0.000218081 -9.33477e-21)
(-4.58023 0.000217456 0)
(-4.57264 0.000215746 -9.13834e-21)
(-4.56504 0.000214994 0)
(-4.55748 0.000213696 0)
(-4.54993 0.000211847 -8.83903e-21)
(-4.54243 0.000211138 0)
(-4.53494 0.000209176 -8.63674e-21)
(-4.5275 0.000208428 0)
(-4.52008 0.000206303 -8.43252e-21)
(-4.51271 0.000205561 0)
(-4.50536 0.000203518 -8.22668e-21)
(-4.49807 0.000202454 0)
(-4.4908 0.000200844 0)
(-4.48362 0.00019889 -7.91537e-21)
(-4.47645 0.000197769 0)
(-4.46938 0.00019558 -7.70652e-21)
(-4.46232 0.000194374 0)
(-4.45538 0.000192297 -7.49695e-21)
(-4.44842 0.000190977 0)
(-4.44162 0.000189115 0)
(-4.43475 0.0001873 -7.18182e-21)
(-4.42814 0.000186412 -7.07663e-21)
(-4.42132 0.000183167 0)
(-4.41496 0.000183336 -6.86639e-21)
(-4.40814 0.000179319 0)
(-4.40211 0.000179795 -6.65642e-21)
(-4.39524 0.00017606 0)
(-4.38953 0.000176091 -6.447e-21)
(-4.38267 0.000172821 0)
(-4.37723 0.000172193 -6.23834e-21)
(-4.37043 0.000169977 -6.13463e-21)
(-4.36522 0.00016795 0)
(-4.35853 0.000166582 -5.92755e-21)
(-4.35354 0.000164183 0)
(-4.347 0.000163046 -5.72176e-21)
(-4.34219 0.000160515 0)
(-4.33582 0.000159392 0)
(-4.33118 0.00015729 -5.41574e-21)
(-4.325 0.000155368 5.3149e-21)
(-4.32051 0.000154061 -5.21411e-21)
(-4.31451 0.000152038 5.11424e-21)
(-4.31018 0.000150376 0)
(-4.30438 0.000148639 0)
(-4.30021 0.000146864 0)
(-4.29462 0.000144886 4.71923e-21)
(-4.29062 0.00014338 0)
(-4.2852 0.000141872 0)
(-4.28142 0.000139694 0)
(-4.2761 0.000138363 0)
(-4.27265 0.000136488 0)
(-4.26729 0.000135019 0)
(-4.26434 0.000133289 0)
(-4.25865 0.000131801 -3.9592e-21)
(-4.25664 0.000131455 3.86571e-21)
(-4.24975 9.70675e-05 0)
(-4.24877 9.86876e-05 0)
(-4.24547 8.72226e-05 -9.54572e-22)
(-4.2415 7.9487e-05 8.11822e-22)
(-4.23731 7.86782e-05 1.37493e-21)
(-4.23256 7.87856e-05 1.15832e-21)
(-4.22723 7.81353e-05 1.93966e-21)
(-4.22135 7.74465e-05 1.61202e-21)
(-4.21485 7.72032e-05 1.3277e-21)
(-4.20781 7.68165e-05 0)
(-4.2002 7.63373e-05 1.7375e-21)
(-4.19217 7.71137e-05 0)
(-4.18372 7.73781e-05 -2.11494e-21)
(-4.17512 7.93051e-05 0)
(-4.16647 8.05236e-05 0)
(-4.15836 8.33737e-05 0)
(-4.15065 8.69611e-05 0)
(-4.14446 9.18034e-05 0)
(-4.13947 9.60403e-05 0)
(-4.1371 0.000101115 -1.23502e-21)
(-4.13692 0.000104738 0)
(-4.13975 0.000106915 5.23836e-21)
(-4.14615 0.000104724 -5.8418e-21)
(-4.15433 0.000100136 5.96201e-21)
(-4.168 8.206e-05 0)
(-4.17979 6.55421e-05 1.07004e-20)
(-4.20086 1.05235e-05 0)
(-4.21104 -8.37204e-06 0)
(-4.24185 -0.000175925 0)
(-4.24341 -0.000124591 0)
(-4.2942 -0.000722173 0)
(-4.27183 -0.00014726 0)
(-4.3921 -0.00332421 -3.61291e-20)
(-4.05771 -0.00144844 0)
)
;
    }
    lowerWall
    {
        type            calculated;
        value           nonuniform List<vector> 
266
(
(-10.9848 -0.00913825 0)
(-7.41427 -0.000946286 0)
(-6.68024 -0.000236093 0)
(-6.30658 -0.000133365 0)
(-6.06432 -9.03322e-05 0)
(-5.89686 -6.54295e-05 0)
(-5.77554 -4.99476e-05 0)
(-5.6831 -3.97561e-05 0)
(-5.61071 -3.25067e-05 0)
(-5.55272 -2.71248e-05 0)
(-5.50557 -2.30428e-05 0)
(-5.46645 -1.98434e-05 0)
(-5.43383 -1.72861e-05 0)
(-5.40614 -1.5213e-05 0)
(-5.38261 -1.34818e-05 0)
(-5.36235 -1.20296e-05 0)
(-5.34492 -1.08078e-05 0)
(-5.3297 -9.75608e-06 0)
(-5.31649 -8.85468e-06 0)
(-5.30482 -8.06771e-06 0)
(-5.29463 -7.38527e-06 0)
(-5.28553 -6.77985e-06 0)
(-5.27756 -6.22807e-06 0)
(-5.27041 -5.79017e-06 0)
(-5.26401 -5.37965e-06 0)
(-5.25828 -4.98333e-06 0)
(-5.25318 -4.6381e-06 0)
(-5.24856 -4.33445e-06 0)
(-5.24442 -4.04617e-06 0)
(-5.24069 -3.79927e-06 0)
(-5.23729 -3.5555e-06 0)
(-5.23425 -3.34259e-06 0)
(-5.23147 -3.1489e-06 0)
(-5.22897 -2.96659e-06 0)
(-5.22667 -2.7858e-06 0)
(-5.22463 -2.61726e-06 0)
(-5.22275 -2.4577e-06 0)
(-5.22107 -2.27728e-06 0)
(-5.21958 -2.09413e-06 0)
(-5.21827 -1.89402e-06 0)
(-5.21714 -1.68163e-06 0)
(-5.21619 -1.43127e-06 0)
(-5.21545 -1.14545e-06 0)
(-5.21491 -8.09337e-07 0)
(-5.2146 -4.07402e-07 0)
(-5.21454 7.66363e-08 0)
(-5.21477 6.72576e-07 0)
(-5.21533 1.37886e-06 0)
(-5.21624 2.23469e-06 0)
(-5.21758 3.29882e-06 0)
(-5.2194 4.54607e-06 0)
(-5.22176 6.07924e-06 0)
(-5.22476 7.88152e-06 0)
(-5.22842 1.00272e-05 0)
(-5.23292 1.25919e-05 0)
(-5.23828 1.56254e-05 0)
(-5.24469 1.91545e-05 0)
(-5.25216 2.33488e-05 0)
(-5.26099 2.82072e-05 0)
(-5.27113 3.39446e-05 0)
(-5.28299 4.07099e-05 0)
(-5.29648 4.85774e-05 0)
(-5.31217 5.81391e-05 0)
(-5.32709 6.75524e-05 0)
(-5.34001 7.54602e-05 0)
(-5.35362 8.45648e-05 0)
(-5.36816 9.45326e-05 0)
(-5.38355 0.000105216 0)
(-5.39983 0.000117046 0)
(-5.41701 0.000129931 0)
(-5.43515 0.000144545 0)
(-5.45431 0.00016018 0)
(-5.47448 0.000178037 0)
(-5.49574 0.000197399 0)
(-5.51829 0.000219985 0)
(-5.54185 0.000244073 0)
(-5.56732 0.000273795 0)
(-5.59335 0.000304607 0)
(-5.62298 0.000346364 0)
(-5.65133 0.000386851 0)
(-5.68796 0.00045033 0)
(-5.71714 0.000512039 0)
(-5.76864 0.000623783 0)
(-5.79402 0.000684842 0)
(-5.87366 0.00113545 0)
(-5.91065 0.000965476 0)
(-6.01191 0.00211317 0)
(-6.13727 0.0714411 0)
(179.232 -52.6474 0)
(-0.00226047 0.0110912 0)
(0.00346253 0.00459401 -1.00797e-25)
(0.00109338 0.0033703 -4.56671e-25)
(0.00220058 0.00265658 -0)
(0.00335954 0.00188412 0)
(0.00237888 0.0012595 0)
(0.00239267 0.000670053 0)
(0.00263381 7.19229e-05 0)
(0.00268328 -0.000521674 -1.86486e-22)
(0.00256137 -0.00107916 2.68656e-22)
(0.0023654 -0.00157913 -7.65533e-22)
(0.00211199 -0.00200724 1.0949e-21)
(0.00177367 -0.00234622 0)
(0.00133007 -0.00256981 4.72854e-21)
(0.000790479 -0.00264215 -7.20962e-21)
(0.000204597 -0.00252317 0)
(-0.00032061 -0.00218373 0)
(-0.000586612 -0.0016317 -0)
(-0.000210984 -0.000961398 2.3366e-19)
(0.0015783 -0.000640618 -4.08743e-19)
(0.00547087 -0.00240501 1.13111e-18)
(0.00977316 -0.00805257 -1.00591e-18)
(0.0117006 -0.0163962 0)
(0.0113753 -0.024265 1.14534e-18)
(0.0105303 -0.0306038 -1.03532e-18)
(0.00974711 -0.0359235 0)
(0.00922757 -0.0401363 0)
(0.00912299 -0.0435716 0)
(0.00947853 -0.0464818 0)
(0.0102775 -0.0490334 0)
(0.0114484 -0.0513302 0)
(0.0129013 -0.0534127 -8.37325e-19)
(0.0145178 -0.0553064 -1.10889e-22)
(0.0161904 -0.0570205 8.08744e-19)
(0.0177778 -0.0585676 0)
(0.018946 -0.0610005 0)
(0.0180228 -0.0721314 0)
(0.00817613 -0.110652 0)
(-0.0207725 -0.180249 0)
(-0.0640284 -0.240007 1.48801e-19)
(-0.119742 -0.302104 -1.22549e-19)
(-0.179425 -0.347487 -0)
(-0.238441 -0.377297 0)
(-0.295053 -0.394434 0)
(-0.348607 -0.402235 -9.55377e-20)
(-0.384681 -0.403935 1.07602e-19)
(-0.404398 -0.473353 0)
(-7.00978 -12.6968 0)
(0.345762 0.0118171 -1.60623e-22)
(0.000223812 -0.000238645 -0)
(-0.0262942 2.6626e-05 -3.53783e-22)
(0.00386802 0.00022211 0)
(0.0404833 0.000298085 0)
(0.103753 -0.000856659 0)
(0.122592 -0.000562288 0)
(0.173773 -0.000268508 0)
(0.232694 -0.000306607 -2.48682e-22)
(0.300273 -0.000346234 0)
(0.376304 -0.000385667 0)
(0.460711 -0.000424282 0)
(0.553033 -0.00046157 0)
(0.652802 -0.000497289 0)
(0.759377 -0.00053122 0)
(0.872071 -0.000563184 0)
(0.990095 -0.00059299 0)
(1.1126 -0.000620411 0)
(1.23866 -0.000645205 0)
(1.36728 -0.000667106 2.49161e-22)
(1.49741 -0.000685846 0)
(1.62796 -0.000701173 2.47542e-22)
(1.7578 -0.000712853 0)
(1.88575 -0.000720689 2.44661e-22)
(2.01067 -0.000724541 0)
(2.13139 -0.000724322 2.40264e-22)
(2.24679 -0.000720017 0)
(2.35576 -0.000711664 0)
(2.45727 -0.000699377 0)
(2.55036 -0.000683323 2.26252e-22)
(2.63413 -0.00066368 2.2161e-22)
(2.70778 -0.000640693 2.16517e-22)
(2.7706 -0.000614615 2.10985e-22)
(2.82198 -0.000585746 2.05033e-22)
(2.86143 -0.000554333 0)
(2.88854 -0.000520677 -0)
(2.90304 -0.000484948 1.84899e-22)
(2.90473 -0.000447526 1.77531e-22)
(2.89353 -0.000408484 1.69895e-22)
(2.86945 -0.00036801 1.62029e-22)
(2.83259 -0.000326248 1.53975e-22)
(2.78314 -0.000283114 1.45775e-22)
(2.72133 -0.000238283 0)
(2.64742 -0.000192021 1.291e-22)
(2.56184 -0.000143809 1.20709e-22)
(2.46488 -9.3276e-05 1.12336e-22)
(2.35703 -4.02181e-05 1.04019e-22)
(2.2387 1.59172e-05 9.57966e-23)
(2.11045 7.54074e-05 8.77029e-23)
(1.97273 0.000139119 0)
(1.82604 0.000207654 7.20272e-23)
(1.67074 0.000282139 6.45004e-23)
(1.50726 0.000362964 5.72164e-23)
(1.33579 0.000450718 5.01935e-23)
(1.15706 0.000545098 4.34587e-23)
(0.970786 0.000647147 3.7015e-23)
(0.778538 0.00075567 0)
(0.578195 0.000872474 2.50824e-23)
(0.37438 0.00178805 0)
(0.204137 -7.79653e-05 0)
(-0.0320953 0.00051471 0)
(-0.251829 0.00121577 -5.36326e-24)
(-0.443155 0.000861144 -0)
(-0.627901 0.000758437 -0)
(-0.802864 0.000667114 0)
(-0.970297 0.000586201 -0)
(-1.12951 0.000515581 0)
(-1.28137 0.000453877 -0)
(-1.4259 0.000400666 2.00184e-23)
(-1.56358 0.000354817 0)
(-1.69463 0.000315604 0)
(-1.81939 0.000282094 -0)
(-1.93812 0.00025359 3.02946e-23)
(-2.05112 0.000229361 0)
(-2.15863 0.000208809 0)
(-2.26091 0.000191341 -0)
(-2.35821 0.00017651 0)
(-2.45075 0.000163825 -0)
(-2.53876 0.000153079 -0)
(-2.62243 0.000143726 4.19911e-23)
(-2.70202 0.000135896 0)
(-2.77761 0.000128705 -0)
(-2.84959 0.00012306 4.50612e-23)
(-2.91781 0.000117042 -0)
(-2.98295 0.000113383 4.66023e-23)
(-3.04438 0.000107376 0)
(-3.10348 0.000106312 0)
(-3.15853 9.83269e-05 -4.8257e-23)
(-3.21255 0.000102065 -0)
(-3.26124 8.81754e-05 4.89917e-23)
(-3.31158 0.000101449 0)
(-3.35293 7.61479e-05 -0)
(-3.40298 0.000102175 0)
(-3.43186 5.63955e-05 0)
(-3.48882 0.000119002 -0)
(-3.50242 3.58662e-05 4.95586e-23)
(-3.53977 0.000201056 0)
(-3.58188 9.44649e-05 -0)
(-3.60467 0.000151485 5.90455e-21)
(-3.64536 0.000120642 1.02169e-20)
(-3.67843 0.000126673 0)
(-3.71914 0.000121012 0)
(-3.75886 0.000121205 0)
(-3.80185 0.000120619 -0)
(-3.84504 0.000121673 0)
(-3.88922 0.000124073 -1.69379e-20)
(-3.93264 0.000128152 0)
(-3.97522 0.00013415 -2.45229e-20)
(-4.01511 0.000142214 2.06891e-20)
(-4.05274 0.000152004 0)
(-4.08527 0.000163604 0)
(-4.11517 0.000175785 0)
(-4.13728 0.000188585 3.91452e-20)
(-4.15839 0.000200213 -3.19128e-20)
(-4.16837 0.000210669 0)
(-4.18201 0.000219087 4.15081e-20)
(-4.17943 0.000224506 0)
(-4.18906 0.000230598 5.29797e-20)
(-4.17393 0.000230988 0)
(-4.18417 0.000241962 0)
(-4.15631 0.000237941 0)
(-4.1705 0.0002674 0)
(-4.12949 0.000253026 0)
(-4.14654 0.000320262 1.07161e-19)
(-4.09262 0.000272114 -5.71143e-20)
(-4.10072 0.000407792 0)
(-4.0458 0.00028014 2.00555e-20)
(-3.99607 0.000514919 0)
(-4.02019 0.000109618 0)
)
;
    }
    front
    {
        type            empty;
    }
    back
    {
        type            empty;
    }
}


// ************************************************************************* //
