/*--------------------------------*- C++ -*----------------------------------*\
| =========                 |                                                 |
| \\      /  F ield         | OpenFOAM: The Open Source CFD Toolbox           |
|  \\    /   O peration     | Version:  2306                                  |
|   \\  /    A nd           | Website:  www.openfoam.com                      |
|    \\/     M anipulation  |                                                 |
\*---------------------------------------------------------------------------*/
FoamFile
{
    version     2.0;
    format      ascii;
    arch        "LSB;label=32;scalar=64";
    class       volScalarField;
    location    "2000";
    object      cp;
}
// * * * * * * * * * * * * * * * * * * * * * * * * * * * * * * * * * * * * * //

dimensions      [0 0 0 0 0 0 0];

internalField   nonuniform List<scalar> 
20540
(
0.208102
-0.00589819
0.206788
-0.0185697
0.20588
-0.026489
0.205549
-0.0294843
0.205402
-0.0307544
0.20529
-0.0315887
0.205201
-0.0322203
0.205135
-0.0326875
0.20509
-0.0330305
0.20506
-0.0332832
0.205041
-0.0334652
0.205028
-0.0335864
0.205018
-0.0336513
0.205007
-0.0336615
0.20499
-0.0336168
0.204964
-0.0335155
0.204923
-0.0333557
0.204867
-0.0331358
0.204793
-0.0328554
0.204699
-0.0325151
0.204585
-0.0321161
0.20446
-0.0316631
0.204339
-0.0311701
0.204201
-0.0306508
0.203935
-0.030054
0.203432
-0.0292045
0.202802
-0.0280037
0.202141
-0.0267161
0.201414
-0.025598
0.20062
-0.0245721
0.200005
-0.0238214
0.199714
-0.0235088
0.199712
-0.0235528
0.199995
-0.0239538
0.200582
-0.0247798
0.201335
-0.0258401
0.202034
-0.0269647
0.202678
-0.0282495
0.203307
-0.0294741
0.203831
-0.0303685
0.204126
-0.0310023
0.204288
-0.0315444
0.204428
-0.0320529
0.20457
-0.0325195
0.204704
-0.0329324
0.204818
-0.033288
0.204911
-0.0335855
0.204985
-0.0338249
0.20504
-0.0340068
0.205078
-0.0341332
0.205103
-0.0342065
0.205119
-0.034229
0.205131
-0.0342018
0.205143
-0.0341248
0.205159
-0.033996
0.205182
-0.0338102
0.205217
-0.0335572
0.205268
-0.0332174
0.20534
-0.032757
0.205438
-0.0321357
0.205558
-0.0313104
0.205717
-0.0300432
0.206064
-0.0270826
0.206999
-0.0193965
0.208346
-0.00724315
-0.0897608
-0.0560513
-0.0623083
-0.0654788
-0.0676569
-0.0705813
-0.0736897
-0.0767158
-0.0797063
-0.0826483
-0.0855162
-0.0883013
-0.0910017
-0.0936151
-0.0961413
-0.098581
-0.100936
-0.103207
-0.105398
-0.107511
-0.109547
-0.11151
-0.113401
-0.115224
-0.116981
-0.118674
-0.120306
-0.121878
-0.123394
-0.124854
-0.126262
-0.127618
-0.128926
-0.130187
-0.131403
-0.132577
-0.133709
-0.134803
-0.13586
-0.136882
-0.137873
-0.138834
-0.139768
-0.140679
-0.141569
-0.142443
-0.143305
-0.144158
-0.145008
-0.14586
-0.14672
-0.147594
-0.148489
-0.149412
-0.150372
-0.151378
-0.152438
-0.153562
-0.154761
-0.156046
-0.157427
-0.158924
-0.160542
-0.16202
-0.163255
-0.164519
-0.165821
-0.167161
-0.168542
-0.16996
-0.171419
-0.172917
-0.174457
-0.176042
-0.177669
-0.179353
-0.181074
-0.182871
-0.184684
-0.186621
-0.188529
-0.190672
-0.19269
-0.19522
-0.197401
-0.200718
-0.203537
-0.208793
-0.0897646
-0.0560513
-0.0623081
-0.0654787
-0.0676568
-0.0705813
-0.0736897
-0.0767158
-0.0797063
-0.0826483
-0.0855162
-0.0883013
-0.0910017
-0.0936151
-0.0961413
-0.0985809
-0.100936
-0.103207
-0.105398
-0.107511
-0.109547
-0.11151
-0.113401
-0.115224
-0.116981
-0.118674
-0.120306
-0.121878
-0.123394
-0.124854
-0.126262
-0.127618
-0.128926
-0.130187
-0.131403
-0.132577
-0.133709
-0.134803
-0.13586
-0.136882
-0.137873
-0.138834
-0.139768
-0.140679
-0.141569
-0.142443
-0.143305
-0.144158
-0.145008
-0.14586
-0.14672
-0.147594
-0.148489
-0.149412
-0.150372
-0.151378
-0.152438
-0.153562
-0.154761
-0.156046
-0.157427
-0.158924
-0.160542
-0.16202
-0.163255
-0.164519
-0.165821
-0.167162
-0.168542
-0.16996
-0.171419
-0.172917
-0.174457
-0.176042
-0.17767
-0.179354
-0.181074
-0.182871
-0.184685
-0.186621
-0.18853
-0.190672
-0.192691
-0.195221
-0.197402
-0.200719
-0.203541
-0.208746
-0.0897788
-0.0560516
-0.0623077
-0.0654783
-0.0676566
-0.0705811
-0.0736895
-0.0767157
-0.0797062
-0.0826482
-0.0855162
-0.0883012
-0.0910017
-0.093615
-0.0961413
-0.0985809
-0.100936
-0.103207
-0.105398
-0.107511
-0.109547
-0.11151
-0.113401
-0.115224
-0.116981
-0.118674
-0.120306
-0.121878
-0.123394
-0.124854
-0.126262
-0.127618
-0.128926
-0.130187
-0.131403
-0.132577
-0.133709
-0.134803
-0.13586
-0.136882
-0.137873
-0.138834
-0.139768
-0.140679
-0.141569
-0.142443
-0.143305
-0.144158
-0.145008
-0.14586
-0.14672
-0.147594
-0.148489
-0.149412
-0.150373
-0.151378
-0.152438
-0.153562
-0.154761
-0.156046
-0.157427
-0.158924
-0.160542
-0.162021
-0.163255
-0.164519
-0.165822
-0.167162
-0.168543
-0.169961
-0.171419
-0.172918
-0.174457
-0.176043
-0.17767
-0.179354
-0.181075
-0.182872
-0.184686
-0.186622
-0.188531
-0.190674
-0.192693
-0.195223
-0.197405
-0.200723
-0.203542
-0.208642
-0.0898032
-0.056052
-0.062307
-0.0654777
-0.0676561
-0.0705808
-0.0736893
-0.0767154
-0.0797061
-0.0826481
-0.0855161
-0.0883011
-0.0910016
-0.093615
-0.0961412
-0.0985809
-0.100936
-0.103207
-0.105398
-0.10751
-0.109547
-0.11151
-0.113401
-0.115224
-0.116981
-0.118674
-0.120306
-0.121878
-0.123394
-0.124854
-0.126262
-0.127618
-0.128926
-0.130187
-0.131403
-0.132577
-0.133709
-0.134803
-0.13586
-0.136882
-0.137873
-0.138834
-0.139768
-0.140679
-0.141569
-0.142443
-0.143305
-0.144158
-0.145008
-0.14586
-0.14672
-0.147594
-0.148489
-0.149412
-0.150373
-0.151378
-0.152438
-0.153563
-0.154761
-0.156046
-0.157428
-0.158924
-0.160543
-0.162021
-0.163255
-0.164519
-0.165822
-0.167163
-0.168543
-0.169961
-0.17142
-0.172919
-0.174458
-0.176044
-0.177672
-0.179356
-0.181076
-0.182874
-0.184688
-0.186625
-0.188534
-0.190677
-0.192696
-0.195228
-0.19741
-0.200729
-0.203537
-0.208548
-0.0898442
-0.0560533
-0.0623063
-0.0654769
-0.0676554
-0.0705802
-0.0736888
-0.0767151
-0.0797058
-0.0826478
-0.0855159
-0.088301
-0.0910014
-0.0936148
-0.0961411
-0.0985808
-0.100936
-0.103207
-0.105398
-0.10751
-0.109547
-0.11151
-0.113401
-0.115224
-0.116981
-0.118674
-0.120306
-0.121878
-0.123394
-0.124854
-0.126261
-0.127618
-0.128926
-0.130187
-0.131403
-0.132577
-0.133709
-0.134803
-0.13586
-0.136882
-0.137873
-0.138834
-0.139768
-0.140679
-0.141569
-0.142443
-0.143305
-0.144158
-0.145008
-0.14586
-0.14672
-0.147594
-0.148489
-0.149412
-0.150373
-0.151378
-0.152438
-0.153563
-0.154761
-0.156046
-0.157428
-0.158925
-0.160543
-0.162022
-0.163256
-0.16452
-0.165823
-0.167164
-0.168544
-0.169963
-0.171422
-0.17292
-0.17446
-0.176046
-0.177673
-0.179358
-0.181079
-0.182877
-0.184691
-0.186628
-0.188537
-0.190682
-0.192701
-0.195234
-0.197416
-0.200735
-0.203521
-0.208466
-0.0899092
-0.0560568
-0.0623061
-0.065476
-0.0676546
-0.0705795
-0.0736883
-0.0767146
-0.0797054
-0.0826475
-0.0855156
-0.0883007
-0.0910012
-0.0936147
-0.0961409
-0.0985806
-0.100935
-0.103207
-0.105398
-0.10751
-0.109547
-0.11151
-0.113401
-0.115224
-0.116981
-0.118674
-0.120306
-0.121878
-0.123393
-0.124854
-0.126261
-0.127618
-0.128926
-0.130187
-0.131403
-0.132577
-0.133709
-0.134803
-0.13586
-0.136882
-0.137873
-0.138834
-0.139768
-0.140679
-0.141569
-0.142443
-0.143305
-0.144158
-0.145008
-0.14586
-0.14672
-0.147594
-0.148489
-0.149413
-0.150373
-0.151379
-0.152439
-0.153563
-0.154762
-0.156047
-0.157429
-0.158925
-0.160544
-0.162023
-0.163257
-0.164521
-0.165824
-0.167165
-0.168546
-0.169964
-0.171423
-0.172922
-0.174462
-0.176048
-0.177676
-0.179361
-0.181082
-0.18288
-0.184694
-0.186633
-0.188541
-0.190687
-0.192706
-0.195241
-0.197422
-0.200739
-0.203488
-0.208371
-0.0900038
-0.0560635
-0.062307
-0.0654754
-0.0676536
-0.0705787
-0.0736876
-0.076714
-0.0797049
-0.0826471
-0.0855152
-0.0883004
-0.091001
-0.0936144
-0.0961407
-0.0985805
-0.100935
-0.103207
-0.105398
-0.10751
-0.109547
-0.111509
-0.113401
-0.115224
-0.116981
-0.118674
-0.120306
-0.121878
-0.123393
-0.124854
-0.126261
-0.127618
-0.128926
-0.130187
-0.131403
-0.132577
-0.133709
-0.134803
-0.13586
-0.136882
-0.137873
-0.138834
-0.139768
-0.140679
-0.14157
-0.142443
-0.143305
-0.144158
-0.145008
-0.14586
-0.14672
-0.147594
-0.148489
-0.149413
-0.150373
-0.151379
-0.152439
-0.153563
-0.154762
-0.156047
-0.157429
-0.158926
-0.160545
-0.162024
-0.163258
-0.164523
-0.165826
-0.167166
-0.168548
-0.169966
-0.171425
-0.172924
-0.174465
-0.176051
-0.177679
-0.179364
-0.181085
-0.182884
-0.184698
-0.186637
-0.188546
-0.190693
-0.19271
-0.195247
-0.197425
-0.200738
-0.203434
-0.208246
-0.0901325
-0.0560751
-0.0623096
-0.0654753
-0.0676528
-0.0705778
-0.0736867
-0.0767133
-0.0797043
-0.0826466
-0.0855148
-0.0883
-0.0910006
-0.0936142
-0.0961405
-0.0985802
-0.100935
-0.103207
-0.105398
-0.10751
-0.109547
-0.111509
-0.113401
-0.115224
-0.116981
-0.118674
-0.120306
-0.121878
-0.123393
-0.124854
-0.126261
-0.127618
-0.128926
-0.130187
-0.131403
-0.132577
-0.133709
-0.134803
-0.13586
-0.136882
-0.137873
-0.138834
-0.139768
-0.140679
-0.14157
-0.142443
-0.143305
-0.144158
-0.145008
-0.14586
-0.14672
-0.147594
-0.148489
-0.149413
-0.150373
-0.151379
-0.152439
-0.153564
-0.154763
-0.156048
-0.15743
-0.158927
-0.160546
-0.162025
-0.16326
-0.164524
-0.165827
-0.167168
-0.16855
-0.169968
-0.171428
-0.172927
-0.174467
-0.176054
-0.177682
-0.179368
-0.181089
-0.182888
-0.184702
-0.186642
-0.18855
-0.190698
-0.192714
-0.19525
-0.197425
-0.200729
-0.203354
-0.208078
-0.0903002
-0.0560931
-0.0623148
-0.0654762
-0.0676523
-0.0705769
-0.0736858
-0.0767125
-0.0797035
-0.0826459
-0.0855142
-0.0882996
-0.0910002
-0.0936138
-0.0961401
-0.0985799
-0.100935
-0.103207
-0.105398
-0.10751
-0.109546
-0.111509
-0.113401
-0.115224
-0.116981
-0.118674
-0.120306
-0.121878
-0.123393
-0.124854
-0.126261
-0.127618
-0.128926
-0.130187
-0.131403
-0.132577
-0.133709
-0.134803
-0.13586
-0.136882
-0.137873
-0.138834
-0.139768
-0.140679
-0.14157
-0.142443
-0.143305
-0.144158
-0.145008
-0.14586
-0.14672
-0.147594
-0.148489
-0.149413
-0.150374
-0.151379
-0.15244
-0.153564
-0.154763
-0.156049
-0.157431
-0.158928
-0.160547
-0.162026
-0.163261
-0.164526
-0.165829
-0.16717
-0.168552
-0.169971
-0.17143
-0.17293
-0.17447
-0.176057
-0.177686
-0.179372
-0.181093
-0.182892
-0.184706
-0.186646
-0.188554
-0.190702
-0.192716
-0.195251
-0.197418
-0.200708
-0.203242
-0.207859
-0.0905121
-0.0561194
-0.0623238
-0.0654789
-0.0676524
-0.0705763
-0.073685
-0.0767116
-0.0797027
-0.0826451
-0.0855135
-0.088299
-0.0909997
-0.0936133
-0.0961397
-0.0985796
-0.100935
-0.103206
-0.105397
-0.10751
-0.109546
-0.111509
-0.113401
-0.115224
-0.116981
-0.118674
-0.120306
-0.121878
-0.123393
-0.124854
-0.126261
-0.127618
-0.128926
-0.130187
-0.131403
-0.132577
-0.133709
-0.134803
-0.13586
-0.136882
-0.137873
-0.138834
-0.139768
-0.140679
-0.14157
-0.142443
-0.143305
-0.144158
-0.145008
-0.14586
-0.14672
-0.147594
-0.14849
-0.149414
-0.150374
-0.15138
-0.15244
-0.153565
-0.154764
-0.15605
-0.157432
-0.158929
-0.160548
-0.162028
-0.163263
-0.164528
-0.165831
-0.167172
-0.168554
-0.169973
-0.171433
-0.172933
-0.174473
-0.176061
-0.177689
-0.179375
-0.181096
-0.182896
-0.184709
-0.186649
-0.188555
-0.190704
-0.192715
-0.195245
-0.197401
-0.20067
-0.20309
-0.207577
-0.0907739
-0.056156
-0.0623379
-0.0654842
-0.0676538
-0.0705762
-0.0736843
-0.0767107
-0.0797018
-0.0826443
-0.0855127
-0.0882982
-0.090999
-0.0936127
-0.0961392
-0.0985791
-0.100934
-0.103206
-0.105397
-0.107509
-0.109546
-0.111509
-0.1134
-0.115224
-0.116981
-0.118674
-0.120305
-0.121878
-0.123393
-0.124853
-0.126261
-0.127618
-0.128926
-0.130187
-0.131403
-0.132577
-0.133709
-0.134803
-0.13586
-0.136882
-0.137873
-0.138834
-0.139768
-0.140679
-0.141569
-0.142443
-0.143305
-0.144158
-0.145008
-0.14586
-0.14672
-0.147595
-0.14849
-0.149414
-0.150374
-0.15138
-0.152441
-0.153566
-0.154765
-0.15605
-0.157433
-0.15893
-0.16055
-0.162029
-0.163265
-0.16453
-0.165833
-0.167175
-0.168556
-0.169976
-0.171436
-0.172935
-0.174476
-0.176063
-0.177692
-0.179378
-0.181098
-0.182898
-0.18471
-0.18665
-0.188554
-0.1907
-0.192706
-0.195229
-0.197367
-0.200604
-0.20289
-0.207218
-0.0910899
-0.0562049
-0.0623585
-0.0654932
-0.0676572
-0.0705772
-0.0736841
-0.07671
-0.0797009
-0.0826434
-0.0855119
-0.0882974
-0.0909983
-0.093612
-0.0961386
-0.0985785
-0.100934
-0.103205
-0.105397
-0.107509
-0.109546
-0.111508
-0.1134
-0.115223
-0.11698
-0.118673
-0.120305
-0.121878
-0.123393
-0.124853
-0.126261
-0.127618
-0.128926
-0.130187
-0.131403
-0.132576
-0.133709
-0.134803
-0.13586
-0.136882
-0.137873
-0.138834
-0.139768
-0.140679
-0.141569
-0.142443
-0.143305
-0.144158
-0.145008
-0.14586
-0.14672
-0.147595
-0.14849
-0.149414
-0.150375
-0.151381
-0.152441
-0.153566
-0.154765
-0.156051
-0.157434
-0.158931
-0.160551
-0.162031
-0.163266
-0.164531
-0.165835
-0.167176
-0.168558
-0.169978
-0.171437
-0.172937
-0.174478
-0.176065
-0.177693
-0.179378
-0.181098
-0.182897
-0.184708
-0.186645
-0.188546
-0.190688
-0.192688
-0.195197
-0.197311
-0.200499
-0.202635
-0.206765
-0.0914628
-0.0562685
-0.0623868
-0.0655072
-0.0676635
-0.0705799
-0.073685
-0.0767099
-0.0797003
-0.0826426
-0.085511
-0.0882965
-0.0909974
-0.0936112
-0.0961378
-0.0985778
-0.100933
-0.103205
-0.105396
-0.107508
-0.109545
-0.111508
-0.1134
-0.115223
-0.11698
-0.118673
-0.120305
-0.121877
-0.123393
-0.124853
-0.126261
-0.127617
-0.128925
-0.130187
-0.131403
-0.132576
-0.133709
-0.134803
-0.135859
-0.136882
-0.137873
-0.138834
-0.139768
-0.140679
-0.141569
-0.142443
-0.143305
-0.144158
-0.145008
-0.14586
-0.14672
-0.147595
-0.14849
-0.149414
-0.150375
-0.151381
-0.152442
-0.153567
-0.154766
-0.156052
-0.157435
-0.158932
-0.160552
-0.162032
-0.163267
-0.164532
-0.165836
-0.167177
-0.168559
-0.169978
-0.171438
-0.172937
-0.174477
-0.176064
-0.177691
-0.179376
-0.181094
-0.182891
-0.184699
-0.186633
-0.18853
-0.190664
-0.192653
-0.19514
-0.197221
-0.200338
-0.202318
-0.206205
-0.0918918
-0.0563498
-0.0624238
-0.0655274
-0.0676739
-0.0705853
-0.0736875
-0.0767108
-0.0797004
-0.0826422
-0.0855103
-0.0882958
-0.0909966
-0.0936104
-0.096137
-0.0985771
-0.100932
-0.103204
-0.105395
-0.107508
-0.109545
-0.111507
-0.113399
-0.115223
-0.11698
-0.118673
-0.120305
-0.121877
-0.123392
-0.124853
-0.12626
-0.127617
-0.128925
-0.130186
-0.131403
-0.132576
-0.133709
-0.134802
-0.135859
-0.136882
-0.137872
-0.138833
-0.139768
-0.140679
-0.141569
-0.142443
-0.143305
-0.144158
-0.145008
-0.14586
-0.14672
-0.147595
-0.14849
-0.149414
-0.150375
-0.151381
-0.152442
-0.153567
-0.154766
-0.156052
-0.157435
-0.158932
-0.160552
-0.162032
-0.163267
-0.164532
-0.165835
-0.167176
-0.168557
-0.169977
-0.171435
-0.172934
-0.174474
-0.176059
-0.177685
-0.179368
-0.181083
-0.182877
-0.184681
-0.186608
-0.188498
-0.190619
-0.192595
-0.195048
-0.197088
-0.200101
-0.201931
-0.205526
-0.0923707
-0.0564521
-0.0624705
-0.0655551
-0.0676894
-0.0705942
-0.0736926
-0.0767135
-0.0797016
-0.0826425
-0.0855101
-0.0882953
-0.0909959
-0.0936097
-0.0961362
-0.0985763
-0.100931
-0.103203
-0.105395
-0.107507
-0.109544
-0.111507
-0.113399
-0.115222
-0.116979
-0.118672
-0.120304
-0.121877
-0.123392
-0.124852
-0.12626
-0.127617
-0.128925
-0.130186
-0.131402
-0.132576
-0.133708
-0.134802
-0.135859
-0.136882
-0.137872
-0.138833
-0.139768
-0.140679
-0.141569
-0.142443
-0.143305
-0.144158
-0.145008
-0.14586
-0.14672
-0.147595
-0.14849
-0.149414
-0.150375
-0.151381
-0.152441
-0.153567
-0.154766
-0.156052
-0.157434
-0.158932
-0.160551
-0.16203
-0.163265
-0.16453
-0.165832
-0.167173
-0.168553
-0.169971
-0.171429
-0.172926
-0.174464
-0.176048
-0.177671
-0.17935
-0.181062
-0.182849
-0.184647
-0.186564
-0.188444
-0.190544
-0.192502
-0.194903
-0.196894
-0.199765
-0.20146
-0.204723
-0.092885
-0.0565798
-0.0625276
-0.065591
-0.067711
-0.0706078
-0.0737011
-0.0767187
-0.0797046
-0.0826441
-0.0855109
-0.0882954
-0.0909957
-0.0936092
-0.0961357
-0.0985756
-0.100931
-0.103203
-0.105394
-0.107507
-0.109543
-0.111506
-0.113398
-0.115221
-0.116979
-0.118672
-0.120304
-0.121876
-0.123391
-0.124852
-0.12626
-0.127617
-0.128925
-0.130186
-0.131402
-0.132576
-0.133708
-0.134802
-0.135859
-0.136881
-0.137872
-0.138833
-0.139767
-0.140678
-0.141569
-0.142443
-0.143304
-0.144158
-0.145008
-0.14586
-0.14672
-0.147594
-0.14849
-0.149414
-0.150374
-0.15138
-0.152441
-0.153565
-0.154764
-0.15605
-0.157432
-0.158929
-0.160548
-0.162026
-0.16326
-0.164524
-0.165825
-0.167164
-0.168543
-0.16996
-0.171415
-0.172911
-0.174446
-0.176026
-0.177645
-0.179319
-0.181024
-0.182802
-0.184591
-0.186491
-0.188357
-0.190425
-0.192358
-0.194685
-0.196619
-0.199308
-0.200885
-0.203793
-0.0934094
-0.0567376
-0.0625959
-0.0656358
-0.0677394
-0.0706269
-0.0737141
-0.0767273
-0.0797103
-0.0826478
-0.0855131
-0.0882967
-0.0909964
-0.0936094
-0.0961356
-0.0985753
-0.10093
-0.103202
-0.105393
-0.107506
-0.109543
-0.111506
-0.113397
-0.115221
-0.116978
-0.118671
-0.120303
-0.121876
-0.123391
-0.124852
-0.126259
-0.127616
-0.128924
-0.130185
-0.131402
-0.132575
-0.133708
-0.134801
-0.135858
-0.136881
-0.137872
-0.138833
-0.139767
-0.140678
-0.141569
-0.142442
-0.143304
-0.144157
-0.145007
-0.145859
-0.146719
-0.147593
-0.148489
-0.149412
-0.150373
-0.151378
-0.152438
-0.153563
-0.154761
-0.156046
-0.157428
-0.158923
-0.160541
-0.162018
-0.16325
-0.164512
-0.165812
-0.167149
-0.168525
-0.169939
-0.171391
-0.172883
-0.174413
-0.175988
-0.1776
-0.179266
-0.180962
-0.182726
-0.1845
-0.186377
-0.188222
-0.190244
-0.192142
-0.19437
-0.196237
-0.198707
-0.200181
-0.202737
-0.0939067
-0.0569306
-0.0626759
-0.0656902
-0.0677751
-0.070652
-0.0737322
-0.0767402
-0.0797195
-0.0826543
-0.0855177
-0.0882999
-0.0909985
-0.0936108
-0.0961364
-0.0985757
-0.10093
-0.103202
-0.105393
-0.107506
-0.109542
-0.111505
-0.113397
-0.11522
-0.116977
-0.118671
-0.120303
-0.121875
-0.12339
-0.124851
-0.126259
-0.127616
-0.128924
-0.130185
-0.131401
-0.132575
-0.133707
-0.134801
-0.135858
-0.136881
-0.137871
-0.138832
-0.139767
-0.140677
-0.141568
-0.142442
-0.143303
-0.144156
-0.145006
-0.145858
-0.146718
-0.147592
-0.148487
-0.14941
-0.15037
-0.151375
-0.152435
-0.153558
-0.154756
-0.156039
-0.157419
-0.158913
-0.160529
-0.162003
-0.163232
-0.164493
-0.165789
-0.167123
-0.168495
-0.169905
-0.171351
-0.172837
-0.17436
-0.175927
-0.177529
-0.179181
-0.180863
-0.182606
-0.18436
-0.186201
-0.188017
-0.189976
-0.191826
-0.193929
-0.195714
-0.197945
-0.199316
-0.20155
-0.0943283
-0.0571626
-0.0627682
-0.0657545
-0.0678181
-0.0706834
-0.0737558
-0.076758
-0.0797329
-0.0826645
-0.0855254
-0.0883056
-0.0910028
-0.0936139
-0.0961387
-0.0985774
-0.100932
-0.103203
-0.105394
-0.107506
-0.109542
-0.111505
-0.113397
-0.11522
-0.116977
-0.11867
-0.120302
-0.121875
-0.12339
-0.124851
-0.126258
-0.127615
-0.128923
-0.130184
-0.131401
-0.132574
-0.133707
-0.134801
-0.135858
-0.13688
-0.137871
-0.138832
-0.139766
-0.140677
-0.141567
-0.142441
-0.143302
-0.144155
-0.145005
-0.145857
-0.146716
-0.14759
-0.148484
-0.149407
-0.150366
-0.15137
-0.152428
-0.153551
-0.154746
-0.156028
-0.157406
-0.158897
-0.160508
-0.161978
-0.163204
-0.164461
-0.165752
-0.16708
-0.168446
-0.169849
-0.171288
-0.172764
-0.174277
-0.17583
-0.177417
-0.17905
-0.18071
-0.182424
-0.184148
-0.185941
-0.187714
-0.18959
-0.191374
-0.193329
-0.195012
-0.196999
-0.19826
-0.200215
-0.0946178
-0.0574344
-0.062873
-0.0658292
-0.0678681
-0.0707207
-0.073785
-0.0767808
-0.0797509
-0.0826787
-0.0855367
-0.0883146
-0.0910099
-0.0936196
-0.0961431
-0.0985809
-0.100934
-0.103205
-0.105395
-0.107507
-0.109543
-0.111506
-0.113397
-0.11522
-0.116977
-0.11867
-0.120302
-0.121875
-0.12339
-0.12485
-0.126258
-0.127615
-0.128923
-0.130184
-0.131401
-0.132574
-0.133707
-0.1348
-0.135857
-0.13688
-0.13787
-0.138831
-0.139765
-0.140676
-0.141566
-0.14244
-0.143301
-0.144154
-0.145003
-0.145854
-0.146713
-0.147586
-0.148479
-0.149401
-0.150359
-0.151362
-0.152418
-0.153538
-0.154731
-0.15601
-0.157384
-0.15887
-0.160476
-0.161939
-0.163159
-0.164409
-0.165693
-0.167014
-0.16837
-0.169762
-0.171189
-0.172652
-0.174148
-0.175682
-0.177247
-0.178852
-0.180481
-0.182153
-0.183834
-0.185563
-0.187274
-0.189048
-0.190743
-0.192533
-0.194092
-0.195843
-0.196986
-0.198704
-0.0947163
-0.0577438
-0.0629893
-0.0659148
-0.067925
-0.0707633
-0.0738191
-0.0768084
-0.0797733
-0.0826971
-0.0855519
-0.0883272
-0.0910204
-0.0936282
-0.0961503
-0.0985868
-0.100939
-0.103209
-0.105399
-0.10751
-0.109545
-0.111508
-0.113399
-0.115222
-0.116978
-0.118671
-0.120303
-0.121875
-0.12339
-0.124851
-0.126258
-0.127615
-0.128923
-0.130184
-0.131401
-0.132574
-0.133706
-0.1348
-0.135857
-0.136879
-0.13787
-0.138831
-0.139765
-0.140675
-0.141565
-0.142439
-0.143299
-0.144151
-0.145
-0.145851
-0.146709
-0.14758
-0.148472
-0.149393
-0.150348
-0.151349
-0.152402
-0.153519
-0.154708
-0.155982
-0.157349
-0.158828
-0.160425
-0.161879
-0.16309
-0.164331
-0.165603
-0.166912
-0.168254
-0.16963
-0.171039
-0.172481
-0.173954
-0.17546
-0.176993
-0.178558
-0.180143
-0.181758
-0.183379
-0.185026
-0.186652
-0.188305
-0.189883
-0.191499
-0.192915
-0.194444
-0.195464
-0.196977
-0.0945722
-0.0580845
-0.0631141
-0.0660122
-0.0679882
-0.0708106
-0.0738575
-0.0768399
-0.0797995
-0.0827193
-0.0855708
-0.0883433
-0.0910342
-0.0936401
-0.0961605
-0.0985956
-0.100947
-0.103216
-0.105404
-0.107515
-0.10955
-0.111511
-0.113402
-0.115224
-0.116981
-0.118673
-0.120305
-0.121877
-0.123392
-0.124852
-0.126259
-0.127616
-0.128924
-0.130185
-0.131401
-0.132574
-0.133707
-0.1348
-0.135857
-0.13688
-0.13787
-0.13883
-0.139764
-0.140674
-0.141564
-0.142437
-0.143297
-0.144148
-0.144996
-0.145845
-0.146702
-0.147572
-0.148462
-0.14938
-0.150332
-0.151329
-0.152378
-0.15349
-0.154672
-0.155938
-0.157297
-0.158764
-0.160348
-0.161787
-0.162985
-0.164212
-0.165468
-0.166758
-0.16808
-0.169433
-0.170815
-0.172227
-0.173666
-0.175132
-0.176619
-0.17813
-0.179654
-0.181193
-0.182731
-0.184275
-0.185792
-0.187305
-0.188743
-0.190178
-0.191438
-0.19276
-0.193657
-0.194986
-0.0941547
-0.0584442
-0.0632416
-0.0661222
-0.0680579
-0.0708618
-0.0738994
-0.0768744
-0.0798285
-0.0827443
-0.0855925
-0.0883623
-0.0910509
-0.0936548
-0.0961736
-0.0986072
-0.100957
-0.103225
-0.105412
-0.107522
-0.109556
-0.111517
-0.113407
-0.115229
-0.116985
-0.118677
-0.120308
-0.12188
-0.123395
-0.124855
-0.126262
-0.127618
-0.128926
-0.130187
-0.131403
-0.132576
-0.133708
-0.134801
-0.135858
-0.13688
-0.13787
-0.13883
-0.139764
-0.140674
-0.141563
-0.142435
-0.143294
-0.144144
-0.14499
-0.145838
-0.146692
-0.14756
-0.148446
-0.14936
-0.150309
-0.1513
-0.152342
-0.153445
-0.154618
-0.155873
-0.157218
-0.158669
-0.160232
-0.16165
-0.162828
-0.164034
-0.165267
-0.16653
-0.167822
-0.169141
-0.170486
-0.171855
-0.173245
-0.174655
-0.176079
-0.177516
-0.178957
-0.1804
-0.181831
-0.183249
-0.184632
-0.185987
-0.187267
-0.188516
-0.189614
-0.190744
-0.191521
-0.192674
-0.0934644
-0.0587977
-0.0633637
-0.066246
-0.068134
-0.0709165
-0.0739441
-0.0769112
-0.0798594
-0.0827711
-0.0856161
-0.0883832
-0.0910695
-0.0936716
-0.0961887
-0.0986209
-0.100969
-0.103236
-0.105423
-0.107531
-0.109565
-0.111525
-0.113414
-0.115236
-0.116991
-0.118683
-0.120313
-0.121885
-0.123399
-0.124859
-0.126266
-0.127622
-0.128929
-0.13019
-0.131406
-0.132579
-0.133711
-0.134804
-0.13586
-0.136882
-0.137871
-0.138831
-0.139764
-0.140673
-0.141561
-0.142432
-0.143289
-0.144138
-0.144982
-0.145827
-0.146678
-0.147541
-0.148424
-0.149332
-0.150273
-0.151256
-0.152288
-0.15338
-0.154538
-0.155776
-0.1571
-0.158526
-0.16006
-0.161447
-0.162597
-0.163772
-0.164971
-0.166195
-0.167445
-0.168716
-0.170008
-0.171317
-0.17264
-0.173973
-0.175312
-0.176652
-0.177985
-0.179306
-0.180604
-0.181875
-0.183101
-0.184284
-0.185393
-0.186457
-0.187391
-0.188337
-0.188995
-0.189978
-0.0925168
-0.0591019
-0.063469
-0.0663846
-0.0682168
-0.0709742
-0.0739912
-0.0769496
-0.0798913
-0.0827986
-0.0856402
-0.0884047
-0.0910889
-0.0936892
-0.0962047
-0.0986356
-0.100983
-0.103249
-0.105434
-0.107542
-0.109575
-0.111534
-0.113423
-0.115244
-0.116999
-0.11869
-0.12032
-0.121891
-0.123405
-0.124864
-0.126271
-0.127627
-0.128934
-0.130194
-0.13141
-0.132582
-0.133714
-0.134807
-0.135863
-0.136884
-0.137873
-0.138832
-0.139764
-0.140672
-0.141559
-0.142428
-0.143283
-0.144129
-0.14497
-0.145811
-0.146657
-0.147515
-0.14839
-0.149289
-0.15022
-0.151191
-0.152209
-0.153282
-0.15442
-0.155633
-0.156927
-0.158317
-0.159806
-0.161149
-0.16226
-0.163391
-0.164541
-0.165711
-0.166901
-0.168106
-0.169324
-0.170551
-0.171783
-0.173015
-0.174242
-0.175458
-0.176657
-0.177831
-0.178972
-0.180074
-0.181126
-0.182127
-0.183056
-0.183935
-0.184705
-0.185474
-0.186013
-0.186827
-0.0913182
-0.0593328
-0.0635265
-0.066536
-0.068306
-0.0710345
-0.0740405
-0.0769892
-0.0799236
-0.0828261
-0.0856642
-0.0884259
-0.0911079
-0.0937064
-0.0962205
-0.0986502
-0.100997
-0.103261
-0.105446
-0.107553
-0.109585
-0.111544
-0.113433
-0.115253
-0.117007
-0.118698
-0.120328
-0.121898
-0.123412
-0.124871
-0.126277
-0.127633
-0.12894
-0.1302
-0.131415
-0.132587
-0.133719
-0.134811
-0.135866
-0.136887
-0.137875
-0.138833
-0.139764
-0.14067
-0.141555
-0.142422
-0.143274
-0.144116
-0.144952
-0.145787
-0.146627
-0.147475
-0.14834
-0.149227
-0.150143
-0.151095
-0.152091
-0.15314
-0.154247
-0.155423
-0.156674
-0.158011
-0.159438
-0.160718
-0.161772
-0.162842
-0.163924
-0.16502
-0.166127
-0.167242
-0.16836
-0.169478
-0.170591
-0.171693
-0.17278
-0.173845
-0.174882
-0.175885
-0.176847
-0.177764
-0.178629
-0.179439
-0.180185
-0.18088
-0.181486
-0.182084
-0.182499
-0.183143
-0.0899245
-0.0595163
-0.0634831
-0.0666866
-0.0683988
-0.0710954
-0.0740913
-0.0770296
-0.079956
-0.0828533
-0.0856875
-0.0884462
-0.0911258
-0.0937226
-0.0962352
-0.0986636
-0.101009
-0.103273
-0.105457
-0.107564
-0.109595
-0.111553
-0.113441
-0.115261
-0.117015
-0.118706
-0.120335
-0.121905
-0.123419
-0.124878
-0.126284
-0.127639
-0.128946
-0.130205
-0.13142
-0.132592
-0.133723
-0.134815
-0.13587
-0.13689
-0.137877
-0.138834
-0.139763
-0.140667
-0.141549
-0.142412
-0.14326
-0.144096
-0.144925
-0.145752
-0.146581
-0.147417
-0.148266
-0.149135
-0.150029
-0.150955
-0.15192
-0.152931
-0.153994
-0.155117
-0.156306
-0.15757
-0.158909
-0.160101
-0.161077
-0.162062
-0.163051
-0.164046
-0.165043
-0.166038
-0.167027
-0.168005
-0.168968
-0.16991
-0.170827
-0.171714
-0.172565
-0.173377
-0.174144
-0.174863
-0.175531
-0.176148
-0.176707
-0.17722
-0.177661
-0.17809
-0.178377
-0.17885
-0.0885113
-0.059696
-0.0633272
-0.0668016
-0.0684812
-0.071149
-0.0741397
-0.0770689
-0.0799872
-0.0828793
-0.0857096
-0.0884651
-0.0911423
-0.0937371
-0.0962482
-0.0986753
-0.10102
-0.103283
-0.105466
-0.107572
-0.109603
-0.111561
-0.113449
-0.115268
-0.117022
-0.118712
-0.120341
-0.121912
-0.123425
-0.124883
-0.126289
-0.127644
-0.128951
-0.13021
-0.131425
-0.132596
-0.133727
-0.134818
-0.135872
-0.136891
-0.137877
-0.138831
-0.139758
-0.140659
-0.141537
-0.142395
-0.143236
-0.144065
-0.144884
-0.145698
-0.146512
-0.14733
-0.148158
-0.149
-0.149862
-0.150751
-0.151671
-0.152629
-0.15363
-0.154679
-0.155781
-0.156941
-0.158159
-0.159231
-0.160102
-0.160972
-0.161838
-0.1627
-0.163554
-0.164396
-0.165223
-0.166029
-0.166811
-0.167564
-0.168285
-0.16897
-0.169615
-0.170219
-0.170778
-0.171292
-0.171758
-0.172179
-0.17255
-0.172882
-0.173157
-0.173419
-0.173574
-0.173874
-0.087175
-0.0599276
-0.0631488
-0.0668718
-0.0685301
-0.0711779
-0.0741746
-0.0770995
-0.0800121
-0.0829005
-0.0857278
-0.0884807
-0.0911557
-0.0937488
-0.0962585
-0.0986846
-0.101028
-0.10329
-0.105473
-0.107579
-0.109609
-0.111567
-0.113454
-0.115273
-0.117027
-0.118717
-0.120346
-0.121916
-0.123429
-0.124887
-0.126293
-0.127648
-0.128954
-0.130214
-0.131428
-0.132599
-0.133729
-0.134819
-0.135872
-0.136889
-0.137873
-0.138825
-0.139748
-0.140645
-0.141517
-0.142368
-0.1432
-0.144017
-0.144822
-0.145619
-0.146411
-0.147204
-0.148
-0.148805
-0.149623
-0.150458
-0.151315
-0.152199
-0.153112
-0.154059
-0.155041
-0.156061
-0.157117
-0.15803
-0.158762
-0.159483
-0.160192
-0.160886
-0.161562
-0.162218
-0.162849
-0.163453
-0.164025
-0.164565
-0.165068
-0.165533
-0.165959
-0.166344
-0.166689
-0.166993
-0.167256
-0.167481
-0.167667
-0.16782
-0.167931
-0.16803
-0.168054
-0.168178
-0.0858826
-0.0600977
-0.0630345
-0.0669597
-0.0685716
-0.0711906
-0.0741911
-0.0771123
-0.0800217
-0.0829088
-0.0857351
-0.0884869
-0.091161
-0.0937534
-0.0962624
-0.0986879
-0.101031
-0.103293
-0.105475
-0.107581
-0.109611
-0.111568
-0.113455
-0.115275
-0.117028
-0.118718
-0.120347
-0.121917
-0.12343
-0.124888
-0.126294
-0.127649
-0.128955
-0.130214
-0.131428
-0.132598
-0.133727
-0.134816
-0.135868
-0.136883
-0.137864
-0.138813
-0.139731
-0.140621
-0.141486
-0.142326
-0.143146
-0.143947
-0.144732
-0.145504
-0.146267
-0.147023
-0.147776
-0.148528
-0.149284
-0.150046
-0.150817
-0.151599
-0.152394
-0.153203
-0.154026
-0.15486
-0.155704
-0.156414
-0.15697
-0.157507
-0.158022
-0.158513
-0.158979
-0.159417
-0.159825
-0.1602
-0.160541
-0.160848
-0.161119
-0.161353
-0.161551
-0.161713
-0.161839
-0.161932
-0.161991
-0.16202
-0.162018
-0.161991
-0.161935
-0.161864
-0.161751
-0.161686
-0.0849965
-0.0601166
-0.0629448
-0.0670032
-0.0685934
-0.0711993
-0.0742007
-0.0771181
-0.0800231
-0.0829086
-0.0857336
-0.0884839
-0.0911571
-0.0937488
-0.0962574
-0.0986825
-0.101025
-0.103287
-0.105469
-0.107575
-0.109605
-0.111562
-0.11345
-0.115269
-0.117022
-0.118712
-0.120341
-0.121911
-0.123425
-0.124883
-0.126289
-0.127643
-0.128949
-0.130208
-0.131422
-0.132592
-0.13372
-0.134808
-0.135857
-0.13687
-0.137848
-0.138792
-0.139705
-0.140588
-0.141443
-0.142271
-0.143075
-0.143857
-0.144618
-0.145361
-0.146088
-0.146801
-0.147502
-0.148193
-0.148875
-0.149551
-0.150221
-0.150885
-0.151543
-0.152195
-0.152838
-0.153467
-0.154079
-0.15457
-0.154939
-0.155283
-0.155599
-0.155886
-0.156143
-0.156368
-0.156561
-0.156721
-0.156848
-0.156942
-0.157003
-0.157033
-0.157032
-0.157002
-0.156944
-0.15686
-0.156751
-0.15662
-0.156468
-0.156299
-0.156112
-0.155913
-0.155695
-0.155488
-0.0845824
-0.0601151
-0.0629061
-0.0670124
-0.0685935
-0.071195
-0.0741963
-0.077112
-0.0800145
-0.0828991
-0.0857234
-0.0884733
-0.0911464
-0.093738
-0.0962465
-0.0986718
-0.101015
-0.103277
-0.105459
-0.107565
-0.109595
-0.111553
-0.11344
-0.11526
-0.117013
-0.118704
-0.120333
-0.121903
-0.123416
-0.124875
-0.126281
-0.127635
-0.128941
-0.1302