/*--------------------------------*- C++ -*----------------------------------*\
| =========                 |                                                 |
| \\      /  F ield         | OpenFOAM: The Open Source CFD Toolbox           |
|  \\    /   O peration     | Version:  2306                                  |
|   \\  /    A nd           | Website:  www.openfoam.com                      |
|    \\/     M anipulation  |                                                 |
\*---------------------------------------------------------------------------*/
FoamFile
{
    version     2.0;
    format      ascii;
    arch        "LSB;label=32;scalar=64";
    class       volScalarField;
    location    "2000";
    object      epsilon;
}
// * * * * * * * * * * * * * * * * * * * * * * * * * * * * * * * * * * * * * //

dimensions      [0 2 -3 0 0 0 0];

internalField   nonuniform List<scalar> 
20540
(
36458.4
71500.7
36449.5
71493.8
36400.5
71461.9
36309.2
71404.1
36167.6
71314.6
35964.8
71186.5
35687.8
71011.1
35320.8
70778.7
34844.9
70477.8
34238
70095
33473.7
69614.8
32521.9
69018.5
31348.1
68284.4
29915
67386.9
28184.2
66289.4
26119.6
64941.2
23694.8
63272.7
20904.7
61183.5
17786.2
58540.8
14448.9
55151.7
11062
50784.1
7810.69
45238.1
4936.84
38375.5
2765.16
30253.5
1548.96
21288
949.757
12281.5
611.192
4946.29
420.77
1533.76
337.463
603.909
297.014
355.565
279.744
285.862
274.895
263.016
275.047
262.952
280.217
285.645
297.791
352.805
337.423
580.668
418.427
1406.71
601.288
4433.14
928.357
11169.5
1500.86
19834.9
2656.72
28701.6
4763.67
36897.9
7607.68
43949.8
10877.8
49737.5
14346.5
54356
17825
57979
21124.2
60836.8
24119
63121.8
26760
64966.1
29042.2
66465.7
30983.9
67694.7
32615.2
68706.7
33970.9
69541.9
35086.5
70229.2
35995.9
70790.8
36730
71245.5
37316.2
71609.7
37778.2
71897.2
38136.3
72120.2
38407.8
72289.1
38607.4
72413
38747.3
72499.8
38837.7
72556.1
38886.3
72587.1
38898.7
72596.1
6.32529e+06
2.37399e+06
1.87707e+06
1.62995e+06
1.48534e+06
1.39429e+06
1.3321e+06
1.28713e+06
1.25355e+06
1.22777e+06
1.20756e+06
1.1914e+06
1.17837e+06
1.16767e+06
1.15888e+06
1.1515e+06
1.14539e+06
1.14018e+06
1.13581e+06
1.13207e+06
1.12886e+06
1.12612e+06
1.12375e+06
1.12171e+06
1.11992e+06
1.11837e+06
1.11702e+06
1.11584e+06
1.1148e+06
1.11388e+06
1.11308e+06
1.11237e+06
1.11174e+06
1.11119e+06
1.1107e+06
1.11026e+06
1.10987e+06
1.10954e+06
1.10924e+06
1.10899e+06
1.10878e+06
1.10862e+06
1.10851e+06
1.10845e+06
1.10844e+06
1.10849e+06
1.10862e+06
1.10882e+06
1.10911e+06
1.10951e+06
1.11003e+06
1.11067e+06
1.11148e+06
1.11247e+06
1.11365e+06
1.11507e+06
1.11674e+06
1.11872e+06
1.12101e+06
1.12369e+06
1.12676e+06
1.13032e+06
1.13439e+06
1.13833e+06
1.14172e+06
1.14533e+06
1.1491e+06
1.15317e+06
1.15739e+06
1.16192e+06
1.16664e+06
1.17165e+06
1.17689e+06
1.18247e+06
1.18834e+06
1.19456e+06
1.20126e+06
1.20812e+06
1.21596e+06
1.2234e+06
1.23308e+06
1.24069e+06
1.2548e+06
1.2599e+06
1.28415e+06
1.29269e+06
1.32654e+06
1.29277e+06
2.25237e+06
873776
684962
592208
538095
504072
480925
464239
451797
442258
434788
428826
424018
420073
416834
414120
411868
409953
408344
406969
405789
404782
403913
403163
402506
401938
401440
401007
400627
400288
399996
399734
399504
399302
399121
398960
398817
398691
398581
398488
398409
398347
398302
398272
398262
398272
398306
398364
398453
398573
398736
398938
399194
399506
399880
400332
400862
401492
402219
403072
404045
405176
406460
407703
408764
409905
411081
412355
413665
415075
416528
418076
419674
421381
423146
425030
427003
429064
431304
433530
436196
438449
442245
443510
449854
451670
458416
461715
1.13277e+06
511930
414979
363854
332381
312052
298003
287767
280082
274163
269512
265790
262783
260312
258280
256576
255160
253955
252942
252075
251331
250696
250147
249673
249258
248898
248584
248309
248069
247854
247669
247502
247356
247228
247113
247011
246920
246840
246770
246711
246661
246621
246592
246573
246566
246571
246592
246628
246684
246759
246861
246987
247148
247343
247578
247861
248193
248588
249043
249577
250185
250891
251693
252463
253123
253833
254564
255353
256165
257035
257933
258883
259865
260902
261980
263109
264307
265519
266877
268147
269761
270969
273202
273869
277144
277678
281164
279476
689239
329501
276151
246841
227669
214865
205842
199182
194137
190228
187144
184668
182662
181010
179649
178507
177556
176746
176064
175480
174979
174550
174179
173859
173578
173335
173122
172936
172773
172627
172501
172388
172289
172202
172123
172054
171992
171938
171890
171849
171815
171787
171766
171753
171747
171750
171763
171786
171822
171871
171937
172021
172126
172254
172409
172594
172813
173071
173370
173720
174118
174580
175103
175603
176030
176491
176966
177474
177998
178556
179132
179737
180363
181016
181696
182396
183144
183878
184718
185461
186448
187112
188422
188802
190473
190559
192458
186661
476569
224181
190851
173356
161264
152879
146840
142316
138854
136153
134011
132285
130883
129726
128771
127967
127298
126727
126246
125834
125479
125176
124913
124686
124487
124314
124163
124031
123915
123812
123722
123641
123570
123508
123452
123402
123358
123319
123285
123255
123230
123210
123194
123183
123177
123178
123184
123197
123219
123249
123291
123343
123410
123492
123590
123709
123848
124013
124204
124426
124680
124973
125305
125620
125888
126179
126476
126794
127119
127466
127820
128192
128572
128968
129375
129793
130230
130660
131137
131559
132101
132456
133137
133336
134067
134011
134777
130244
356804
160540
136133
125304
117579
112000
107874
104725
102283
100361
98826.3
97583.4
96569.6
95730.8
95036.3
94451.5
93962.7
93545.9
93193.4
92891.5
92631.6
92408.8
92215.6
92048.7
91902.3
91775.1
91663.6
91565.9
91480.4
91404
91337.4
91277.9
91225.4
91179.1
91137.7
91100.6
91067.6
91038.5
91012.6
90990.3
90971.2
90955.2
90942.7
90933.3
90927.5
90925.7
90928.2
90935
90947.2
90965.2
90990.5
91022.7
91064.3
91115.2
91176.9
91251.4
91339
91443.1
91562.9
91703.2
91862.2
92046.5
92253.6
92450.2
92615.3
92796
92978.8
93175
93372.8
93583.9
93797
94020.9
94245.9
94481.6
94716.6
94960.9
95205
95451.9
95705.6
95940.9
96213.7
96399.8
96712.6
96809.2
97057
96973.7
97087.7
95568.2
280728
120416
99653.3
92512.8
87566.5
83868.5
81050
78847.7
77109.1
75723
74606.4
73695.8
72949.1
72328.5
71812.9
71377.5
71012.7
70701
70436.8
70210.2
70014.8
69847.2
69701.6
69575.7
69465.1
69368.8
69284.5
69210.4
69145.6
69087.6
69037
68991.8
68951.8
68916.5
68884.9
68856.5
68831.2
68808.8
68788.8
68771.4
68756.4
68743.6
68733.2
68725
68719.4
68716.3
68716.2
68718.8
68725
68734.8
68749.5
68768.3
68793.3
68824.1
68861.6
68907.2
68960.9
69025
69098.5
69184.9
69282.1
69395.2
69521.1
69641
69739.9
69849.5
69958.6
70076.5
70193
70318.1
70441.4
70572.4
70699.4
70835.2
70963.4
71101.4
71228
71364
71486.7
71610.5
71729.8
71820.5
71931
71971.3
71987.9
71912.4
71697.3
72003.4
228180
94138.6
74692.3
69400.9
66181.8
63763.5
61868.6
60346.6
59117.2
58120.2
57307
56637.3
56083.8
55621.1
55234.8
54907.2
54631.8
54395.8
54195.3
54022.8
53873.8
53745.8
53634.4
53537.9
53453
53379
53314.1
53257
53207.1
53162.3
53123.2
53088.2
53057.2
53029.8
53005.2
52983.1
52963.3
52945.7
52930
52916.2
52904.2
52893.7
52885
52877.8
52872.3
52868.5
52866.8
52866.9
52869.1
52873.6
52881.2
52891.3
52905.3
52922.7
52944.3
52970.8
53002
53039.7
53082.5
53133.5
53189.9
53256.3
53328.9
53398.9
53454.8
53518.2
53579.7
53647
53711.4
53781.5
53848
53920.1
53985.9
54059
54121.9
54193.7
54251.1
54318.2
54367
54422.7
54459.2
54492.7
54503.8
54500.1
54441.7
54352.3
54029.6
55007
189718
76303.3
57340.9
52792.7
50556.4
48981.6
47739.2
46714.8
45864.6
45159.7
44575
44087
43679.4
43335.8
43046.9
42800.5
42592.4
42413.2
42260.6
42128.8
42014.6
41916.3
41830.6
41756.1
41690.5
41633.2
41582.8
41538.5
41499.7
41464.8
41434.3
41406.9
41382.6
41361.1
41341.8
41324.4
41308.7
41294.8
41282.2
41271.2
41261.4
41252.8
41245.4
41239.1
41234
41229.9
41227.2
41225.7
41225.5
41226.6
41229.6
41234
41240.7
41249.4
41260.5
41274.4
41290.7
41311
41333.6
41361.2
41391
41426.7
41464.5
41502
41530.4
41563.8
41594.8
41629.4
41660.9
41695.9
41727
41761.8
41790.2
41823.9
41848.3
41878.4
41896.9
41921.1
41930.4
41944.4
41940.3
41936.4
41909.2
41879.1
41793.5
41705
41382
42420.5
160382
63775.2
45141.3
40747.2
38972.4
37905.3
37104.8
36439.6
35872.9
35390.8
34982.1
34634.9
34340.8
34089.8
33876.8
33693.7
33538
33403.2
33287.8
33187.7
33100.6
33025.4
32959.6
32902.3
32851.7
32807.4
32768.3
32733.9
32703.7
32676.5
32652.7
32631.2
32612.1
32595.3
32580.1
32566.3
32553.9
32542.8
32532.8
32523.9
32516
32508.8
32502.6
32497.1
32492.5
32488.5
32485.2
32482.8
32481.2
32480.2
32480.4
32481.2
32483.2
32486.3
32490.5
32496.2
32503
32511.9
32521.5
32533.9
32546.5
32562.5
32578.2
32594.7
32605.9
32620.1
32631.9
32645.9
32657.2
32670
32679.8
32691.4
32697.9
32707.5
32709.7
32714.6
32712.2
32710.5
32700.6
32691.5
32667.5
32647
32601
32561.6
32471.8
32389.8
32109.9
32988.1
137321
54687.2
36467.5
31981.6
30334.4
29518.1
28987.6
28567.6
28207.3
27893.5
27620.8
27383.9
27179.4
27002.1
26849.7
26717.1
26603.5
26504.2
26418.7
26344.1
26278.7
26222.2
26172.4
26128.9
26090.4
26056.5
26026.5
26000
25976.8
25955.7
25937.3
25920.7
25905.9
25892.7
25880.8
25870
25860.3
25851.5
25843.5
25836.4
25830
25824.2
25819
25814.3
25810.2
25806.5
25803.2
25800.3
25797.9
25795.8
25794.3
25792.9
25792.1
25791.8
25791.8
25792.4
25793.1
25794.9
25796.4
25799.4
25801.2
25805
25806.9
25810.6
25811.2
25813.8
25814
25815.3
25814.8
25814.3
25811.9
25809.8
25804.1
25799.8
25789.9
25782.3
25766.9
25755
25731.9
25714.5
25680.2
25654.2
25602.6
25562
25477.8
25405.2
25179.1
25857.3
118773
47898.1
30222.6
25593.8
23894.7
23147.4
22747.7
22475.6
22254.8
22062.6
21892.5
21741.1
21607.3
21488.9
21385.3
21293.8
21214.4
21144.2
21083.2
21029.5
20982.1
20940.9
20904.3
20872.3
20843.7
20818.5
20796.1
20776.2
20758.8
20742.9
20729
20716.3
20705.1
20695
20685.9
20677.6
20670.1
20663.3
20657.1
20651.5
20646.5
20641.8
20637.6
20633.7
20630.2
20626.8
20623.7
20620.8
20618.2
20615.5
20613.2
20610.6
20608.3
20606
20603.5
20601.2
20598.5
20596.2
20592.8
20590.3
20585.8
20582.6
20576.4
20572.8
20567.3
20563.5
20557
20551.9
20543.9
20537.3
20527.1
20518.9
20505.7
20495.5
20478.5
20465.8
20443.9
20428.1
20399.7
20379.7
20342.6
20315.7
20265.8
20228
20153.2
20091.3
19914.9
20417.5
103588
42689.9
25665.1
20928
19108.8
18320.6
17947.9
17741.8
17601.1
17488.4
17390.5
17302.4
17223
17150.7
17086.2
17027.9
16976.6
16930.3
16889.6
16853.4
16821
16792.7
16767.4
16745
16724.9
16707
16691.1
16676.8
16664.3
16652.9
16642.8
16633.6
16625.4
16618.1
16611.4
16605.3
16599.7
16594.6
16590
16585.7
16581.9
16578.3
16575.1
16571.9
16569
16566.3
16563.5
16560.9
16558.3
16555.5
16552.9
16549.9
16546.9
16543.6
16540
16536.3
16531.6
16527.3
16521.4
16516.1
16508.3
16501.5
16491.1
16483.9
16475.2
16468.4
16458.4
16450.4
16438.7
16429.4
16415.6
16404.9
16388.4
16376.1
16356.4
16342.2
16318.4
16301.8
16272.9
16252.9
16217.6
16192.1
16147.3
16113.5
16050
15998.2
15863.1
16228.9
90973.9
38595.1
22295
17506.3
15564.1
14685
14272.7
14069.8
13958.2
13886.4
13832.4
13786.6
13745.8
13708
13673.5
13641.3
13612.5
13585.7
13561.8
13540.2
13520.4
13502.9
13487.1
13473
13460.1
13448.6
13438.3
13429
13420.8
13413.2
13406.5
13400.3
13394.8
13389.9
13385.3
13381.2
13377.3
13373.8
13370.6
13367.6
13364.9
13362.3
13360
13357.6
13355.4
13353.2
13351
13348.8
13346.5
13344
13341.4
13338.5
13335.3
13331.9
13327.8
13323.6
13318.4
13313.3
13306.4
13300
13290.9
13282.7
13270.7
13262.2
13252.3
13244.5
13233.3
13224.4
13211.6
13201.6
13186.8
13175.7
13158.7
13146.3
13126.7
13112.7
13089.8
13074
13047.3
13028.8
12997.2
12974.4
12935.6
12906.8
12854.1
12811.4
12709.2
12975.2
80387.5
35297
19774.6
14984.2
12944
11965
11480.8
11239.9
11118.1
11054
11017.7
10994
10976.5
10961.4
10948
10934.9
10923.1
10911.6
10901
10891.1
10881.7
10873.3
10865.4
10858.3
10851.7
10845.7
10840.2
10835.2
10830.8
10826.5
10822.9
10819.4
10816.3
10813.5
10811
10808.6
10806.3
10804.2
10802.3
10800.5
10798.9
10797.2
10795.7
10794.2
10792.7
10791.1
10789.5
10787.7
10785.9
10783.8
10781.6
10779
10776.1
10772.9
10769
10765
10759.8
10754.7
10747.8
10741.5
10732.3
10724.2
10712.2
10703.7
10694
10686.3
10675.3
10666.7
10654.3
10644.7
10630.6
10620.1
10604.2
10592.7
10574.7
10561.9
10541.4
10527.2
10503.7
10487.4
10460.2
10440.8
10407.8
10384
10340.9
10306.1
10230
10423.8
71439
32569.9
17873.8
13117.3
11008.5
9942.02
9379.09
9080.13
8922.65
8841.07
8800.14
8780.21
8771.17
8767.05
8765.49
8764.38
8763.88
8763.02
8762.18
8761.17
8759.77
8758.5
8757.07
8755.69
8754.21
8752.76
8751.39
8750.04
8748.91
8747.66
8746.61
8745.58
8744.6
8743.75
8742.91
8742.1
8741.29
8740.55
8739.81
8739.1
8738.44
8737.73
8737
8736.24
8735.44
8734.56
8733.56
8732.38
8731.09
8729.55
8727.8
8725.74
8723.26
8720.58
8717.13
8713.67
8708.95
8704.49
8698.17
8692.44
8684.04
8676.67
8665.68
8657.91
8649.07
8642.08
8632.11
8624.36
8613.14
8604.6
8592.05
8582.7
8568.71
8558.49
8542.84
8531.68
8514.06
8501.8
8481.82
8468.01
8445.05
8429
8401.56
8382.12
8347.43
8319.22
8263.47
8403.86
63838
30240.9
16433
11733.6
9579.91
8444.5
7810.47
7449.75
7244.79
7130.18
7068.47
7037.16
7023.45
7019.26
7020.44
7023.81
7028.61
7033.58
7038.49
7043.17
7047.16
7050.89
7054.13
7057.03
7059.48
7061.62
7063.52
7065.13
7066.68
7067.9
7069.05
7070.05
7070.91
7071.72
7072.42
7073.01
7073.49
7073.91
7074.27
7074.54
7074.78
7074.93
7074.94
7074.89
7074.81
7074.57
7074.17
7073.57
7072.85
7071.9
7070.7
7069.24
7067.33
7065.28
7062.46
7059.69
7055.71
7052.04
7046.62
7041.79
7034.53
7028.24
7018.75
7012.04
7004.43
6998.39
6989.83
6983.14
6973.56
6966.2
6955.55
6947.5
6935.7
6926.94
6913.85
6904.33
6889.71
6879.31
6862.83
6851.28
6832.4
6819.23
6796.86
6781.18
6753.55
6731.58
6690.42
6791.72
57366.1
28162.3
15338.9
10712.2
8529
7341.21
6648.72
6231.94
5978.32
5824.46
5732.87
5680.01
5651.58
5637.93
5633.69
5634.56
5638.52
5644.27
5650.71
5657.56
5663.98
5670.28
5676.15
5681.61
5686.55
5691.06
5695.19
5698.91
5702.4
5705.45
5708.28
5710.85
5713.16
5715.29
5717.22
5718.96
5720.51
5721.91
5723.19
5724.3
5725.33
5726.2
5726.94
5727.55
5728.04
5728.41
5728.53
5728.48
5728.36
5727.93
5727.28
5726.41
5725.12
5723.71
5721.58
5719.54
5716.38
5713.54
5709.13
5705.26
5699.3
5694.14
5686.33
5680.75
5674.48
5669.43
5662.38
5656.76
5648.89
5642.69
5633.98
5627.2
5617.59
5610.21
5599.58
5591.58
5579.75
5571.04
5557.75
5548.17
5532.97
5522.21
5504.3
5491.77
5469.99
5453.47
5422.96
5495.8
51773.6
26309.5
14509.1
9966.85
7762.85
6534.31
5795.18
5331.4
5033.98
4841.53
4717.44
4638.21
4589.04
4559.52
4543.44
4535.76
4533.94
4535.43
4539.22
4544.64
4550.36
4556.54
4562.77
4568.8
4574.55
4579.98
4585.1
4589.86
4594.36
4598.45
4602.26
4605.79
4609.02
4612.02
4614.78
4617.31
4619.62
4621.73
4623.68
4625.42
4627.06
4628.49
4629.8
4630.92
4631.91
4632.75
4633.39
4633.85
4634.16
4634.14
4634.03
4633.63
4632.95
4632.1
4630.62
4629.25
4626.89
4624.81
4621.41
4618.43
4613.75
4609.64
4603.46
4598.91
4593.94
4589.79
4584.19
4579.54
4573.28
4568.15
4561.22
4555.59
4547.95
4541.81
4533.37
4526.71
4517.34
4510.1
4499.57
4491.67
4479.64
4470.87
4456.77
4446.83
4429.9
4417.69
4395.24
4447.29
46818.6
24671.4
13879.8
9433.68
7214.07
5951.83
5174.83
4672.62
4338.19
4111.5
3956.72
3850.75
3778.83
3730.37
3698.71
3678.49
3666.63
3660.3
3657.97
3658.54
3660.53
3663.99
3668.23
3672.72
3677.45
3682.2
3686.89
3691.42
3695.82
3699.97
3703.91
3707.65
3711.12
3714.4
3717.46
3720.31
3722.95
3725.39
3727.69
3729.76
3731.73
3733.49
3735.12
3736.56
3737.88
3739.02
3740.01
3740.81
3741.47
3741.9
3742.07
3742
3741.82
3741.34
3740.5
3739.63
3737.98
3736.54
3734.03
3731.79
3728.25
3725.04
3720.3
3716.66
3712.82
3709.47
3705.12
3701.33
3696.47
3692.25
3686.86
3682.22
3676.26
3671.2
3664.61
3659.1
3651.79
3645.81
3637.59
3631.1
3621.72
3614.62
3603.68
3595.87
3582.9
3574
3557.6
3594.5
42254.1
23228.5
13396.2
9061.55
6831.7
5540.32
4731.34
4197.3
3832.22
3576.59
3395.02
3264.7
3170.99
3103.37
3055.03
3020.53
2996.45
2979.88
2968.9
2962.19
2958.3
2956.67
2956.83
2957.8
2959.77
2962.24
2965.04
2968.03
2971.12
2974.26
2977.36
2980.44
2983.36
2986.21
2988.93
2991.5
2993.96
2996.25
2998.45
3000.47
3002.41
3004.16
3005.82
3007.31
3008.69
3009.91
3011.02
3011.95
3012.76
3013.39
3013.83
3013.98
3013.98
3013.72
3013.36
3012.81
3011.74
3010.76
3008.98
3007.31
3004.7
3002.19
2998.63
2995.73
2992.82
2990.12
2986.8
2983.73
2980
2976.57
2972.42
2968.63
2964.04
2959.89
2954.8
2950.28
2944.62
2939.72
2933.38
2928.08
2920.87
2915.15
2906.81
2900.72
2890.93
2884.52
2872.61
2898.49
37811
21935.3
13002
8803.36
6573.29
5257.82
4421.44
3860.58
3469.98
3190.3
2986.22
2835.01
2722.07
2636.96
2572.79
2524.17
2487.5
2459.87
2439.15
2423.87
2412.62
2404.52
2399
2395.21
2392.93
2391.75
2391.38
2391.63
2392.31
2393.42
2394.74
2396.26
2397.82
2399.49
2401.17
2402.83
2404.51
2406.13
2407.73
2409.23
2410.71
2412.07
2413.38
2414.57
2415.7
2416.73
2417.66
2418.47
2419.18
2419.76
2420.21
2420.42
2420.48
2420.32
2420.12
2419.75
2419.03
2418.3
2417.02
2415.71
2413.77
2411.77
2409.08
2406.76
2404.55
2402.38
2399.84
2397.37
2394.5
2391.73
2388.53
2385.46
2381.91
2378.54
2374.62
2370.94
2366.59
2362.6
2357.75
2353.46
2347.99
2343.43
2337.17
2332.45
2325.19
2320.62
2311.99
2329.88
33190.4
20689
12626
8606.79
6396.95
5066.89
4209.04
3626.22
3214.65
2915.25
2692.66
2524.16
2395.07
2295
2216.97
2155.66
2107.34
2069.13
2038.83
2014.85
1995.83
1980.74
1968.89
1959.52
1952.22
1946.54
1942.17
1938.85
1936.36
1934.58
1933.32
1932.54
1932.06
1931.89
1931.87
1932.03
1932.37
1932.8
1933.31
1933.84
1934.42
1934.98
1935.57
1936.12
1936.66
1937.16
1937.62
1938.03
1938.36
1938.65
1938.83
1938.8
1938.77
1938.58
1938.3
1937.92
1937.27
1936.58
1935.53
1934.39
1932.85
1931.16
1929.03
1927.12
1925.39
1923.62
1921.63
1919.62
1917.38
1915.12
1912.63
1910.14
1907.38
1904.65
1901.61
1898.63
1895.29
1892.07
1888.38
1884.94
1880.85
1877.22
1872.65
1868.95
1863.77
1860.26
1854.28
1866.36
28087.7
19271.5
12162.3
8402.64
6252.24
4926.98
4058.58
3461.09
3034.11
2719.66
2482.67
2300.54
2158.56
2046.39
1956.97
1885.01
1826.75
1779.31
1740.46
1708.55
1682.24
1660.46
1642.43
1627.43
1614.96
1604.55
1595.87
1588.62
1582.54
1577.47
1573.22
1569.68
1566.7
1564.23
1562.15
1560.4
1558.97
1557.76
1556.78
1555.95
1555.28
1554.71
1554.23
1553.83
1553.47
1553.17
1552.88
1552.62
1552.34
1552.07
1551.75
1551.4
1550.96
1550.49
1549.9
1549.29
1548.5
1547.65
1546.59
1545.44
1544.03
1542.47
1540.63
1538.97
1537.52
1536.01
1534.38
1532.69
1530.88
1529.01
1527.01
1524.97
1522.78
1520.56
1518.17
1515.77
1513.18
1510.61
1507.79
1505.06
1502.01
1499.17
1495.85
1492.99
1489.33
1486.65
1482.5
1490.45
22322.6
17260.8
11445.9
8089.17
6068.42
4784.97
3927.22
3328.39
2895.19
2572.54
2326.58
2135.33
1984.29
1863.32
1765.4
1685.32
1619.31
1564.51
1518.71
1480.24
1447.77
1420.21
1396.76
1376.71
1359.52
1344.72
1331.96
1320.9
1311.31
1302.96
1295.66
1289.29
1283.7
1278.78
1274.45
1270.62
1267.23
1264.22
1261.55
1259.15
1257.02
1255.1
1253.36
1251.79
1250.35
1249.04
1247.82
1246.69
1245.62
1244.6
1243.61
1242.65
1241.68
1240.72
1239.7
1238.68
1237.58
1236.44
1235.18
1233.85
1232.37
1230.78
1229
1227.43
1226.11
1224.75
1223.32
1221.84
1220.29
1218.69
1217.02
1215.3
1213.51
1211.67
1209.75
1207.8
1205.75
1203.7
1201.52
1199.38
1197.07
1194.88
1192.44
1190.27
1187.65
1185.66
1182.7
1187.79
16012.3
14094.6
10245.3
7515.34
5740.17
4563.63
3755.18
3179.5
2756.58
2437.49
2191.35
1997.81
1843.23
1718.03
1615.45
1530.54
1459.62
1399.93
1349.34
1306.19
1269.19
1237.29
1209.68
1185.65
1164.68
1146.29
1130.12
1115.86
1103.22
1092.01
1082.02
1073.11
1065.13
1057.96
1051.52
1045.7
1040.45
1035.68
1031.36
1027.42
1023.82
1020.53
1017.51
1014.73
1012.16
1009.79
1007.58
1005.52
1003.57
1001.75
1000
998.347
996.736
995.181
993.641
992.129
990.6
989.071
987.495
985.888
984.202
982.449
980.583
978.999
977.708
976.392
975.044
973.671
972.263
970.83
969.359
967.863
966.327
964.769
963.168
961.552
959.888
958.224
956.502
954.807
953.031
951.335
949.499
947.86
945.922
944.469
942.272
945.431
9285.95
9655.17
8317.84
6475.5
5115.62
4150.54
3455.99
2945.34
2561.15
2265.78
2034.31
1849.79
1700.52
1578.19
1476.79
1391.9
1320.19
1259.14
1206.8
1161.64
1122.45
1088.26
1058.3
1031.91
1008.59
987.889
969.456
952.985
938.221
924.949
912.984
902.169
892.369
883.467
875.361
867.966
861.202
855.005
849.314
844.079
839.251
834.794
830.664
826.838
823.276
819.962
816.859
813.958
811.225
808.654
806.212
803.897
801.678
799.554
797.492
795.497
793.534
791.608
789.685
787.771
785.83
783.867
781.845
780.181
778.856
777.531
776.201
774.869
773.53
772.187
770.833
769.476
768.107
766.735
765.349
763.966
762.568
761.182
759.774
758.399
756.985
755.644
754.215
752.954
751.463
750.4
748.67
750.585
3421.5
5151.32
5158.91
4770.09
4019.36
3407.06
2918.17
2534.82
2232.83
1992.48
1798.95
1641.21
1511.17
1402.79
1311.61
1234.2
1167.97
1110.88
1061.35
1018.13
980.201
946.75
917.119
890.754
867.209
846.104
827.123
809.999
794.504
780.446
767.656
755.995
745.335
735.571
726.608
718.365
710.768
703.757
697.27
691.263
685.686
680.504
675.676
671.176
666.968
663.033
659.338
655.868
652.596
649.509
646.581
643.805
641.153
638.621
636.182
633.835
631.551
629.332
627.149
625.004
622.867
620.742
618.596
616.866
615.509
614.172
612.85
611.545
610.252
608.972
607.703
606.446
605.197
603.961
602.732
601.52
600.312
599.129
597.945
596.799
595.638
594.547
593.397
592.399
591.208
590.415
588.985
590.125
976.986
1793.81
2302.6
2499.43
2438.96
2282.54
2070.34
1875.45
1703.1
1554.5
1427.63
1319.37
1226.75
1147.16
1078.4
1018.69
966.546
920.777
880.406
844.63
812.79
784.337
758.816
735.845
715.101
696.312
679.244
663.7
649.506
636.517
624.602
613.652
603.566
594.261
585.66
577.697
570.312
563.454
557.073
551.13
545.584
540.404
535.557
531.017
526.755
522.752
518.982
515.43
512.072
508.896
505.88
503.015
500.279
497.667
495.156
492.743
490.404
488.14
485.925
483.763
481.625
479.519
477.413
475.737
474.434
473.162
471.917
470.698
469.503
468.333
467.184
466.057
464.951
463.867
462.801
461.76
460.736
459.741
458.758
457.812
456.869
455.984
455.066
454.27
453.332
452.717
451.555
452.192
430.976
600.557
796.165
966.678
1066.33
1106.81
1099.09
1076.19
1032.14
983.948
935.804
889.417
845.956
805.827
769.075
735.563
705.065
677.326
652.088
629.104
608.146
589.005
571.497
555.454
540.73
527.193
514.726
503.227
492.604
482.776
473.669
465.219
457.368
450.064
443.259
436.914
430.988
425.449
420.264
415.406
410.849
406.571
402.547
398.762
395.193
391.827
388.646
385.637
382.785
380.078
377.502
375.049
372.704
370.46
368.302
366.226
364.217
362.271
360.373
358.522
356.7
354.91
353.131
351.728
350.644
349.592
348.568
347.573
346.604
345.66
344.742
343.848
342.977
342.13
341.306
340.506
339.727
338.973
338.239
337.534
336.842
336.189
335.53
334.946
334.284
333.845
332.989
333.287
302.93
343.942
400.374
462.862
514.698
554.697
576.727
590.372
589.731
586.688
577.687
565.424
551.707
537.209
522.491
507.929
493.766
480.148
467.163
454.85
443.224
432.276
421.988
412.333
403.28
394.796
386.847
379.4
372.421
365.88
359.747
353.993
348.594
343.524
338.761
334.284
330.071
326.107
322.372
318.853
315.533
312.399
309.44
306.641
303.994
301.487
299.11
296.855
294.712
292.674
290.733
288.881
287.111
285.416
283.79
282.226
280.72
279.263
277.852
276.48
275.144
273.838
272.558
271.568
270.812
270.085
269.386
268.714
268.069
267.448
266.851
266.278
265.729
265.202
264.696
264.212
263.749
263.307
262.883
262.479
262.092
261.726
261.371
261.046
260.703
260.461
259.995
260.04
265.825
278.307
302.722
333.828
363.445
390.629
410.545
426
434.156
438.948
438.146
436.557
432.386
426.441
419.42
411.749
403.731
395.583
387.462
379.48
371.712
364.209
357.003
350.112
343.544
337.299
331.372
325.755
320.438
315.409
310.653
306.159
301.912
297.899
294.108
290.524
287.138
283.935
280.907
278.043
275.332
272.766
270.335
268.033
265.851
263.781
261.819
259.956
258.187
256.507
254.911
253.392
251.948
250.572
249.262
248.011
246.82
245.679
244.592
243.547
242.552
241.59
240.675
239.985
239.47
238.983
238.524
238.092
237.686
237.307
236.954
236.627
236.325
236.047
235.79
235.553
235.334
235.132
234.946
234.774
234.614
234.467
234.329
234.202
234.082
233.972
233.86
233.781
265.519
277.268
300.347
331.412
360.584
387.987
408.067
423.772
432.33
437.374
437.024
435.67
431.764
426.011
419.158
411.636
403.745
395.705
387.675
379.769
372.065
364.616
357.454
350.6
344.062
337.842
331.935
326.335
321.031
316.012
311.265
306.778
302.536
298.526
294.737
291.155
287.77
284.568
281.541
278.677
275.967
273.402
270.973
268.674
266.496
264.433
262.48
260.63
258.878
257.219
255.649
254.163
252.758
251.428
250.173
248.987
247.871
246.817
245.828
244.896
244.027
243.208
242.45
241.909
241.518
241.159
240.833
240.535
240.264
240.019
239.797
239.598
239.417
239.257
239.112
238.984
238.872
238.773
238.687
238.611
238.545
238.489
238.439
238.393
238.347
238.304
238.266
238.15
301.277
338.919
390.755
453.44
503.625
545.091
567.981
582.724
584.213
581.573
574.567
563.129
550.225
536.417
522.271
508.182
494.407
481.109
468.385
456.286
444.834
434.028
423.854
414.292
405.312
396.887
388.984
381.571
374.619
368.097
361.977
356.232
350.837
345.768
341.004
336.523
332.307
328.337
324.599
321.076
317.755
314.622
311.668
308.879
306.248
303.764
301.419
299.206
297.118
295.15
293.295
291.549
289.908
288.368
286.925
285.576
284.318
283.15
282.068
281.071
280.155
279.322
278.567
278.06
277.708
277.398
277.129
276.896
276.697
276.53
276.382
276.317
276.011
276.008
275.77
275.766
275.7
275.731
275.769
275.67
275.726
275.754
275.773
275.865
275.857
275.914
275.879
275.816
422.057
577.039
762.036
935.395
1033.13
1081.98
1077.02
1058.06
1019.73
974.55
928.982
884.611
842.746
803.886
768.139
735.428
705.569
678.341
653.512
630.855
610.158
591.226
573.882
557.97
543.346
529.887
517.478
506.022
495.428
485.618
476.52
468.073
460.218
452.906
446.09
439.731
433.79
428.235
423.036
418.165
413.599
409.314
405.292
401.515
397.965
394.629
391.494
388.548
385.779
383.18
380.74
378.456
376.316
374.32
372.457
370.729
369.126
367.651
366.292
365.059
363.934
362.931
362.029
361.438
361.036
360.686
360.394
360.143
359.95
359.758
359.723
359.355
359.275
359.32
359.107
359.08
359.074
359.091
359.105
359.228
359.363
359.347
359.376
359.49
359.512
359.624
359.633
359.552
907.201
1645.85
2160.43
2384.83
2341.12
2214.37
2020.98
1839.06
1676.37
1534.6
1412.67
1308.05
1218.13
1140.58
1073.38
1014.86
963.627
918.566
878.74
843.385
811.866
783.656
758.316
735.476
714.823
696.093
679.057
663.525
649.326
636.317
624.373
613.384
603.254
593.898
585.245
577.226
569.785
562.87
556.437
550.442
544.851
539.631
534.754
530.192
525.925
521.93
518.189
514.687
511.408
508.342
505.474
502.798
500.301
497.98
495.824
493.833
491.994
490.314
488.772
487.387
486.128
485.021
484.035
483.398
482.971
482.608
482.304
482.067
481.863
481.717
481.612
481.528
481.488
481.426
481.373
481.3
481.272
481.159
481.178
481.228
481.284
481.393
481.52
481.719
481.871
482.153
482.221
482.122
3040.55
4763.64
4904.64
4572.51
3906.22
3333.13
2868.54
2500.42
2208.43
1974.82
1785.9
1631.38
1503.6
1396.84
1306.79
1230.2
1164.51
1107.8
1058.5
1015.4
977.513
944.046
914.347
887.883
864.208
842.955
823.809
806.51
790.833
776.587
763.609
751.756
740.908
730.957
721.811
713.388
705.619
698.438
691.793
685.633
679.918
674.605
669.665
665.064
660.78
656.785
653.062
649.589
646.355
643.339
640.537
637.931
635.518
633.284
631.23
629.338
627.619
626.054
624.646
623.397
622.281
621.334
620.508
620.008
619.706
619.441
619.262
619.133
618.992
618.927
618.802
618.749
618.643
618.703
618.807
618.924
619.078
619.263
619.467
619.692
619.919
620.17
620.408
620.688
620.915
621.242
621.401
621.235
8470.96
9129.64
8007.96
6305.31
5021.17
4094.11
3420.43
2921.86
2544.95
2254.14
2025.5
1842.79
1694.59
1572.89
1471.76
1386.94
1315.12
1253.86
1201.22
1155.71
1116.13
1081.52
1051.11
1024.28
1000.51
979.36
960.483
943.574
928.383
914.692
902.322
891.112
880.932
871.661
863.203
855.467
848.381
841.873
835.891
830.378
825.296
820.598
816.257
812.235
808.514
805.061
801.868
798.902
796.168
793.627
791.297
789.137
787.174
785.361
783.74
782.248
780.955
779.77
778.78
777.91
777.194
776.644
776.191
776.015
775.919
775.899
775.757
775.769
775.875
776.075
776.299
776.555
776.835
777.144
777.476
777.823
778.182
778.549
778.923
779.303
779.684
780.072
780.456
780.85
781.228
781.628
781.986
781.796
15037.5
13476.8
10019.2
7393.8
5675.3
4526.72
3732.51
3164.31
2745.31
2428.27
2183
1989.73
1834.92
1709.27
1606.03
1520.38
1448.63
1388.08
1336.6
1292.56
1254.67
1221.9
1193.43
1168.57
1146.79
1127.62
1110.69
1095.7
1082.37
1070.48
1059.86
1050.33
1041.77
1034.04
1027.07
1020.75
1015.02
1009.8
1005.05
1000.72
996.754
993.123
989.796
986.744
983.944
981.375
979.022
976.862
974.898
973.095
971.478
969.998
968.691
967.522
966.508
965.632
964.925
964.295
963.895
963.535
963.458
963.295
963.408
963.643
963.951
964.307
964.697
965.121
965.581
966.07
966.589
967.129
967.691
968.267
968.857
969.452
970.057
970.658
971.266
971.862
972.468
973.049
973.652
974.207
974.813
975.315
975.961
975.731
21258.1
16699.3
11248.9
8000.19
6023.1
4758.45
3908.95
3313.57
2881.41
2558.67
2311.87
2119.51
1967.05
1844.64
1745.13
1663.52
1595.93
1539.6
1492.29
1452.36
1418.47
1389.56
1364.81
1343.51
1325.13
1309.2
1295.36
1283.28
1272.73
1263.46
1255.31
1248.11
1241.76
1236.11
1231.1
1226.62
1222.64
1219.06
1215.86
1212.98
1210.39
1208.06
1205.96
1204.07
1202.36
1200.84
1199.46
1198.25
1197.17
1196.23
1195.41
1194.72
1194.14
1193.73
1193.37
1193.27
1193.07
1193.14
1193.34
1193.69
1194.21
1194.84
1195.61
1196.42
1197.12
1197.87
1198.66
1199.48
1200.32
1201.18
1202.07
1202.96
1203.86
1204.77
1205.68
1206.58
1207.49
1208.38
1209.28
1210.13
1211.02
1211.83
1212.71
1213.45
1214.35
1214.97
1215.98
1215.68
26947
18764.6
11986.3
8328.12
6211.75
4898.42
4033.76
3436.7
3008.54
2692.29
2453.01
2268.56
2124.01
2009.42
1917.45
1843.13
1782.47
1732.78
1691.76
1657.77
1629.49
1605.86
1586.07
1569.41
1555.4
1543.52
1533.49
1524.96
1517.71
1511.53
1506.25
1501.72
1497.87
1494.54
1491.7
1489.24
1487.14
1485.33
1483.76
1482.41
1481.24
1480.26
1479.41
1478.71
1478.1
1477.64
1477.24
1476.98