/*--------------------------------*- C++ -*----------------------------------*\
| =========                 |                                                 |
| \\      /  F ield         | OpenFOAM: The Open Source CFD Toolbox           |
|  \\    /   O peration     | Version:  2306                                  |
|   \\  /    A nd           | Website:  www.openfoam.com                      |
|    \\/     M anipulation  |                                                 |
\*---------------------------------------------------------------------------*/
FoamFile
{
    version     2.0;
    format      ascii;
    arch        "LSB;label=32;scalar=64";
    class       volScalarField;
    location    "2000";
    object      k;
}
// * * * * * * * * * * * * * * * * * * * * * * * * * * * * * * * * * * * * * //

dimensions      [0 2 -2 0 0 0 0];

internalField   nonuniform List<scalar> 
20540
(
81.3485
204.677
81.3355
204.667
81.2486
204.607
81.0893
204.5
80.8427
204.333
80.4898
204.092
80.0071
203.76
79.3668
203.315
78.5361
202.732
77.476
201.979
76.1407
201.015
74.4765
199.792
72.4218
198.245
69.907
196.291
66.8571
193.822
63.196
190.693
58.8584
186.705
53.8124
181.582
48.0677
174.958
41.6699
166.385
34.7359
155.314
27.4966
141.125
20.4292
123.257
14.5196
101.527
10.9503
76.5912
9.13346
49.7073
8.14089
25.2397
7.58371
12.1552
7.18818
8.19259
6.87821
7.02745
6.75111
6.57852
6.71245
6.42723
6.71121
6.42424
6.74658
6.56617
6.86422
6.98584
7.14933
8.02951
7.53283
11.5
8.0765
23.1161
9.03595
45.6857
10.7641
71.5112
14.1453
95.8969
19.8793
117.468
26.8844
135.428
34.1771
149.827
41.261
161.143
47.8857
169.953
53.9126
176.787
59.2743
182.087
63.9235
186.238
67.8852
189.518
71.2192
192.124
73.9973
194.202
76.2923
195.863
78.1731
197.188
79.7016
198.245
80.9329
199.082
81.9141
199.741
82.686
200.254
83.2832
200.648
83.735
200.943
84.0664
201.158
84.2984
201.307
84.4486
201.404
84.5303
201.457
84.5532
201.473
35.2387
18.334
15.6768
14.2689
13.4121
12.8583
12.4731
12.1909
11.978
11.8132
11.6832
11.5788
11.4942
11.4245
11.3671
11.3189
11.2787
11.2445
11.2158
11.1911
11.17
11.1519
11.1363
11.1228
11.1109
11.1007
11.0918
11.0839
11.0771
11.071
11.0657
11.061
11.0568
11.0532
11.0499
11.047
11.0444
11.0422
11.0402
11.0386
11.0372
11.0362
11.0354
11.035
11.035
11.0353
11.0362
11.0375
11.0394
11.042
11.0455
11.0498
11.0552
11.0617
11.0696
11.079
11.09
11.1031
11.1183
11.136
11.1563
11.1797
11.2065
11.2325
11.2546
11.2782
11.3027
11.3292
11.3566
11.386
11.4165
11.4489
11.4827
11.5187
11.5565
11.5963
11.6391
11.6826
11.7322
11.7792
11.84
11.8881
11.9766
12.009
12.1599
12.215
12.4222
12.2078
29.8193
11.0793
8.75052
7.63799
7.00327
6.60546
6.33668
6.14375
5.99995
5.88972
5.80345
5.73458
5.67905
5.63348
5.59609
5.56473
5.53876
5.51665
5.4981
5.48223
5.46863
5.45705
5.44703
5.43841
5.43084
5.42431
5.4186
5.41362
5.40927
5.40538
5.40203
5.39902
5.39639
5.39408
5.392
5.39013
5.38847
5.38701
5.3857
5.38457
5.3836
5.38278
5.38213
5.38161
5.38126
5.38106
5.3811
5.38128
5.3817
5.38236
5.38334
5.38457
5.38623
5.38826
5.39073
5.39376
5.3973
5.40158
5.40645
5.41226
5.41872
5.42638
5.43484
5.44306
5.44991
5.4575
5.46494
5.47317
5.48121
5.49011
5.49878
5.50825
5.51734
5.52759
5.53691
5.54808
5.5573
5.56956
5.57784
5.5919
5.5982
5.6139
5.62084
5.62246
5.64304
5.64033
5.61266
5.65299
36.57
15.1762
12.314
10.8981
10.0662
9.53489
9.17134
8.908
8.7104
8.5582
8.43861
8.34286
8.26547
8.20184
8.14951
8.1056
8.06916
8.03813
8.01206
7.98976
7.97062
7.95431
7.94018
7.92804
7.91737
7.90815
7.9001
7.89306
7.88694
7.88143
7.87671
7.87245
7.86873
7.86547
7.86253
7.85989
7.85755
7.85548
7.85362
7.85204
7.85067
7.84951
7.84859
7.84786
7.84736
7.8471
7.84715
7.84743
7.84804
7.84898
7.85039
7.85217
7.85456
7.85747
7.86101
7.86535
7.87043
7.87657
7.88355
7.89187
7.90114
7.91211
7.92423
7.93593
7.94571
7.95661
7.96731
7.97913
7.99069
8.00346
8.01595
8.02953
8.04264
8.05726
8.07074
8.08654
8.10001
8.1173
8.12986
8.14951
8.15984
8.1814
8.19295
8.19592
8.22504
8.21013
8.22625
8.07132
41.9469
17.916
14.8068
13.3161
12.4393
11.8767
11.49
11.2089
10.9973
10.834
10.7054
10.6023
10.5189
10.4502
10.3937
10.3462
10.3068
10.2732
10.245
10.2208
10.2001
10.1824
10.1671
10.1539
10.1423
10.1323
10.1236
10.1159
10.1093
10.1033
10.0982
10.0935
10.0895
10.0859
10.0827
10.0799
10.0773
10.0751
10.0731
10.0713
10.0699
10.0686
10.0676
10.0668
10.0663
10.066
10.0661
10.0664
10.0671
10.0681
10.0697
10.0717
10.0744
10.0776
10.0815
10.0864
10.092
10.0988
10.1065
10.1158
10.126
10.1382
10.1516
10.1645
10.1753
10.1873
10.1992
10.2122
10.225
10.2391
10.2529
10.2679
10.2824
10.2984
10.3135
10.3307
10.3458
10.3644
10.379
10.3997
10.4128
10.4346
10.4499
10.4549
10.486
10.4672
10.5329
10.213
46.2949
19.4842
16.0202
14.4613
13.5631
12.9895
12.5962
12.3105
12.0955
11.9295
11.7987
11.6938
11.6089
11.539
11.4815
11.4332
11.393
11.3588
11.3301
11.3055
11.2843
11.2663
11.2507
11.2373
11.2255
11.2153
11.2064
11.1986
11.1918
11.1857
11.1805
11.1758
11.1716
11.168
11.1648
11.1619
11.1592
11.1569
11.1549
11.1531
11.1516
11.1503
11.1492
11.1483
11.1477
11.1473
11.1473
11.1475
11.148
11.1488
11.1501
11.1518
11.1541
11.1569
11.1603
11.1646
11.1695
11.1755
11.1823
11.1904
11.1994
11.2101
11.2218
11.2331
11.2424
11.2529
11.2631
11.2745
11.2854
11.2975
11.3092
11.3219
11.3339
11.3474
11.3596
11.374
11.3857
11.4012
11.4118
11.4288
11.4374
11.4548
11.4631
11.4675
11.485
11.4647
11.528
11.1957
50.1293
20.7005
16.7323
15.0649
14.1389
13.556
13.1594
12.8726
12.6571
12.4908
12.3599
12.2549
12.17
12.1
12.0425
11.9941
11.954
11.9198
11.891
11.8664
11.8453
11.8273
11.8117
11.7983
11.7865
11.7763
11.7674
11.7597
11.7529
11.7468
11.7416
11.7369
11.7328
11.7292
11.7259
11.723
11.7204
11.7181
11.716
11.7142
11.7127
11.7113
11.7102
11.7092
11.7085
11.708
11.7078
11.7078
11.7081
11.7086
11.7095
11.7107
11.7125
11.7146
11.7173
11.7206
11.7245
11.7292
11.7345
11.741
11.7481
11.7566
11.7657
11.7746
11.7817
11.79
11.7978
11.8066
11.8148
11.8241
11.8328
11.8424
11.851
11.8611
11.8694
11.8801
11.8875
11.8988
11.9046
11.9166
11.9202
11.9317
11.9326
11.9361
11.9384
11.9201
11.9575
11.668
53.6947
21.8847
17.283
15.4464
14.4735
13.8765
13.4762
13.1892
12.9744
12.8091
12.6792
12.5751
12.4909
12.4217
12.3647
12.3169
12.2772
12.2433
12.2149
12.1906
12.1697
12.152
12.1366
12.1234
12.1118
12.1017
12.0929
12.0852
12.0786
12.0726
12.0675
12.0629
12.0588
12.0553
12.0521
12.0492
12.0466
12.0443
12.0422
12.0405
12.0389
12.0375
12.0364
12.0353
12.0346
12.0339
12.0335
12.0333
12.0333
12.0335
12.034
12.0348
12.0359
12.0373
12.0391
12.0415
12.0442
12.0476
12.0513
12.056
12.0609
12.0671
12.0734
12.0798
12.0847
12.0906
12.0959
12.1021
12.1075
12.114
12.1195
12.1259
12.1312
12.1378
12.1424
12.1492
12.1527
12.1596
12.1615
12.1682
12.1675
12.1735
12.1687
12.1705
12.1617
12.1468
12.1541
11.9324
57.1135
23.1482
17.821
15.7444
14.6933
14.0707
13.6629
13.375
13.1614
12.9978
12.8697
12.7673
12.6846
12.6167
12.5608
12.5139
12.4751
12.442
12.4142
12.3905
12.3701
12.3528
12.3378
12.3249
12.3136
12.3038
12.2953
12.2878
12.2814
12.2755
12.2706
12.2661
12.2621
12.2587
12.2556
12.2528
12.2503
12.2481
12.246
12.2443
12.2427
12.2414
12.2402
12.2391
12.2383
12.2375
12.237
12.2365
12.2363
12.2362
12.2363
12.2365
12.2371
12.2378
12.2388
12.2401
12.2417
12.2438
12.246
12.2489
12.2517
12.2556
12.2592
12.2632
12.2659
12.2695
12.2724
12.2761
12.2789
12.2825
12.2852
12.2886
12.2908
12.2941
12.2955
12.2987
12.2991
12.3016
12.3003
12.3025
12.2982
12.3001
12.291
12.2906
12.2745
12.2643
12.2484
12.0824
60.4521
24.5283
18.4204
16.0343
14.8632
14.1958
13.7724
13.4805
13.2673
13.1055
12.9797
12.8795
12.7989
12.7328
12.6786
12.6332
12.5957
12.5637
12.5369
12.514
12.4944
12.4777
12.4633
12.451
12.4401
12.4307
12.4225
12.4154
12.4093
12.4037
12.399
12.3947
12.3909
12.3877
12.3847
12.3821
12.3797
12.3775
12.3756
12.3739
12.3724
12.3711
12.3699
12.3688
12.3679
12.3671
12.3664
12.3658
12.3653
12.3649
12.3647
12.3645
12.3645
12.3646
12.3647
12.3652
12.3656
12.3665
12.3672
12.3684
12.3694
12.3711
12.3722
12.3739
12.3746
12.376
12.3767
12.3782
12.3786
12.3798
12.3799
12.3806
12.3801
12.3805
12.3793
12.3793
12.3769
12.3763
12.3719
12.3711
12.3635
12.3625
12.3502
12.3475
12.3273
12.3188
12.2928
12.1638
63.749
26.0377
19.1189
16.3663
15.0276
14.288
13.8352
13.5328
13.3171
13.1561
13.0324
12.9348
12.8567
12.793
12.741
12.6974
12.6616
12.6311
12.6057
12.584
12.5654
12.5497
12.5361
12.5245
12.5143
12.5054
12.4978
12.4911
12.4854
12.4802
12.4758
12.4718
12.4684
12.4654
12.4626
12.4602
12.4579
12.456
12.4542
12.4526
12.4512
12.4499
12.4488
12.4477
12.4468
12.446
12.4451
12.4444
12.4438
12.4431
12.4426
12.4419
12.4415
12.4409
12.4404
12.44
12.4395
12.4392
12.4386
12.4384
12.4376
12.4374
12.4363
12.4359
12.4349
12.4345
12.4333
12.4328
12.4312
12.4303
12.4281
12.4268
12.4239
12.4222
12.4183
12.4162
12.4111
12.4085
12.4013
12.3984
12.3883
12.385
12.3707
12.366
12.344
12.3353
12.3066
12.2044
67.026
27.6829
19.9337
16.7753
15.2227
14.3771
13.8746
13.5507
13.3269
13.164
13.0412
12.9457
12.8702
12.8091
12.7596
12.7184
12.6848
12.6562
12.6325
12.6124
12.5951
12.5806
12.5681
12.5575
12.5481
12.5401
12.5331
12.5271
12.5219
12.5172
12.5133
12.5097
12.5066
12.504
12.5015
12.4993
12.4973
12.4956
12.494
12.4926
12.4913
12.4902
12.4891
12.4881
12.4873
12.4864
12.4856
12.4847
12.484
12.4831
12.4824
12.4814
12.4805
12.4795
12.4784
12.4773
12.4759
12.4747
12.4729
12.4716
12.4692
12.4675
12.4643
12.4626
12.4598
12.4582
12.4552
12.4533
12.4497
12.4475
12.4432
12.4406
12.4354
12.4324
12.4262
12.4227
12.4153
12.4114
12.4022
12.3978
12.386
12.3811
12.3656
12.3593
12.3366
12.3268
12.2984
12.2142
70.294
29.4703
20.8719
17.2833
15.4788
14.4915
13.9135
13.5518
13.3103
13.1401
13.0153
12.9204
12.8469
12.7882
12.7414
12.7027
12.6715
12.6452
12.6236
12.6053
12.5897
12.5768
12.5657
12.5563
12.548
12.541
12.5349
12.5297
12.5253
12.5213
12.5179
12.5149
12.5123
12.5101
12.5081
12.5062
12.5045
12.5031
12.5017
12.5006
12.4996
12.4985
12.4977
12.4968
12.496
12.4952
12.4944
12.4936
12.4927
12.4917
12.4908
12.4896
12.4885
12.4871
12.4855
12.4839
12.4818
12.4799
12.4772
12.4749
12.4713
12.4685
12.4637
12.4608
12.4568
12.4543
12.4497
12.4469
12.4417
12.4386
12.4326
12.429
12.4222
12.4182
12.4104
12.406
12.397
12.3921
12.3816
12.3762
12.3634
12.3573
12.3412
12.3337
12.3109
12.2999
12.2724
12.2012
73.5542
31.4072
21.9368
17.9023
15.8192
14.6575
13.9755
13.5549
13.2817
13.0954
12.9632
12.8658
12.7923
12.735
12.6903
12.6541
12.6254
12.6015
12.5822
12.5661
12.5524
12.5414
12.5319
12.524
12.5171
12.5113
12.5064
12.5022
12.4987
12.4955
12.493
12.4906
12.4887
12.487
12.4855
12.4842
12.4829
12.4818
12.4808
12.48
12.4793
12.4785
12.4779
12.4772
12.4766
12.4759
12.4752
12.4744
12.4735
12.4725
12.4716
12.4702
12.4689
12.4672
12.4654
12.4634
12.4609
12.4585
12.4552
12.4522
12.4477
12.444
12.4381
12.4344
12.4295
12.4263
12.4208
12.4173
12.411
12.4072
12.4001
12.3959
12.388
12.3834
12.3746
12.3696
12.3596
12.3541
12.3428
12.3367
12.3234
12.3166
12.3002
12.2919
12.2697
12.2567
12.2312
12.1703
76.7977
33.5012
23.132
18.6382
16.2592
14.8978
14.0844
13.5813
13.2584
13.0432
12.895
12.7893
12.7122
12.6541
12.6101
12.5754
12.5487
12.527
12.51
12.4962
12.4847
12.4756
12.468
12.4618
12.4566
12.4522
12.4486
12.4456
12.4433
12.4412
12.4395
12.4381
12.4369
12.436
12.4351
12.4344
12.4336
12.4331
12.4325
12.4321
12.4317
12.4313
12.431
12.4306
12.4302
12.4297
12.4291
12.4285
12.4278
12.4269
12.4259
12.4245
12.4232
12.4214
12.4194
12.4172
12.4145
12.4118
12.4081
12.4048
12.3997
12.3956
12.3889
12.3848
12.3794
12.3758
12.3696
12.3658
12.3589
12.3547
12.347
12.3424
12.3339
12.329
12.3196
12.3143
12.3039
12.2981
12.2864
12.28
12.2665
12.2593
12.2429
12.234
12.2127
12.1976
12.1743
12.1233
80.0042
35.7584
24.4628
19.4939
16.8076
15.2289
14.2617
13.6529
13.2602
13.0001
12.8239
12.7013
12.6145
12.5512
12.505
12.4698
12.4439
12.4236
12.4083
12.3964
12.3869
12.3798
12.3741
12.3698
12.3663
12.3635
12.3614
12.3598
12.3588
12.3579
12.3573
12.3569
12.3566
12.3566
12.3565
12.3565
12.3564
12.3565
12.3565
12.3566
12.3567
12.3567
12.3567
12.3567
12.3566
12.3565
12.3561
12.3557
12.3552
12.3544
12.3536
12.3523
12.3511
12.3493
12.3474
12.3451
12.3424
12.3396
12.3358
12.3323
12.3271
12.3228
12.3158
12.3115
12.3059
12.3021
12.2958
12.2918
12.2847
12.2803
12.2724
12.2677
12.259
12.254
12.2445
12.2391
12.2286
12.2227
12.211
12.2044
12.191
12.1836
12.1674
12.1581
12.1373
12.1218
12.0975
12.0576
83.1383
38.1814
25.9361
20.4728
17.4689
15.6615
14.5242
13.7902
13.3078
12.9853
12.7665
12.6154
12.5101
12.435
12.3817
12.3425
12.3147
12.2938
12.279
12.268
12.2598
12.2543
12.2502
12.2475
12.2456
12.2445
12.2439
12.2438
12.2441
12.2444
12.2451
12.2458
12.2466
12.2475
12.2483
12.2491
12.2498
12.2506
12.2513
12.252
12.2527
12.2532
12.2538
12.2541
12.2545
12.2546
12.2546
12.2546
12.2543
12.2538
12.2532
12.2522
12.251
12.2495
12.2477
12.2456
12.243
12.2403
12.2367
12.2333
12.2281
12.2238
12.217
12.2127
12.2072
12.2034
12.1972
12.1931
12.1862
12.1818
12.1741
12.1694
12.1608
12.1558
12.1465
12.1411
12.1308
12.1249
12.1134
12.1068
12.0937
12.0861
12.0702
12.0606
12.0399
12.0257
11.9976
11.9707
86.1442
40.7648
27.559
21.5788
18.2458
16.201
14.8826
14.0092
13.4206
13.0188
12.7419
12.549
12.4139
12.318
12.2504
12.2016
12.1675
12.1428
12.1257
12.1137
12.1053
12.1002
12.0968
12.0951
12.0944
12.0945
12.0951
12.0963
12.0979
12.0994
12.1012
12.1031
12.1049
12.1068
12.1085
12.1102
12.1118
12.1133
12.1148
12.1161
12.1175
12.1185
12.1197
12.1205
12.1214
12.1219
12.1224
12.1227
12.1226
12.1225
12.1222
12.1215
12.1206
12.1193
12.1178
12.116
12.1136
12.1113
12.1079
12.1048
12.1
12.0958
12.0894
12.0852
12.0801
12.0764
12.0706
12.0666
12.06
12.0557
12.0483
12.0437
12.0356
12.0306
12.0216
12.0163
12.0063
12.0005
11.9893
11.9828
11.9699
11.9623
11.9467
11.937
11.9166
11.903
11.8727
11.857
88.9358
43.4903
29.3363
22.8168
19.1404
16.8498
15.3428
14.3202
13.6134
13.1185
12.7692
12.5207
12.3436
12.2162
12.1252
12.0592
12.0125
11.9788
11.9554
11.939
11.9278
11.9209
11.9165
11.9144
11.9137
11.914
11.9152
11.9171
11.9195
11.9218
11.9245
11.9272
11.9298
11.9325
11.9351
11.9376
11.94
11.9422
11.9444
11.9463
11.9484
11.95
11.9517
11.953
11.9543
11.9553
11.9563
11.9569
11.9574
11.9576
11.9573
11.9571
11.9565
11.9556
11.9545
11.953
11.951
11.949
11.9461
11.9433
11.939
11.9351
11.9292
11.9253
11.9206
11.9171
11.9118
11.9078
11.9018
11.8975
11.8907
11.8861
11.8785
11.8736
11.8651
11.8598
11.8503
11.8445
11.8336
11.8271
11.8145
11.8068
11.7915
11.7818
11.762
11.7491
11.7176
11.7113
91.38
46.3208
31.2668
24.1898
20.1544
17.6085
15.9065
14.7284
13.8952
13.2971
12.8642
12.5483
12.3174
12.1474
12.0229
11.9307
11.8637
11.8143
11.7788
11.7533
11.7351
11.7229
11.7146
11.7097
11.7071
11.7059
11.7063
11.7075
11.7096
11.7119
11.7147
11.7177
11.7206
11.7237
11.7267
11.7297
11.7325
11.7352
11.738
11.7403
11.7429
11.7449
11.747
11.7487
11.7504
11.7518
11.7532
11.7542
11.7551
11.7557
11.7555
11.7555
11.755
11.7548
11.754
11.7528
11.7512
11.7495
11.7473
11.7448
11.741
11.7374
11.7321
11.7284
11.7242
11.7208
11.716
11.7122
11.7067
11.7025
11.6962
11.6916
11.6846
11.6796
11.6716
11.6662
11.6572
11.6513
11.6408
11.6342
11.6218
11.614
11.5991
11.5893
11.5703
11.5585
11.527
11.5279
93.2688
49.1964
33.3371
25.6954
21.2866
18.4755
16.5722
15.2336
14.2689
13.5615
13.0372
12.645
12.3508
12.1283
11.9607
11.8333
11.7374
11.6647
11.6102
11.5694
11.5388
11.5167
11.5005
11.489
11.4814
11.4762
11.4733
11.4719
11.4718
11.4726
11.4741
11.4763
11.4783
11.4809
11.4836
11.4863
11.489
11.4917
11.4944
11.4968
11.4994
11.5015
11.5037
11.5055
11.5074
11.5089
11.5105
11.5116
11.5128
11.5136
11.5136
11.5135
11.5134
11.5133
11.5128
11.5118
11.5104
11.5087
11.5074
11.5052
11.5018
11.4985
11.4937
11.4901
11.4863
11.483
11.4787
11.4749
11.4698
11.4656
11.4599
11.4551
11.4486
11.4434
11.436
11.4303
11.4218
11.4154
11.4056
11.3984
11.3867
11.3783
11.3641
11.3542
11.3363
11.3258
11.2961
11.2999
94.2759
52.0213
35.5116
27.3181
22.5279
19.4438
17.3338
15.8312
14.7319
13.9115
13.2914
12.8174
12.4531
12.1709
11.9524
11.7819
11.6493
11.5458
11.4652
11.4024
11.3534
11.3158
11.2865
11.2641
11.2473
11.2343
11.2249
11.218
11.2133
11.2101
11.2082
11.2076
11.207
11.2076
11.2086
11.2099
11.2114
11.213
11.2148
11.2164
11.2184
11.2197
11.2214
11.2227
11.2243
11.2256
11.2269
11.2278
11.2288
11.2294
11.2292
11.2292
11.2291
11.2291
11.2285
11.2276
11.226
11.2239
11.2233
11.2213
11.2182
11.2148
11.2103
11.2067
11.2032
11.1998
11.1957
11.1919
11.1872
11.1828
11.1774
11.1724
11.1663
11.1608
11.1538
11.1476
11.1396
11.1327
11.1233
11.1155
11.1045
11.0956
11.0822
11.0722
11.0557
11.0458
11.0198
11.0253
93.92
54.6365
37.7132
29.0167
23.8525
20.4946
18.1764
16.5087
15.2738
14.3394
13.6218
13.0634
12.6257
12.2795
12.005
11.7858
11.6106
11.4699
11.357
11.2662
11.1929
11.134
11.0864
11.048
11.0173
10.9924
10.9725
10.9564
10.9438
10.9336
10.9256
10.9195
10.9144
10.9107
10.9079
10.9059
10.9045
10.9035
10.903
10.9027
10.9026
10.902
10.9024
10.9022
10.9028
10.9031
10.9034
10.9032
10.9034
10.9035
10.9027
10.9026
10.902
10.9015
10.9005
10.899
10.8971
10.895
10.8938
10.8914
10.8881
10.8844
10.8797
10.8759
10.8724
10.8688
10.8648
10.8607
10.8561
10.8514
10.8461
10.8409
10.8348
10.829
10.8221
10.8155
10.8077
10.8003
10.7913
10.783
10.7724
10.7632
10.7507
10.7407
10.7256
10.7164
10.6938
10.7002
91.4467
56.7729
39.7909
30.7018
25.2015
21.5854
19.0671
17.2391
15.8721
14.8262
14.0125
13.3705
12.8591
12.4478
12.1153
11.8445
11.6232
11.4416
11.2921
11.1687
11.0663
10.9815
10.911
10.852
10.8031
10.7618
10.7274
10.6983
10.6741
10.6535
10.6361
10.6215
10.6091
10.5985
10.5896
10.582
10.5756
10.5701
10.5654
10.5613
10.5579
10.5546
10.552
10.5494
10.5473
10.5454
10.5436
10.5419
10.5402
10.5387
10.537
10.5354
10.5336
10.5317
10.5297
10.5273
10.5247
10.5221
10.5191
10.5158
10.5117
10.5072
10.5019
10.4975
10.4936
10.4897
10.4853
10.4808
10.4759
10.4709
10.4654
10.4597
10.4535
10.4472
10.4402
10.4332
10.4254
10.4176
10.4087
10.4001
10.3899
10.3806
10.3688
10.3591
10.3453
10.3368
10.3171
10.3237
85.754
57.9775
41.457
32.1983
26.456
22.6295
19.9388
17.9685
16.4819
15.3336
14.4308
13.7102
13.1289
12.6549
12.2658
11.9439
11.6763
11.4526
11.2648
11.1066
10.9727
10.8591
10.7624
10.6797
10.609
10.5481
10.4958
10.4504
10.4112
10.3771
10.3474
10.3215
10.2987
10.2787
10.2611
10.2455
10.2318
10.2195
10.2086
10.1988
10.1901
10.1821
10.175
10.1684
10.1624
10.1569
10.1518
10.147
10.1425
10.1382
10.1341
10.1302
10.1262
10.1223
10.1183
10.1142
10.11
10.1056
10.101
10.096
10.0905
10.0847
10.0781
10.0727
10.0681
10.0634
10.0584
10.0532
10.0478
10.0421
10.0361
10.0298
10.0232
10.0164
10.0091
10.0016
9.99353
9.98539
9.97645
9.96766
9.95776
9.94847
9.93746
9.92813
9.9156
9.90767
9.89045
9.8967
75.3034
57.6125
42.1955
33.1724
27.3877
23.4601
20.6629
18.5935
17.0174
15.7887
14.8134
14.0272
13.3861
12.8574
12.4179
12.0497
11.7392
11.476
11.2515
11.0593
10.894
10.7512
10.6276
10.5199
10.4261
10.3438
10.2717
10.208
10.1518
10.1019
10.0576
10.0181
9.98287
9.95122
9.92282
9.89719
9.8741
9.85312
9.83415
9.81679
9.80104
9.78654
9.77327
9.76101
9.74969
9.73919
9.7294
9.72025
9.71165
9.70352
9.69578
9.68838
9.68122
9.67425
9.66738
9.66062
9.65378
9.64695
9.63988
9.63268
9.62506
9.61714
9.60863
9.60164
9.59598
9.59016
9.58416
9.578
9.57162
9.56506
9.55825
9.55125
9.54396
9.53646
9.52863
9.52062
9.51222
9.5037
9.49469
9.48573
9.47609
9.46689
9.45653
9.44755
9.43616
9.42834
9.41368
9.4191
60.6257
52.721
41.0849
33.0718
27.6044
23.7828
21.0083
18.9264
17.3221
16.0582
15.0449
14.22
13.5403
12.974
12.4981
12.0948
11.7508
11.4554
11.2004
10.9792
10.7864
10.6175
10.4692
10.3383
10.2225
10.1195
10.0279
9.94584
9.87239
9.80631
9.74679
9.69297
9.64423
9.59994
9.55964
9.52284
9.48923
9.45838
9.4301
9.40403
9.38002
9.3578
9.33723
9.31812
9.30033
9.28374
9.2682
9.25362
9.23988
9.2269
9.21457
9.20282
9.19152
9.18065
9.17006
9.15976
9.14955
9.13948
9.12933
9.11917
9.10873
9.09809
9.08698
9.07798
9.07082
9.06358
9.05624
9.04879
9.04122
9.03353
9.02569
9.01771
9.00956
9.00126
8.99275
8.98413
8.97528
8.96637
8.95718
8.94808
8.93858
8.92947
8.91962
8.91093
8.90036
8.89311
8.87953
8.88433
41.4327
41.6493
36.9325
30.9782
26.4448
23.1067
20.5912
18.6555
17.1349
15.9184
14.9298
14.1151
13.4359
12.8636
12.3773
11.9605
11.6009
11.2887
11.016
10.7767
10.5656
10.3786
10.2123
10.0639
9.93094
9.81141
9.70373
9.60632
9.51805
9.43779
9.36469
9.2979
9.23679
9.18072
9.12919
9.08172
9.03794
8.99744
8.95996
8.92517
8.89286
8.86277
8.83471
8.8085
8.78396
8.76095
8.73932
8.71895
8.6997
8.68147
8.66414
8.64763
8.6318
8.6166
8.60187
8.5876
8.57361
8.55989
8.54625
8.53273
8.51906
8.5053
8.4912
8.47987
8.47099
8.4621
8.45321
8.4443
8.43537
8.4264
8.41739
8.40832
8.3992
8.39002
8.38077
8.3715
8.36215
8.35283
8.34342
8.33415
8.32472
8.31566
8.30615
8.29767
8.28767
8.28098
8.26794
8.27224
20.4384
27.1521
27.1573
25.7285
22.9887
20.7222
18.8398
17.3071
16.0542
15.0214
14.1618
13.4389
12.8256
12.3006
11.8477
11.4542
11.1101
10.8075
10.5399
10.302
10.0898
9.89951
9.72841
9.5739
9.43403
9.30694
9.19121
9.08551
8.98877
8.89998
8.81836
8.74315
8.67373
8.60952
8.55005
8.49486
8.44357
8.39582
8.35132
8.30977
8.27093
8.23457
8.20047
8.16847
8.13836
8.11001
8.08325
8.05796
8.03399
8.01124
7.98956
7.96887
7.94903
7.92997
7.91155
7.8937
7.87627
7.85924
7.8424
7.82578
7.80912
7.79248
7.77559
7.76209
7.75161
7.7412
7.73089
7.72065
7.71048
7.70038
7.69033
7.68033
7.67038
7.6605
7.65066
7.6409
7.63119
7.62162
7.61209
7.60277
7.59345
7.58453
7.57535
7.56713
7.55766
7.55123
7.53901
7.5428
9.90637
13.6706
15.9686
16.9438
16.7221
16.1186
15.2389
14.4079
13.6505
12.9774
12.3851
11.8649
11.4076
11.0043
10.6472
10.3297
10.0462
9.79213
9.56347
9.35691
9.16975
8.99957
8.84443
8.70256
8.57256
8.45311
8.34314
8.24168
8.1479
8.06105
7.98051
7.90568
7.83607
7.7712
7.7107
7.65417
7.6013
7.55179
7.50538
7.46182
7.42089
7.38238
7.34611
7.3119
7.2796
7.24907
7.22014
7.19271
7.16664
7.14182
7.11812
7.09544
7.07367
7.05271
7.03245
7.0128
6.99364
6.97491
6.95644
6.93823
6.92006
6.90196
6.88371
6.86919
6.85798
6.84692
6.83603
6.82529
6.8147
6.80426
6.79396
6.78381
6.77379
6.76393
6.75422
6.74467
6.73528
6.72609
6.71705
6.70827
6.69959
6.6913
6.68293
6.67537
6.66686
6.66107
6.64999
6.65298
7.28971
7.99581
8.90199
9.74221
10.229
10.4491
10.4202
10.3154
10.1085
9.86985
9.62254
9.37808
9.14322
8.92103
8.71276
8.51854
8.33799
8.17037
8.01486
7.87057
7.73665
7.61225
7.49663
7.38904
7.28886
7.19546
7.10833
7.02695
6.95088
6.8797
6.81304
6.75056
6.69195
6.63692
6.58521
6.53659
6.49082
6.44772
6.40708
6.36875
6.33255
6.29835
6.26599
6.23536
6.20633
6.17878
6.15261
6.12771
6.10399
6.08133
6.05967
6.03889
6.01892
5.99965
5.98102
5.96294
5.94532
5.92808
5.91112
5.89441
5.87781
5.86131
5.84476
5.83173
5.82176
5.81197
5.80239
5.79301
5.78382
5.77484
5.76605
5.75745
5.74905
5.74086
5.73286
5.72508
5.71749
5.71013
5.70297
5.69605
5.68931
5.68287
5.67649
5.67065
5.66433
5.65984
5.65153
5.65321
6.57972
6.66582
6.84936
7.09113
7.30211
7.45281
7.54147
7.55683
7.54112
7.49907
7.42312
7.33362
7.23588
7.13383
7.03051
6.92799
6.82767
6.73045
6.63689
6.54731
6.46187
6.3806
6.30345
6.23032
6.16109
6.09558
6.03365
5.97512
5.9198
5.86753
5.81814
5.77146
5.72734
5.68563
5.6462
5.60889
5.57359
5.54017
5.50853
5.47855
5.45014
5.42319
5.39762
5.37334
5.35027
5.32834
5.30747
5.28758
5.26863
5.25052
5.23322
5.21664
5.20075
5.18544
5.17073
5.15649
5.14273
5.12933
5.11633
5.10359
5.09115
5.07889
5.06688
5.05771
5.05085
5.04422
5.03784
5.0317
5.0258
5.02013
5.01469
5.00947
5.00446
4.99967
4.99509
4.99071
4.98652
4.98251
4.97869
4.97505
4.97156
4.96825
4.96506
4.96207
4.95904
4.95669
4.95252
4.95271
6.31285
6.31029
6.33083
6.38363
6.46704
6.53069
6.58748
6.60453
6.60021
6.58509
6.55442
6.50752
6.45027
6.38661
6.31898
6.24924
6.17881
6.10872
6.03976
5.97246
5.9072
5.84423
5.78371
5.72571
5.67026
5.61734
5.56692
5.51893
5.4733
5.42992
5.38873
5.34962
5.3125
5.27726
5.24383
5.2121
5.18198
5.1534
5.12627
5.10051
5.07605
5.05282
5.03075
5.00978
4.98986
4.97091
4.95291
4.93578
4.9195
4.904
4.88927
4.87523
4.86189
4.84915
4.83706
4.82549
4.81451
4.80399
4.79402
4.78443
4.77537
4.7666
4.75841
4.75245
4.74816
4.74414
4.74039
4.73688
4.73361
4.73056
4.72773
4.72508
4.72263
4.72034
4.71822
4.71624
4.71438
4.71265
4.71103
4.70952
4.70809
4.70676
4.70549
4.7043
4.70317
4.7021
4.70101
4.70022
6.30497
6.2965
6.31313
6.364
6.44551
6.51225
6.56925
6.59035
6.58696
6.57362
6.54595
6.50131
6.44605
6.38417
6.3181
6.24972
6.18045
6.11137
6.04326
5.9767
5.91208
5.84965
5.78959
5.73199
5.67688
5.62425
5.57408
5.52629
5.48083
5.43761
5.39654
5.35753
5.32049
5.28532
5.25195
5.22026
5.19019
5.16163
5.13453
5.10879
5.08436
5.06115
5.03911
5.01818
4.99829
4.97941
4.96149
4.94448
4.92834
4.91302
4.89851
4.88474
4.87172
4.85938
4.84775
4.83672
4.82638
4.81658
4.80744
4.7988
4.79081
4.78326
4.77639
4.7717
4.76848
4.76558
4.76297
4.76064
4.75856
4.7567
4.7551
4.7537
4.75255
4.75152
4.75098
4.74864
4.74821
4.74798
4.74636
4.74625
4.74569
4.7454
4.74442
4.74481
4.74423
4.74418
4.74426
4.74427
6.54843
6.61866
6.7762
7.02249
7.22446
7.38798
7.47993
7.50906
7.49867
7.46569
7.40061
7.3188
7.2278
7.13157
7.03325
6.935
6.83831
6.74418
6.65325
6.5659
6.48234
6.40267
6.32687
6.25489
6.18661
6.12192
6.06067
6.00269
5.94784
5.89595
5.84687
5.80044
5.75652
5.71496
5.67565
5.63843
5.6032
5.56984
5.53826
5.50834
5.48
5.45314
5.42771
5.4036
5.38079
5.35917
5.33872
5.31937
5.30108
5.28382
5.26755
5.25223
5.23785
5.22437
5.2118
5.20007
5.18924
5.1792
5.17005
5.16167
5.15417
5.14743
5.14154
5.13802
5.13587
5.13403
5.13313
5.12961
5.12952
5.12647
5.1257
5.12512
5.12688
5.1261
5.12617
5.1266
5.12793
5.12778
5.1289
5.13036
5.13178
5.13316
5.13451
5.13591
5.1373
5.1388
5.1404
5.14009
7.20665
7.82972
8.68604
9.54827
10.0269
10.2966
10.2839
10.2035
10.0311
9.81217
9.58209
9.35205
9.1291
8.91681
8.71672
8.52931
8.35439
8.19148
8.03989
7.89887
7.76765
7.64552
7.53176
7.42573
7.32681
7.23446
7.14816
7.06746
6.99191
6.92114
6.85478
6.79251
6.73404
6.67908
6.62741
6.57877
6.53299
6.48983
6.44916
6.41077
6.37458
6.3404
6.30815
6.27768
6.24894
6.2218
6.19621
6.17209
6.14937
6.128
6.10794
6.08914
6.07158
6.0552
6.04004
6.02596
6.01314
6.0013
5.99075
5.98113
5.97274
5.96536
5.95909
5.95543
5.95363
5.95166
5.9497
5.94787
5.94649
5.94383
5.94333
5.94296
5.94321
5.94356
5.94544
5.94785
5.95009
5.95219
5.9542
5.95617
5.95815
5.96019
5.9623
5.96449
5.96672
5.96907
5.97096
5.97116
9.49738
12.9083
15.2633
16.3847
16.2432
15.7811
14.9914
14.2238
13.5167
12.8806
12.3163
11.8178
11.3772
10.9872
10.6405
10.3314
10.0546
9.80582
9.58137
9.37819
9.19364
9.02553
8.87193
8.73125
8.60205
8.48318
8.37352
8.27221
8.1784
8.09142
8.01061
7.93544
7.86541
7.80009
7.73908
7.68201
7.62862
7.57855
7.53163
7.48755
7.44618
7.40725
7.37068
7.33624
7.30387
7.2734
7.24476
7.21782
7.19252
7.1688
7.14657
7.1258
7.10642
7.08841
7.07174
7.05636
7.04229
7.02945
7.01786
7.00755
6.99828
6.99049
6.98349
6.9797
6.97735
6.97565
6.97421
6.97394
6.97118
6.97157
6.97158
6.96997
6.97124
6.97137
6.97123
6.97131
6.97218
6.97352
6.9751
6.97691
6.97893
6.98121
6.98358
6.9862
6.98859
6.99153
6.99322
6.9932
18.6499
25.5962
26.1581
24.9556
22.5358
20.4246
18.6435
17.1772
15.9709
14.9715
14.136
13.4311
12.8309
12.3159
11.8704
11.4824
11.1422
10.8424
10.5766
10.3399
10.1281
9.93792
9.76646
9.61135
9.47057
9.34245
9.22548
9.11847
9.02028
8.93004
8.84688
8.77013
8.69914
8.63338
8.57235
8.51563
8.46285
8.41364
8.36776
8.32484
8.28478
8.24722
8.2121
8.17914
8.14829
8.11933
8.0922
8.06679
8.04297
8.02072
7.99992
7.98055
7.96252
7.94584
7.93041
7.91628
7.90331
7.89163
7.88101
7.87173
7.86335
7.85638
7.85023
7.84688
7.8449
7.84385
7.84054
7.8405
7.83782
7.83914
7.83795
7.83893
7.83816
7.8391
7.83946
7.84076
7.84247
7.84416
7.84585
7.84765
7.84955
7.85165
7.85379
7.85618
7.85833
7.86104
7.86259
7.86238
38.2785
40.0154
35.9645
30.4459
26.1661
22.959
20.52
18.6312
17.1411
15.9452
14.9703
14.165
13.4918
12.9235
12.439
12.0231
11.6632
11.3501
11.0758
10.8345
10.6211
10.4316
10.2626
10.1113
9.97536
9.85289
9.74214
9.64177
9.55048
9.46731
9.39127
9.32167
9.25776
9.19901
9.14485
9.09484
9.04861
9.00576
8.96604
8.92909
8.89478
8.86277
8.83299
8.80516
8.77924
8.75501
8.73241
8.71133
8.69165
8.67337
8.65633
8.64057
8.62595
8.61253
8.60017
8.58897
8.57874
8.56966
8.56151
8.55448
8.54828
8.54329
8.53885
8.53708
8.53606
8.53406
8.53315
8.53226
8.53104
8.53079
8.53083
8.53212
8.53401
8.53597
8.5379
8.53984
8.5418
8.54379
8.5458
8.54786
8.54994
8.55207
8.55423
8.5564
8.55862
8.56072
8.56337
8.56293
57.4166
51.3431
40.5284
32.841
27.5353
23.7931
21.0609
19.0023
17.4106
16.1537
15.1431
14.3188
13.6376
13.069
12.5894
12.1823
11.8337
11.5337
11.2737
11.0475
10.8496
10.6758
10.5224
10.3865
10.2658
10.1582
10.0618
9.97541
9.89756
9.82734
9.76372
9.70602
9.65351
9.60564
9.56187
9.52179
9.485
9.45116
9.42
9.39122
9.36466
9.34003
9.31727
9.2961
9.27652
9.25832
9.24144
9.2258
9.21127
9.1979
9.18549
9.17413
9.16369
9.1542
9.1456
9.1379
9.13102
9.12503
9.11992
9.1155
9.11206
9.10916
9.10777
9.1052
9.105
9.10591
9.1053
9.10601
9.10713
9.10862
9.11031
9.11218
9.11423
9.1164
9.11866
9.12098
9.12335
9.12576
9.1282
9.13063
9.13309
9.13551
9.13797
9.14033
9.14284
9.145
9.14796
9.14789
72.2427
56.8794
42.0339
33.1982
27.4901
23.595
20.8102
18.7438
17.1654
15.932
14.9502
14.1571
13.5078
12.9714
12.5234
12.1472
11.8284
11.5573
11.3248
11.1251
10.9523
10.8025
10.6718
10.5576
10.4573
10.369
10.291
10.2218
10.1602
10.1054
10.0562
10.0122
9.97256
9.93681
9.90446
9.87515
9.84849
9.82423
9.80207
9.78178
9.76323
9.74616
9.73053
9.71609
9.70286
9.69065
9.67944
9.66916
9.65967
9.65108
9.64315
9.63605
9.62963
9.62391
9.61891
9.61454
9.61077
9.60785
9.60539
9.60356
9.60234
9.60218
9.60129
9.6019
9.60324
9.60502
9.60678
9.6087
9.61079
9.61307
9.61549
9.61801
9.62062
9.62328
9.626
9.62874
9.63152
9.63428
9.63708
9.6398
9.64261
9.64524
9.64807
9.65051
9.65351
9.65544
9.65915
9.65952
83.2025
57.7645
41.592
32.4108
26.6836
22.852
20.15
18.1665
16.6657
15.5035
14.5866
13.8529
13.2581
12.7719
12.3702
12.037
11.7578
11.5237
11.3255
11.1577
11.0146
10.8923
10.7873
10.6968
10.6188
10.551
10.4922
10.4407
10.3958
10.3563
10.3215
10.2908
10.2636
10.2393
10.2178
10.1985
10.1812
10.1657