/*--------------------------------*- C++ -*----------------------------------*\
| =========                 |                                                 |
| \\      /  F ield         | OpenFOAM: The Open Source CFD Toolbox           |
|  \\    /   O peration     | Version:  2306                                  |
|   \\  /    A nd           | Website:  www.openfoam.com                      |
|    \\/     M anipulation  |                                                 |
\*---------------------------------------------------------------------------*/
FoamFile
{
    version     2.0;
    format      ascii;
    arch        "LSB;label=32;scalar=64";
    class       volScalarField;
    location    "2000";
    object      nut;
}
// * * * * * * * * * * * * * * * * * * * * * * * * * * * * * * * * * * * * * //

dimensions      [0 2 -1 0 0 0 0];

internalField   nonuniform List<scalar> 
20540
(
0.0283567
0.0952821
0.0186781
0.0699765
0.0160092
0.0633612
0.0147335
0.0597025
0.0138999
0.0567625
0.013294
0.0543443
0.012843
0.0523751
0.0125067
0.0507596
0.0122567
0.0494115
0.0120704
0.04826
0.0119286
0.0472457
0.0118129
0.0463165
0.011705
0.0454248
0.0115857
0.044525
0.0114342
0.0435727
0.0112293
0.0425212
0.0109525
0.0413175
0.0105933
0.0398983
0.0101467
0.0381948
0.0096031
0.0361495
0.0089695
0.033711
0.00833834
0.0308325
0.00804347
0.0274968
0.00905219
0.0237215
0.0138797
0.0195144
0.0164143
0.0148673
0.0123569
0.010858
0.0124625
0.0113064
0.0162686
0.0226886
0.0224857
0.0241408
0.0276533
0.0252413
0.0294459
0.0271843
0.0294018
0.0272048
0.0275566
0.0253177
0.022635
0.024235
0.0167697
0.0227095
0.0130148
0.0114285
0.0126955
0.0104346
0.0163044
0.0140317
0.0142656
0.0184857
0.00917802
0.0225676
0.00805519
0.026252
0.00832501
0.0295174
0.00897647
0.032336
0.00964903
0.0347174
0.01024
0.0367044
0.0107384
0.0383443
0.0111476
0.0396956
0.0114621
0.0408362
0.0116923
0.041829
0.011858
0.0427217
0.0119812
0.0435541
0.0120831
0.0443629
0.0121829
0.0451853
0.0122979
0.0460603
0.0124452
0.0470299
0.0126418
0.048141
0.0129065
0.0494483
0.0132616
0.0510179
0.0137361
0.0529327
0.014372
0.0552879
0.0152445
0.0581628
0.0165658
0.0617424
0.0192783
0.0680759
0.0290303
0.092014
2.05621e-05
1.6024e-05
1.51646e-05
1.46832e-05
1.43796e-05
1.41772e-05
1.40337e-05
1.3927e-05
1.38455e-05
1.37818e-05
1.37312e-05
1.36903e-05
1.36569e-05
1.36294e-05
1.36066e-05
1.35873e-05
1.35713e-05
1.35577e-05
1.35461e-05
1.35363e-05
1.35278e-05
1.35205e-05
1.35142e-05
1.35088e-05
1.3504e-05
1.34999e-05
1.34963e-05
1.34931e-05
1.34904e-05
1.34879e-05
1.34858e-05
1.34839e-05
1.34822e-05
1.34807e-05
1.34794e-05
1.34782e-05
1.34772e-05
1.34763e-05
1.34755e-05
1.34748e-05
1.34742e-05
1.34738e-05
1.34735e-05
1.34732e-05
1.34732e-05
1.34732e-05
1.34735e-05
1.34739e-05
1.34745e-05
1.34754e-05
1.34766e-05
1.3478e-05
1.34799e-05
1.34821e-05
1.34848e-05
1.34881e-05
1.34919e-05
1.34964e-05
1.35016e-05
1.35078e-05
1.35147e-05
1.35228e-05
1.35319e-05
1.35408e-05
1.35483e-05
1.35562e-05
1.35644e-05
1.35733e-05
1.35823e-05
1.35921e-05
1.36021e-05
1.36127e-05
1.36236e-05
1.36353e-05
1.36473e-05
1.36602e-05
1.36734e-05
1.36874e-05
1.3702e-05
1.37171e-05
1.37339e-05
1.37497e-05
1.3774e-05
1.37837e-05
1.3825e-05
1.38448e-05
1.389e-05
1.36992e-05
4.43102e-05
1.64382e-05
1.3393e-05
1.19921e-05
1.1216e-05
1.07314e-05
1.04071e-05
1.01759e-05
1.00036e-05
9.87162e-06
9.76839e-06
9.686e-06
9.61958e-06
9.56506e-06
9.52035e-06
9.48284e-06
9.45185e-06
9.42541e-06
9.40331e-06
9.38439e-06
9.36817e-06
9.3544e-06
9.34248e-06
9.33225e-06
9.32325e-06
9.31551e-06
9.30874e-06
9.30285e-06
9.29773e-06
9.29312e-06
9.28919e-06
9.28562e-06
9.28252e-06
9.27981e-06
9.27733e-06
9.27511e-06
9.2731e-06
9.27132e-06
9.26968e-06
9.26825e-06
9.26695e-06
9.26578e-06
9.26473e-06
9.26376e-06
9.26287e-06
9.26203e-06
9.26135e-06
9.2606e-06
9.25991e-06
9.25923e-06
9.25862e-06
9.25793e-06
9.25733e-06
9.25665e-06
9.25593e-06
9.25524e-06
9.25439e-06
9.25365e-06
9.25255e-06
9.25162e-06
9.25007e-06
9.24877e-06
9.2466e-06
9.24474e-06
9.24265e-06
9.24118e-06
9.23848e-06
9.23621e-06
9.23259e-06
9.22952e-06
9.22488e-06
9.22077e-06
9.21445e-06
9.20956e-06
9.20063e-06
9.19517e-06
9.1819e-06
9.17651e-06
9.1553e-06
9.15238e-06
9.11706e-06
9.11887e-06
9.06435e-06
9.04538e-06
8.98126e-06
8.94687e-06
8.74187e-06
8.68495e-06
0.000121121
4.07974e-05
3.30471e-05
2.96501e-05
2.78007e-05
2.665e-05
2.58801e-05
2.5331e-05
2.49213e-05
2.46068e-05
2.43605e-05
2.41636e-05
2.40047e-05
2.38741e-05
2.37669e-05
2.3677e-05
2.36026e-05
2.35391e-05
2.34861e-05
2.34406e-05
2.34017e-05
2.33686e-05
2.334e-05
2.33154e-05
2.32938e-05
2.32752e-05
2.3259e-05
2.32448e-05
2.32326e-05
2.32215e-05
2.32121e-05
2.32035e-05
2.31961e-05
2.31896e-05
2.31837e-05
2.31784e-05
2.31736e-05
2.31693e-05
2.31653e-05
2.31619e-05
2.31588e-05
2.31559e-05
2.31534e-05
2.3151e-05
2.31488e-05
2.31467e-05
2.31449e-05
2.31429e-05
2.31411e-05
2.31392e-05
2.31374e-05
2.31353e-05
2.31334e-05
2.31313e-05
2.31289e-05
2.31265e-05
2.31235e-05
2.31208e-05
2.31169e-05
2.31134e-05
2.31082e-05
2.31034e-05
2.30962e-05
2.30899e-05
2.30832e-05
2.30782e-05
2.30701e-05
2.30632e-05
2.30529e-05
2.30441e-05
2.30313e-05
2.30201e-05
2.30033e-05
2.29905e-05
2.29675e-05
2.29537e-05
2.29206e-05
2.29082e-05
2.28568e-05
2.28527e-05
2.27687e-05
2.27798e-05
2.26553e-05
2.26194e-05
2.24876e-05
2.24075e-05
2.21529e-05
2.13962e-05
0.00028147
8.64782e-05
6.88042e-05
6.19892e-05
5.85596e-05
5.6518e-05
5.519e-05
5.42616e-05
5.35777e-05
5.30573e-05
5.26522e-05
5.233e-05
5.2071e-05
5.18588e-05
5.1685e-05
5.15395e-05
5.14196e-05
5.13173e-05
5.1232e-05
5.11591e-05
5.10966e-05
5.10439e-05
5.0998e-05
5.0959e-05
5.09245e-05
5.08949e-05
5.08692e-05
5.08467e-05
5.08275e-05
5.08098e-05
5.07951e-05
5.07815e-05
5.07699e-05
5.07597e-05
5.07504e-05
5.0742e-05
5.07344e-05
5.07276e-05
5.07213e-05
5.07158e-05
5.07108e-05
5.07062e-05
5.07019e-05
5.06978e-05
5.06939e-05
5.069e-05
5.06865e-05
5.06826e-05
5.06785e-05
5.06741e-05
5.06696e-05
5.06642e-05
5.06588e-05
5.06524e-05
5.06451e-05
5.06373e-05
5.06279e-05
5.06181e-05
5.06056e-05
5.0593e-05
5.05762e-05
5.05596e-05
5.05373e-05
5.05178e-05
5.04983e-05
5.04816e-05
5.04594e-05
5.04392e-05
5.04124e-05
5.03886e-05
5.03573e-05
5.03293e-05
5.0291e-05
5.02606e-05
5.02117e-05
5.01808e-05
5.01148e-05
5.00885e-05
4.99928e-05
4.9984e-05
4.98371e-05
4.98576e-05
4.96554e-05
4.96116e-05
4.94108e-05
4.93485e-05
4.91198e-05
4.82819e-05
0.000544475
0.000156485
0.000118748
0.000105595
9.95534e-05
9.6185e-05
9.40935e-05
9.26834e-05
9.16708e-05
9.09141e-05
9.03334e-05
8.98766e-05
8.95126e-05
8.92163e-05
8.89755e-05
8.87746e-05
8.86103e-05
8.84703e-05
8.83546e-05
8.82558e-05
8.81713e-05
8.81006e-05
8.80391e-05
8.79872e-05
8.79412e-05
8.79018e-05
8.78679e-05
8.78383e-05
8.78132e-05
8.779e-05
8.77709e-05
8.77532e-05
8.77381e-05
8.77251e-05
8.77131e-05
8.77021e-05
8.76922e-05
8.76833e-05
8.7675e-05
8.76678e-05
8.7661e-05
8.76547e-05
8.76487e-05
8.76427e-05
8.76367e-05
8.76303e-05
8.76241e-05
8.76172e-05
8.76092e-05
8.76003e-05
8.75907e-05
8.75789e-05
8.75663e-05
8.75512e-05
8.75337e-05
8.75144e-05
8.74911e-05
8.74662e-05
8.74353e-05
8.74029e-05
8.73618e-05
8.73195e-05
8.72656e-05
8.72185e-05
8.71734e-05
8.71318e-05
8.70812e-05
8.70341e-05
8.69755e-05
8.6922e-05
8.6856e-05
8.67958e-05
8.67189e-05
8.66556e-05
8.65631e-05
8.65007e-05
8.63843e-05
8.63307e-05
8.61754e-05
8.61474e-05
8.59314e-05
8.59424e-05
8.56612e-05
8.56075e-05
8.53492e-05
8.53599e-05
8.50356e-05
8.53678e-05
0.000919428
0.000259776
0.000185952
0.000161135
0.000150491
0.000144938
0.000141672
0.000139569
0.000138113
0.000137056
0.000136262
0.000135649
0.000135168
0.000134781
0.00013447
0.000134213
0.000134005
0.000133829
0.000133685
0.000133563
0.000133459
0.000133373
0.000133298
0.000133236
0.00013318
0.000133134
0.000133093
0.000133059
0.00013303
0.000133002
0.000132981
0.00013296
0.000132943
0.000132929
0.000132915
0.000132903
0.000132891
0.000132881
0.000132872
0.000132863
0.000132855
0.000132848
0.00013284
0.000132833
0.000132825
0.000132815
0.000132806
0.000132795
0.000132783
0.000132768
0.000132751
0.000132731
0.000132708
0.000132681
0.000132649
0.000132614
0.000132571
0.000132525
0.000132468
0.000132408
0.000132333
0.000132255
0.000132158
0.000132073
0.000131994
0.000131918
0.00013183
0.000131747
0.000131647
0.000131555
0.000131445
0.000131343
0.000131219
0.000131114
0.000130971
0.000130869
0.000130701
0.000130608
0.000130405
0.000130333
0.000130086
0.000130045
0.000129748
0.000129659
0.00012943
0.000129463
0.00012918
0.000129203
0.00141765
0.00040971
0.000278028
0.000232699
0.000213873
0.000204543
0.00019932
0.000196116
0.000193994
0.000192506
0.000191424
0.00019061
0.000189986
0.000189494
0.000189106
0.000188789
0.000188538
0.000188327
0.000188158
0.000188015
0.000187895
0.000187798
0.000187714
0.000187646
0.000187585
0.000187534
0.000187491
0.000187454
0.000187425
0.000187396
0.000187375
0.000187354
0.000187338
0.000187324
0.000187311
0.000187299
0.000187288
0.000187278
0.000187268
0.00018726
0.000187252
0.000187244
0.000187236
0.000187227
0.000187218
0.000187207
0.000187194
0.00018718
0.000187163
0.000187141
0.000187117
0.000187087
0.000187054
0.000187013
0.000186965
0.000186911
0.000186847
0.000186777
0.000186691
0.0001866
0.000186487
0.000186369
0.000186223
0.000186098
0.000185981
0.00018587
0.000185741
0.00018562
0.000185477
0.000185345
0.00018519
0.000185047
0.000184878
0.00018473
0.000184546
0.0001844
0.0001842
0.000184055
0.000183846
0.000183703
0.000183488
0.000183348
0.000183156
0.000182958
0.000182955
0.000182833
0.000183149
0.000180776
0.00205644
0.000621837
0.000406587
0.000327316
0.000294273
0.000278343
0.000269743
0.000264682
0.000261472
0.000259312
0.000257798
0.000256697
0.000255879
0.000255251
0.000254771
0.000254387
0.000254092
0.000253848
0.000253658
0.000253502
0.000253372
0.000253271
0.000253185
0.000253117
0.000253057
0.000253008
0.000252969
0.000252936
0.000252911
0.000252887
0.00025287
0.000252854
0.000252841
0.000252832
0.000252823
0.000252815
0.000252807
0.0002528
0.000252793
0.000252787
0.000252782
0.000252775
0.000252769
0.000252761
0.000252752
0.00025274
0.000252725
0.000252708
0.000252688
0.000252661
0.000252631
0.000252592
0.000252548
0.000252495
0.000252431
0.00025236
0.000252274
0.000252181
0.000252067
0.000251946
0.000251797
0.000251643
0.000251451
0.000251288
0.000251139
0.000250995
0.00025083
0.000250676
0.000250496
0.00025033
0.000250141
0.00024996
0.000249762
0.000249576
0.000249375
0.000249187
0.000248993
0.000248788
0.000248618
0.000248403
0.000248282
0.000248038
0.000248062
0.000247703
0.000248085
0.000247708
0.000249275
0.000243365
0.00285756
0.00091221
0.000586876
0.000455255
0.000398508
0.000371219
0.000356747
0.000348464
0.000343389
0.0003401
0.00033788
0.000336325
0.000335213
0.000334388
0.000333782
0.000333311
0.000332967
0.000332689
0.000332484
0.000332322
0.000332191
0.000332096
0.000332019
0.000331962
0.000331913
0.000331877
0.000331851
0.000331831
0.00033182
0.000331807
0.000331803
0.000331798
0.000331797
0.0003318
0.0003318
0.000331801
0.000331801
0.000331802
0.000331801
0.000331802
0.000331803
0.000331802
0.0003318
0.000331796
0.00033179
0.000331782
0.000331767
0.00033175
0.000331729
0.000331699
0.000331667
0.000331621
0.000331572
0.000331509
0.000331433
0.000331349
0.000331246
0.000331136
0.000330999
0.000330856
0.000330679
0.000330498
0.000330272
0.000330082
0.000329911
0.000329744
0.000329557
0.000329381
0.000329181
0.000328994
0.00032879
0.000328586
0.000328384
0.000328175
0.000327988
0.000327777
0.000327617
0.000327397
0.000327286
0.000327048
0.000327057
0.000326745
0.000327052
0.000326518
0.000327456
0.000326692
0.000330127
0.00032068
0.00384514
0.00129671
0.000837012
0.000630553
0.000536379
0.000490178
0.000465646
0.000451753
0.000443417
0.000438155
0.000434709
0.000432375
0.000430764
0.000429615
0.000428804
0.0004282
0.000427782
0.000427461
0.00042724
0.000427077
0.000426954
0.000426879
0.000426823
0.000426793
0.00042677
0.00042676
0.000426761
0.000426767
0.000426784
0.000426794
0.000426815
0.000426832
0.000426852
0.000426876
0.000426896
0.000426913
0.000426929
0.000426945
0.000426958
0.000426972
0.000426985
0.000426994
0.000427003
0.000427008
0.000427011
0.00042701
0.000427002
0.000426989
0.000426972
0.000426944
0.000426915
0.000426868
0.000426819
0.000426754
0.000426673
0.000426585
0.000426474
0.000426359
0.000426212
0.000426061
0.000425871
0.000425683
0.000425444
0.000425248
0.000425073
0.000424903
0.000424713
0.000424542
0.000424341
0.000424167
0.000423964
0.000423786
0.000423591
0.000423416
0.000423244
0.000423086
0.000422955
0.000422801
0.000422763
0.000422563
0.000422756
0.000422403
0.000423088
0.000422397
0.000424047
0.000422832
0.000428564
0.000416165
0.00504392
0.00179124
0.00117661
0.00087109
0.00072151
0.000645262
0.000604024
0.000580539
0.000566515
0.00055777
0.000552139
0.000548405
0.000545893
0.000544153
0.000542967
0.000542119
0.00054156
0.000541154
0.000540899
0.000540728
0.000540616
0.000540569
0.000540548
0.000540559
0.000540577
0.000540612
0.000540657
0.000540707
0.000540768
0.000540818
0.00054088
0.000540934
0.00054099
0.000541048
0.0005411
0.000541147
0.000541189
0.000541231
0.000541267
0.000541303
0.000541338
0.000541367
0.000541394
0.000541416
0.000541435
0.00054145
0.000541455
0.000541455
0.000541449
0.000541432
0.000541414
0.000541375
0.000541336
0.000541278
0.000541205
0.000541127
0.000541023
0.000540921
0.00054078
0.000540651
0.000540465
0.000540311
0.000540075
0.000539926
0.000539753
0.000539633
0.000539448
0.000539339
0.000539143
0.000539047
0.000538854
0.000538768
0.000538595
0.000538526
0.000538394
0.000538344
0.000538296
0.000538242
0.000538363
0.00053823
0.000538697
0.000538344
0.000539496
0.000538685
0.000541245
0.000539501
0.000547898
0.00053286
0.00647709
0.00241223
0.00162514
0.00119773
0.000971752
0.000850469
0.000782712
0.000743358
0.000719635
0.000704812
0.000695291
0.000689021
0.000684843
0.000681991
0.000680077
0.000678741
0.00067788
0.000677281
0.000676922
0.000676703
0.000676578
0.000676551
0.000676566
0.000676628
0.0006767
0.000676794
0.000676901
0.000677014
0.000677139
0.000677248
0.000677369
0.00067748
0.000677589
0.0006777
0.000677801
0.000677893
0.000677976
0.000678058
0.00067813
0.000678202
0.00067827
0.000678329
0.000678387
0.000678436
0.000678481
0.000678522
0.000678552
0.000678574
0.000678591
0.000678595
0.000678601
0.000678581
0.000678567
0.000678532
0.000678485
0.000678436
0.00067836
0.000678297
0.000678188
0.000678113
0.000677964
0.000677887
0.000677698
0.000677641
0.000677503
0.000677476
0.000677329
0.000677329
0.00067718
0.000677206
0.000677075
0.000677124
0.000677033
0.000677113
0.00067709
0.000677193
0.000677302
0.000677391
0.00067775
0.000677735
0.000678561
0.000678269
0.000679995
0.000679079
0.000682847
0.000680468
0.000691845
0.000674295
0.0081634
0.0031769
0.00220061
0.00163249
0.00130866
0.00112427
0.00101672
0.000952301
0.000912642
0.000887515
0.000871223
0.000860427
0.000853201
0.000848263
0.000844933
0.000842619
0.000841109
0.00084007
0.000839435
0.000839048
0.000838829
0.00083877
0.000838788
0.000838883
0.000839004
0.00083916
0.000839337
0.000839524
0.00083973
0.000839915
0.000840114
0.000840299
0.000840482
0.000840664
0.000840832
0.000840988
0.000841128
0.000841267
0.000841392
0.000841515
0.000841631
0.000841734
0.000841835
0.000841926
0.000842011
0.000842091
0.000842157
0.000842216
0.00084227
0.00084231
0.000842355
0.000842371
0.0008424
0.000842407
0.000842409
0.000842411
0.000842392
0.000842399
0.000842359
0.000842376
0.000842309
0.000842356
0.000842271
0.000842356
0.0008423
0.000842409
0.000842353
0.000842504
0.000842463
0.000842656
0.000842649
0.000842885
0.00084294
0.000843221
0.000843381
0.000843692
0.000844034
0.000844328
0.000845
0.000845171
0.000846441
0.000846269
0.000848734
0.000847689
0.000853042
0.000849949
0.000864593
0.000844732
0.0101131
0.00410327
0.00291856
0.00219605
0.00175568
0.00148911
0.00132571
0.00122392
0.00115934
0.00111748
0.00108983
0.00107121
0.00105857
0.00104982
0.00104382
0.0010396
0.00103676
0.00103478
0.00103349
0.00103266
0.00103214
0.0010319
0.00103181
0.00103186
0.00103198
0.00103216
0.00103238
0.00103263
0.00103292
0.00103318
0.00103347
0.00103374
0.001034
0.00103427
0.00103452
0.00103476
0.00103497
0.00103518
0.00103538
0.00103557
0.00103575
0.00103591
0.00103607
0.00103622
0.00103636
0.00103649
0.00103661
0.00103672
0.00103683
0.00103692
0.00103702
0.00103709
0.00103719
0.00103725
0.00103733
0.00103741
0.00103749
0.0010376
0.00103767
0.00103782
0.00103789
0.00103811
0.0010382
0.00103847
0.00103856
0.00103884
0.00103894
0.00103929
0.00103942
0.00103983
0.00104002
0.00104049
0.00104076
0.00104131
0.00104172
0.0010423
0.00104295
0.00104352
0.00104459
0.00104501
0.00104685
0.00104682
0.00105027
0.00104906
0.0010564
0.00105258
0.00107077
0.00104877
0.0123197
0.00520974
0.00379144
0.00290531
0.00233514
0.00196946
0.0017333
0.00157949
0.00147827
0.00141067
0.00136486
0.00133335
0.00131149
0.00129606
0.00128524
0.00127747
0.00127206
0.00126816
0.00126549
0.00126365
0.00126238
0.00126163
0.00126117
0.00126098
0.00126093
0.00126101
0.00126119
0.00126144
0.00126175
0.00126206
0.0012624
0.00126274
0.00126308
0.00126343
0.00126376
0.00126408
0.00126437
0.00126466
0.00126493
0.0012652
0.00126545
0.00126568
0.00126592
0.00126614
0.00126634
0.00126654
0.00126672
0.0012669
0.00126707
0.00126724
0.00126741
0.00126756
0.00126774
0.00126789
0.00126808
0.00126826
0.00126846
0.00126871
0.00126893
0.00126926
0.00126952
0.00126997
0.0012703
0.00127083
0.00127111
0.00127161
0.00127193
0.00127252
0.0012729
0.00127357
0.00127402
0.00127479
0.00127534
0.00127621
0.00127694
0.00127786
0.0012789
0.00127981
0.00128138
0.00128211
0.00128466
0.00128481
0.0012895
0.00128817
0.00129783
0.00129347
0.00131522
0.00129084
0.0147511
0.00651452
0.00482782
0.00377138
0.00306468
0.0025882
0.0022646
0.00204383
0.00189251
0.00178786
0.00171479
0.00166315
0.00162641
0.00159989
0.00158078
0.00156677
0.00155666
0.00154918
0.0015438
0.00153988
0.00153704
0.00153509
0.00153372
0.00153284
0.00153228
0.00153199
0.00153188
0.00153194
0.00153213
0.00153236
0.00153266
0.00153299
0.00153335
0.00153372
0.0015341
0.00153446
0.00153481
0.00153516
0.0015355
0.00153583
0.00153616
0.00153645
0.00153676
0.00153704
0.00153732
0.00153758
0.00153782
0.00153808
0.00153832
0.00153857
0.00153882
0.00153906
0.00153934
0.00153959
0.0015399
0.00154022
0.00154058
0.00154099
0.00154142
0.00154195
0.00154246
0.00154317
0.00154382
0.00154464
0.00154517
0.00154594
0.00154654
0.00154741
0.00154809
0.00154908
0.00154985
0.00155097
0.00155187
0.00155312
0.00155424
0.00155558
0.00155707
0.0015584
0.00156056
0.00156168
0.00156512
0.00156553
0.0015717
0.00157043
0.00158264
0.00157801
0.00160317
0.00157625
0.017338
0.0080348
0.00603123
0.00479792
0.00395402
0.0033622
0.00294192
0.00264204
0.0024277
0.00227378
0.00216264
0.0020817
0.00202247
0.00197861
0.00194616
0.00192178
0.00190364
0.00188987
0.00187957
0.00187178
0.00186587
0.00186152
0.00185823
0.00185584
0.00185407
0.00185282
0.00185195
0.00185143
0.00185116
0.00185103
0.00185105
0.00185117
0.00185135
0.00185161
0.0018519
0.00185221
0.00185253
0.00185286
0.0018532
0.00185352
0.00185389
0.0018542
0.00185456
0.00185486
0.00185519
0.00185549
0.00185579
0.00185611
0.00185638
0.0018567
0.00185702
0.00185735
0.00185773
0.00185808
0.00185853
0.00185898
0.00185952
0.00186011
0.00186078
0.00186155
0.00186235
0.00186335
0.00186437
0.00186551
0.00186634
0.0018674
0.00186834
0.00186953
0.00187057
0.00187191
0.00187307
0.00187457
0.00187589
0.00187757
0.00187915
0.00188097
0.001883
0.00188485
0.0018877
0.00188935
0.00189379
0.0018947
0.00190251
0.00190165
0.0019166
0.00191164
0.00194045
0.00191062
0.019963
0.00978355
0.00739813
0.00597986
0.00500244
0.00429793
0.00377923
0.00339408
0.00310754
0.00289378
0.00273391
0.0026137
0.00252305
0.00245408
0.00240159
0.00236117
0.00233027
0.00230619
0.00228763
0.00227313
0.00226179
0.00225304
0.00224615
0.00224081
0.00223663
0.00223337
0.00223086
0.00222899
0.00222761
0.00222654
0.00222579
0.00222529
0.00222494
0.00222475
0.00222468
0.00222468
0.00222475
0.00222487
0.00222506
0.00222522
0.00222549
0.0022257
0.00222599
0.00222622
0.00222652
0.00222678
0.00222709
0.0022274
0.00222769
0.00222802
0.00222831
0.0022287
0.00222913
0.00222956
0.00223013
0.00223069
0.0022314
0.00223216
0.00223309
0.00223409
0.00223521
0.0022365
0.00223792
0.00223941
0.00224057
0.00224194
0.00224325
0.00224479
0.00224623
0.00224796
0.00224955
0.00225149
0.00225329
0.00225545
0.00225757
0.00225994
0.0022626
0.00226511
0.00226874
0.00227113
0.00227668
0.00227847
0.002288
0.00228803
0.00230576
0.00230053
0.00233304
0.00229963
0.0224729
0.0117333
0.00891431
0.00730228
0.00619729
0.00538843
0.00477717
0.0043084
0.00394712
0.00366784
0.00345161
0.00328363
0.00315299
0.00305074
0.00297072
0.00290753
0.00285777
0.00281822
0.00278684
0.00276165
0.00274147
0.00272535
0.00271227
0.00270174
0.00269326
0.00268628
0.00268068
0.00267615
0.00267251
0.00266953
0.00266714
0.00266526
0.00266367
0.00266244
0.00266146
0.00266067
0.00266008
0.0026596
0.00265929
0.002659
0.00265889
0.00265873
0.00265873
0.00265867
0.00265874
0.00265879
0.00265894
0.00265908
0.00265933
0.00265957
0.0026597
0.00265998
0.00266029
0.0026608
0.00266141
0.00266199
0.00266282
0.0026637
0.00266489
0.0026661
0.0026675
0.00266906
0.00267088
0.0026727
0.0026742
0.00267589
0.0026776
0.0026795
0.00268137
0.00268351
0.00268559
0.00268798
0.00269034
0.00269303
0.0026958
0.0026988
0.00270223
0.00270553
0.0027101
0.00271354
0.00272032
0.00272347
0.00273475
0.00273617
0.00275658
0.00275112
0.00278753
0.00274941
0.024675
0.0138089
0.0105501
0.00873915
0.00751343
0.0066118
0.00591966
0.00537644
0.00494586
0.00460264
0.00432842
0.00410865
0.00393249
0.00379067
0.00367651
0.00358407
0.00350926
0.00344839
0.00339883
0.00335818
0.00332487
0.00329749
0.00327473
0.00325594
0.00324041
0.00322732
0.00321644
0.00320732
0.00319964
0.0031932
0.00318778
0.00318329
0.00317931
0.00317602
0.00317324
0.00317085
0.00316885
0.00316711
0.00316567
0.00316438
0.00316338
0.00316239
0.00316164
0.0031609
0.00316038
0.00315989
0.00315957
0.00315925
0.00315914
0.00315907
0.00315885
0.0031588
0.00315889
0.00315924
0.0031597
0.00316017
0.00316093
0.00316174
0.00316327
0.00316461
0.00316621
0.00316797
0.0031701
0.00317223
0.00317404
0.00317604
0.00317813
0.0031804
0.00318274
0.0031853
0.00318792
0.00319081
0.00319382
0.00319711
0.00320066
0.00320442
0.0032088
0.00321308
0.00321885
0.00322361
0.0032319
0.00323679
0.00324999
0.00325309
0.00327603
0.00327012
0.00331113
0.00326602
0.0263416
0.0158812
0.0122546
0.0102517
0.00891323
0.00793144
0.00717316
0.00656988
0.0060823
0.0056844
0.0053581
0.00508941
0.00486797
0.00468484
0.00453345
0.00440774
0.00430338
0.00421641
0.0041439
0.00408315
0.00403215
0.00398939
0.00395304
0.00392243
0.00389648
0.00387421
0.00385528
0.003839
0.00382508
0.00381302
0.0038026
0.00379371
0.00378564
0.00377885
0.00377293
0.00376772
0.00376317
0.00375913
0.0037556
0.00375243
0.00374971
0.00374706
0.00374487
0.00374277
0.00374108
0.00373954
0.00373822
0.00373697
0.00373601
0.00373518
0.00373418
0.00373361
0.00373323
0.0037332
0.00373319
0.00373335
0.00373372
0.0037341
0.00373587
0.0037372
0.00373883
0.00374064
0.00374294
0.0037453
0.00374736
0.00374965
0.0037521
0.00375473
0.00375753
0.00376055
0.00376377
0.00376724
0.00377099
0.00377503
0.00377952
0.00378425
0.00378981
0.00379538
0.00380262
0.0038091
0.00381917
0.00382617
0.00384136
0.00384627
0.00387153
0.00386451
0.00391138
0.0038577
0.0272289
0.0177732
0.0139507
0.0117856
0.0103464
0.00929735
0.00848812
0.00784122
0.00731289
0.00687514
0.00650939
0.00620177
0.00594237
0.00572276
0.00553676
0.00537872
0.00524437
0.00512985
0.00503215
0.00494862
0.00487691
0.00481553
0.00476247
0.00471672
0.00467725
0.00464281
0.00461298
0.00458681
0.0045641
0.004544
0.00452634
0.00451085
0.004497
0.00448475
0.00447392
0.00446427
0.00445566
0.00444791
0.00444099
0.00443475
0.00442912
0.00442363
0.00441911
0.00441467
0.00441106
0.0044077
0.00440466
0.00440165
0.00439923
0.0043971
0.00439485
0.00439344
0.00439211
0.00439124
0.00439042
0.00438975
0.0043894
0.00438937
0.0043906
0.00439154
0.00439289
0.00439453
0.00439679
0.00439925
0.00440147
0.00440398
0.00440676
0.00440975
0.00441303
0.00441657
0.00442044
0.00442464
0.00442928
0.00443428
0.00443992
0.00444594
0.00445296
0.00446023
0.00446924
0.00447788
0.00448994
0.00449934
0.00451645
0.00452315
0.00455039
0.00454189
0.00459523
0.0045317
0.0270681
0.0192937
0.0155304
0.0132656
0.0117482
0.0106469
0.00980157
0.00912707
0.00857482
0.00811415
0.00772518
0.00739354
0.0071093
0.00686432
0.00665276
0.0064694
0.00631032
0.00617195
0.00605143
0.00594636
0.0058544
0.00577402
0.00570346
0.00564134
0.00558681
0.00553847
0.00549588
0.00545791
0.00542437
0.00539434
0.00536756
0.00534358
0.00532207
0.00530265
0.00528526
0.00526954
0.0052553
0.00524234
0.00523061
0.00521989
0.0052102
0.00520112
0.00519298
0.00518538
0.00517858
0.00517234
0.00516663
0.00516139
0.00515662
0.00515235
0.00514846
0.00514518
0.00514219
0.00513968
0.00513752
0.00513568
0.00513436
0.00513347
0.00513328
0.00513342
0.00513413
0.0051353
0.00513727
0.00513969
0.00514198
0.00514469
0.00514775
0.00515113
0.00515492
0.0051591
0.00516376
0.00516889
0.00517463
0.00518091
0.005188
0.00519571
0.00520454
0.00521394
0.00522504
0.00523618
0.00525032
0.00526226
0.00528098
0.00528944
0.00531803
0.00530825
0.00536821
0.00529386
0.0255841
0.0203131
0.0168468
0.0145851
0.0130329
0.0119027
0.0110383
0.0103517
0.00979108
0.00932351
0.00892759
0.00858806
0.00829453
0.00803881
0.00781508
0.00761839
0.00744505
0.00729184
0.00715609
0.00703571
0.00692859
0.00683322
0.00674821
0.00667206
0.00660408
0.00654293
0.00648816
0.00643867
0.0063942
0.00635391
0.0063175
0.00628442
0.00625442
0.00622703
0.00620211
0.00617934
0.00615853
0.00613939
0.00612188
0.00610571
0.00609093
0.00607721
0.00606461
0.00605292
0.00604216
0.00603223
0.00602308
0.00601464
0.0060069
0.00599979
0.00599332
0.00598747
0.00598223
0.00597754
0.00597349
0.00596995
0.00596704
0.00596469
0.00596306
0.00596205
0.00596182
0.00596227
0.00596377
0.00596608
0.00596841
0.00597133
0.00597474
0.00597862
0.00598307
0.0059881
0.00599379
0.00600016
0.00600733
0.00601529
0.00602422
0.00603403
0.00604506
0.00605692
0.00607036
0.0060841
0.00610029
0.00611457
0.00613452
0.00614457
0.00617388
0.00616307
0.00622966
0.00614401
0.0226343
0.0207858
0.0176948
0.0155876
0.014081
0.0129644
0.0121069
0.011427
0.0108738
0.010414
0.0100255
0.00969251
0.00940424
0.00915221
0.00893047
0.00873409
0.0085594
0.00840341
0.00826357
0.00813796
0.00802477
0.00792252
0.00783015
0.00774625
0.00767026
0.00760097
0.00753801
0.00748042
0.0074279
0.00737975
0.00733568
0.00729516
0.00725796
0.00722367
0.00719207
0.00716288
0.00713594
0.00711095
0.00708786
0.00706637
0.00704649
0.00702796
0.00701079
0.00699478
0.00697991
0.00696607
0.00695323
0.00694129
0.00693026
0.00692005
0.00691067
0.00690205
0.00689423
0.00688714
0.00688084
0.00687529
0.00687054
0.00686656
0.00686346
0.00686121
0.00685998
0.00685971
0.00686079
0.00686313
0.00686567
0.00686902
0.00687302
0.00687769
0.00688312
0.00688937
0.0068965
0.00690455
0.0069136
0.00692367
0.00693486
0.00694713
0.00696063
0.00697509
0.00699088
0.00700702
0.00702497
0.00704114
0.00706183
0.00707317
0.00710264
0.00709075
0.00716409
0.00706744
0.019185
0.0196503
0.0177736
0.0160781
0.0147364
0.0137014
0.0128931
0.0122481
0.0117227
0.0112867
0.0109196
0.010606
0.0103354
0.0100992
0.00989162
0.00970762
0.00954355
0.00939645
0.00926389
0.00914397
0.00903515
0.00893594
0.00884547
0.0087625
0.00868651
0.00861651
0.00855216
0.00849268
0.0084378
0.00838695
0.00833987
0.00829615
0.00825556
0.00821778
0.00818263
0.00814982
0.00811925
0.00809065
0.00806398
0.00803898
0.00801562
0.00799373
0.00797325
0.00795406
0.00793611
0.00791929
0.0079036
0.00788892
0.00787527
0.00786258
0.00785084
0.00784
0.0078301
0.00782109
0.007813
0.00780585
0.00779966
0.00779447
0.00779034
0.00778732
0.00778559
0.00778511
0.00778636
0.00778928
0.00779252
0.00779684
0.00780199
0.00780801
0.00781503
0.00782309
0.00783224
0.00784252
0.00785396
0.00786656
0.00788035
0.00789525
0.00791128
0.00792815
0.00794602
0.00796406
0.00798326
0.00800072
0.0080216
0.00803388
0.00806278
0.00805091
0.00812851
0.00802325
0.0156046
0.0168499
0.0168598
0.0158085
0.0147921
0.0139484
0.0132592
0.0126946
0.012228
0.0118382
0.0115094
0.011229
0.0109876
0.0107778
0.0105941
0.0104319
0.0102876
0.0101585
0.0100423
0.00993715
0.00984157
0.00975419
0.00967419
0.0096005
0.0095326
0.0094697
0.00941144
0.00935723
0.00930679
0.0092597
0.00921574
0.00917457
0.00913604
0.00909986
0.00906593
0.00903401
0.00900402
0.00897577
0.00894919
0.00892413
0.00890053
0.00887827
0.00885732
0.00883757
0.00881899
0.00880151
0.00878511
0.00876974
0.00875539
0.00874202
0.00872963
0.00871821
0.00870778
0.00869835
0.00868994
0.00868258
0.00867635
0.00867128
0.0086675
0.00866505
0.00866419
0.00866488
0.00866774
0.00867247
0.00867747
0.00868376
0.00869106
0.00869941
0.00870894
0.00871969
0.00873166
0.00874485
0.00875923
0.00877477
0.00879139
0.00880895
0.00882738
0.00884636
0.00886592
0.00888535
0.00890534
0.0089236
0.00894432
0.00895732
0.00898516
0.00897429
0.00905352
0.00894385
0.0120263
0.0140496
0.0144999
0.0146521
0.014082
0.0135638
0.013078
0.0126534
0.0122888
0.0119774
0.0117114
0.0114832
0.0112864
0.0111155
0.0109662
0.0108349
0.0107187
0.0106152
0.0105225
0.0104389
0.0103633
0.0102943
0.0102313
0.0101734
0.0101199
0.0100704
0.0100245
0.00998167
0.00994169
0.00990424
0.00986912
0.0098361
0.00980504
0.00977574
0.00974811
0.00972198
0.0096973
0.00967392
0.00965182
0.00963088
0.00961107
0.00959231
0.00957457
0.00955781
0.00954201
0.00952712
0.00951316
0.00950009
0.00948794
0.0094767
0.00946639
0.00945703
0.00944867
0.00944133
0.0094351
0.00943002
0.00942621
0.00942374
0.00942279
0.00942345
0.00942605
0.00943056
0.00943774
0.00944662
0.00945525
0.00946534
0.00947655
0.00948893
0.00950258
0.0095175
0.00953364
0.00955092
0.00956929
0.00958859
0.00960873
0.00962948
0.00965072
0.00967213
0.00969368
0.00971476
0.00973594
0.00975534
0.00977649
0.00979072
0.00981807