/*--------------------------------*- C++ -*----------------------------------*\
| =========                 |                                                 |
| \\      /  F ield         | OpenFOAM: The Open Source CFD Toolbox           |
|  \\    /   O peration     | Version:  2306                                  |
|   \\  /    A nd           | Website:  www.openfoam.com                      |
|    \\/     M anipulation  |                                                 |
\*---------------------------------------------------------------------------*/
FoamFile
{
    version     2.0;
    format      ascii;
    arch        "LSB;label=32;scalar=64";
    class       volScalarField;
    location    "2000";
    object      p;
}
// * * * * * * * * * * * * * * * * * * * * * * * * * * * * * * * * * * * * * //

dimensions      [0 2 -2 0 0 0 0];

internalField   nonuniform List<scalar> 
20540
(
203.279
-5.76147
201.994
-18.1392
201.108
-25.875
200.785
-28.8009
200.641
-30.0415
200.532
-30.8565
200.444
-31.4734
200.38
-31.9298
200.336
-32.2648
200.307
-32.5117
200.288
-32.6895
200.275
-32.8078
200.266
-32.8712
200.255
-32.8813
200.239
-32.8376
200.212
-32.7386
200.173
-32.5825
200.118
-32.3677
200.046
-32.0938
199.954
-31.7614
199.842
-31.3717
199.721
-30.9291
199.602
-30.4475
199.467
-29.9404
199.208
-29.3574
198.717
-28.5275
198.101
-27.3546
197.456
-26.0968
196.745
-25.0046
195.969
-24.0025
195.369
-23.2692
195.085
-22.9639
195.083
-23.0069
195.359
-23.3986
195.933
-24.2054
196.668
-25.2412
197.351
-26.3397
197.98
-27.5947
198.594
-28.7908
199.106
-29.6645
199.395
-30.2837
199.552
-30.8132
199.689
-31.3099
199.828
-31.7657
199.958
-32.169
200.07
-32.5164
200.161
-32.807
200.233
-33.0408
200.287
-33.2185
200.324
-33.342
200.349
-33.4136
200.365
-33.4355
200.376
-33.409
200.388
-33.3338
200.403
-33.208
200.426
-33.0265
200.46
-32.7794
200.51
-32.4474
200.58
-31.9977
200.676
-31.3908
200.794
-30.5846
200.949
-29.3468
201.288
-26.4548
202.2
-18.9469
203.517
-7.07525
-87.6801
-54.752
-60.864
-63.961
-66.0886
-68.9453
-71.9816
-74.9375
-77.8587
-80.7325
-83.534
-86.2545
-88.8923
-91.4451
-93.9127
-96.2958
-98.596
-100.815
-102.955
-105.018
-107.008
-108.925
-110.773
-112.553
-114.27
-115.924
-117.517
-119.053
-120.533
-121.96
-123.335
-124.66
-125.938
-127.17
-128.358
-129.504
-130.61
-131.678
-132.711
-133.71
-134.677
-135.616
-136.528
-137.418
-138.288
-139.141
-139.983
-140.816
-141.647
-142.479
-143.319
-144.172
-145.047
-145.949
-146.887
-147.869
-148.904
-150.003
-151.173
-152.429
-153.778
-155.24
-156.821
-158.265
-159.47
-160.705
-161.977
-163.287
-164.635
-166.02
-167.445
-168.909
-170.413
-171.961
-173.551
-175.196
-176.876
-178.632
-180.403
-182.295
-184.159
-186.252
-188.224
-190.695
-192.825
-196.065
-198.819
-203.953
-87.6838
-54.752
-60.8638
-63.9609
-66.0885
-68.9452
-71.9815
-74.9375
-77.8587
-80.7325
-83.534
-86.2545
-88.8923
-91.4451
-93.9127
-96.2958
-98.596
-100.815
-102.955
-105.018
-107.008
-108.925
-110.773
-112.553
-114.27
-115.924
-117.517
-119.053
-120.533
-121.96
-123.335
-124.66
-125.938
-127.17
-128.358
-129.504
-130.61
-131.678
-132.711
-133.71
-134.677
-135.616
-136.528
-137.418
-138.288
-139.141
-139.983
-140.816
-141.647
-142.479
-143.319
-144.172
-145.047
-145.949
-146.887
-147.869
-148.904
-150.003
-151.173
-152.429
-153.778
-155.24
-156.821
-158.265
-159.47
-160.705
-161.978
-163.287
-164.635
-166.021
-167.445
-168.909
-170.413
-171.962
-173.551
-175.196
-176.877
-178.632
-180.404
-182.295
-184.16
-186.252
-188.224
-190.696
-192.826
-196.066
-198.823
-203.908
-87.6977
-54.7523
-60.8634
-63.9606
-66.0883
-68.945
-71.9814
-74.9374
-77.8586
-80.7324
-83.5339
-86.2544
-88.8922
-91.445
-93.9127
-96.2958
-98.596
-100.815
-102.955
-105.018
-107.008
-108.925
-110.773
-112.553
-114.27
-115.924
-117.517
-119.053
-120.533
-121.96
-123.335
-124.66
-125.938
-127.17
-128.358
-129.504
-130.61
-131.678
-132.711
-133.71
-134.677
-135.616
-136.528
-137.418
-138.288
-139.141
-139.983
-140.816
-141.647
-142.479
-143.319
-144.172
-145.047
-145.949
-146.887
-147.869
-148.905
-150.003
-151.173
-152.429
-153.778
-155.24
-156.821
-158.265
-159.471
-160.705
-161.978
-163.287
-164.636
-166.021
-167.446
-168.909
-170.413
-171.962
-173.552
-175.197
-176.877
-178.633
-180.405
-182.296
-184.161
-186.254
-188.226
-190.698
-192.829
-196.07
-198.824
-203.806
-87.7216
-54.7527
-60.8627
-63.96
-66.0879
-68.9447
-71.9812
-74.9372
-77.8585
-80.7323
-83.5338
-86.2543
-88.8922
-91.445
-93.9126
-96.2958
-98.596
-100.815
-102.955
-105.018
-107.008
-108.925
-110.773
-112.553
-114.27
-115.923
-117.517
-119.053
-120.533
-121.96
-123.335
-124.66
-125.938
-127.17
-128.358
-129.504
-130.61
-131.678
-132.711
-133.71
-134.677
-135.616
-136.528
-137.418
-138.288
-139.141
-139.983
-140.816
-141.647
-142.479
-143.319
-144.172
-145.047
-145.949
-146.887
-147.869
-148.905
-150.003
-151.174
-152.429
-153.779
-155.24
-156.821
-158.265
-159.471
-160.706
-161.978
-163.288
-164.636
-166.022
-167.447
-168.91
-170.414
-171.963
-173.553
-175.198
-176.879
-178.635
-180.407
-182.299
-184.163
-186.257
-188.23
-190.703
-192.834
-196.076
-198.819
-203.714
-87.7616
-54.754
-60.8621
-63.9592
-66.0872
-68.9442
-71.9807
-74.9368
-77.8582
-80.732
-83.5336
-86.2542
-88.892
-91.4449
-93.9125
-96.2957
-98.5959
-100.815
-102.955
-105.018
-107.008
-108.925
-110.773
-112.553
-114.27
-115.923
-117.517
-119.053
-120.533
-121.96
-123.335
-124.66
-125.938
-127.17
-128.358
-129.504
-130.61
-131.678
-132.711
-133.709
-134.677
-135.616
-136.528
-137.418
-138.288
-139.142
-139.983
-140.816
-141.647
-142.479
-143.319
-144.173
-145.047
-145.949
-146.887
-147.869
-148.905
-150.003
-151.174
-152.429
-153.779
-155.241
-156.822
-158.266
-159.472
-160.707
-161.979
-163.289
-164.638
-166.023
-167.448
-168.912
-170.416
-171.965
-173.555
-175.201
-176.881
-178.638
-180.409
-182.302
-184.167
-186.262
-188.234
-190.709
-192.84
-196.082
-198.803
-203.634
-87.8251
-54.7574
-60.8619
-63.9583
-66.0863
-68.9435
-71.9802
-74.9364
-77.8578
-80.7317
-83.5333
-86.2539
-88.8918
-91.4447
-93.9124
-96.2955
-98.5958
-100.815
-102.955
-105.018
-107.007
-108.925
-110.773
-112.553
-114.27
-115.923
-117.517
-119.053
-120.533
-121.96
-123.335
-124.66
-125.938
-127.169
-128.358
-129.504
-130.61
-131.678
-132.711
-133.709
-134.677
-135.616
-136.528
-137.418
-138.288
-139.142
-139.983
-140.816
-141.647
-142.479
-143.319
-144.173
-145.047
-145.949
-146.887
-147.87
-148.905
-150.003
-151.174
-152.43
-153.779
-155.241
-156.822
-158.267
-159.473
-160.708
-161.98
-163.29
-164.639
-166.024
-167.45
-168.914
-170.418
-171.967
-173.557
-175.203
-176.884
-178.641
-180.413
-182.306
-184.171
-186.267
-188.239
-190.715
-192.845
-196.086
-198.771
-203.541
-87.9175
-54.764
-60.8627
-63.9577
-66.0854
-68.9427
-71.9795
-74.9358
-77.8573
-80.7313
-83.533
-86.2536
-88.8916
-91.4445
-93.9122
-96.2954
-98.5956
-100.815
-102.955
-105.018
-107.007
-108.925
-110.772
-112.553
-114.269
-115.923
-117.517
-119.053
-120.533
-121.96
-123.335
-124.66
-125.938
-127.169
-128.357
-129.504
-130.61
-131.678
-132.711
-133.709
-134.677
-135.616
-136.528
-137.418
-138.288
-139.142
-139.983
-140.816
-141.647
-142.479
-143.319
-144.173
-145.047
-145.949
-146.887
-147.87
-148.905
-150.004
-151.175
-152.43
-153.78
-155.242
-156.823
-158.268
-159.474
-160.709
-161.982
-163.291
-164.641
-166.026
-167.452
-168.916
-170.42
-171.97
-173.56
-175.207
-176.888
-178.645
-180.417
-182.311
-184.175
-186.273
-188.243
-190.721
-192.849
-196.085
-198.719
-203.419
-88.0432
-54.7753
-60.8652
-63.9576
-66.0846
-68.9418
-71.9787
-74.9351
-77.8567
-80.7308
-83.5325
-86.2533
-88.8912
-91.4442
-93.9119
-96.2951
-98.5954
-100.815
-102.955
-105.018
-107.007
-108.925
-110.772
-112.553
-114.269
-115.923
-117.517
-119.053
-120.533
-121.96
-123.335
-124.66
-125.938
-127.169
-128.357
-129.504
-130.61
-131.678
-132.711
-133.709
-134.677
-135.616
-136.528
-137.418
-138.288
-139.142
-139.983
-140.816
-141.647
-142.479
-143.319
-144.173
-145.047
-145.95
-146.888
-147.87
-148.906
-150.004
-151.175
-152.431
-153.781
-155.243
-156.824
-158.269
-159.475
-160.71
-161.983
-163.293
-164.643
-166.029
-167.454
-168.918
-170.423
-171.973
-173.564
-175.21
-176.891
-178.649
-180.421
-182.316
-184.179
-186.278
-188.247
-190.725
-192.848
-196.076
-198.641
-203.255
-88.207
-54.7928
-60.8703
-63.9585
-66.0841
-68.941
-71.9778
-74.9343
-77.856
-80.7302
-83.532
-86.2528
-88.8908
-91.4438
-93.9116
-96.2949
-98.5952
-100.814
-102.954
-105.018
-107.007
-108.924
-110.772
-112.553
-114.269
-115.923
-117.517
-119.053
-120.533
-121.96
-123.335
-124.66
-125.937
-127.169
-128.357
-129.504
-130.61
-131.678
-132.711
-133.709
-134.677
-135.616
-136.528
-137.418
-138.288
-139.142
-139.983
-140.816
-141.647
-142.479
-143.319
-144.173
-145.047
-145.95
-146.888
-147.871
-148.906
-150.005
-151.176
-152.432
-153.782
-155.244
-156.826
-158.271
-159.477
-160.712
-161.985
-163.295
-164.645
-166.031
-167.457
-168.921
-170.426
-171.976
-173.567
-175.214
-176.895
-178.653
-180.425
-182.32
-184.183
-186.282
-188.249
-190.725
-192.842
-196.056
-198.531
-203.041
-88.4141
-54.8186
-60.8791
-63.9611
-66.0842
-68.9403
-71.9769
-74.9334
-77.8552
-80.7294
-83.5313
-86.2522
-88.8903
-91.4433
-93.9112
-96.2945
-98.5948
-100.814
-102.954
-105.018
-107.007
-108.924
-110.772
-112.553
-114.269
-115.923
-117.517
-119.053
-120.533
-121.96
-123.334
-124.66
-125.937
-127.169
-128.357
-129.504
-130.61
-131.678
-132.711
-133.709
-134.677
-135.616
-136.528
-137.418
-138.288
-139.142
-139.983
-140.817
-141.647
-142.479
-143.319
-144.173
-145.048
-145.95
-146.888
-147.871
-148.907
-150.005
-151.176
-152.432
-153.783
-155.245
-156.827
-158.272
-159.478
-160.714
-161.987
-163.297
-164.647
-166.033
-167.459
-168.924
-170.429
-171.979
-173.57
-175.217
-176.898
-178.656
-180.428
-182.323
-184.185
-186.283
-188.247
-190.719
-192.825
-196.018
-198.382
-202.766
-88.6697
-54.8543
-60.8929
-63.9662
-66.0856
-68.9403
-71.9763
-74.9325
-77.8543
-80.7286
-83.5306
-86.2515
-88.8897
-91.4428
-93.9107
-96.294
-98.5944
-100.814
-102.954
-105.017
-107.007
-108.924
-110.772
-112.553
-114.269
-115.923
-117.517
-119.053
-120.533
-121.959
-123.334
-124.66
-125.937
-127.169
-128.357
-129.503
-130.61
-131.678
-132.71
-133.709
-134.677
-135.616
-136.528
-137.418
-138.288
-139.142
-139.983
-140.817
-141.647
-142.479
-143.319
-144.173
-145.048
-145.95
-146.889
-147.871
-148.907
-150.006
-151.177
-152.433
-153.784
-155.246
-156.828
-158.274
-159.48
-160.716
-161.989
-163.299
-164.649
-166.036
-167.462
-168.927
-170.432
-171.982
-173.573
-175.22
-176.9
-178.658
-180.429
-182.323
-184.183
-186.28
-188.239
-190.703
-192.792
-195.954
-198.187
-202.415
-88.9784
-54.902
-60.913
-63.975
-66.0889
-68.9412
-71.9761
-74.9319
-77.8534
-80.7277
-83.5297
-86.2507
-88.8889
-91.4421
-93.9101
-96.2935
-98.5939
-100.813
-102.953
-105.017
-107.006
-108.924
-110.772
-112.552
-114.269
-115.923
-117.517
-119.052
-120.533
-121.959
-123.334
-124.66
-125.937
-127.169
-128.357
-129.503
-130.61
-131.678
-132.71
-133.709
-134.677
-135.615
-136.528
-137.418
-138.288
-139.142
-139.983
-140.817
-141.647
-142.479
-143.319
-144.173
-145.048
-145.951
-146.889
-147.872
-148.908
-150.007
-151.178
-152.434
-153.785
-155.247
-156.83
-158.275
-159.481
-160.717
-161.991
-163.301
-164.651
-166.037
-167.463
-168.928
-170.433
-171.984
-173.574
-175.22
-176.9
-178.657
-180.426
-182.319
-184.176
-186.268
-188.221
-190.672
-192.737
-195.852
-197.938
-201.973
-89.3427
-54.9642
-60.9406
-63.9887
-66.0951
-68.9439
-71.977
-74.9318
-77.8529
-80.7269
-83.5289
-86.2498
-88.8881
-91.4413
-93.9094
-96.2928
-98.5933
-100.813
-102.953
-105.016
-107.006
-108.923
-110.771
-112.552
-114.268
-115.922
-117.516
-119.052
-120.532
-121.959
-123.334
-124.659
-125.937
-127.169
-128.357
-129.503
-130.609
-131.678
-132.71
-133.709
-134.677
-135.615
-136.528
-137.418
-138.288
-139.142
-139.983
-140.817
-141.647
-142.479
-143.319
-144.174
-145.048
-145.951
-146.889
-147.872
-148.908
-150.007
-151.178
-152.435
-153.785
-155.248
-156.83
-158.276
-159.482
-160.718
-161.992
-163.302
-164.652
-166.038
-167.464
-168.928
-170.433
-171.983
-173.572
-175.218
-176.896
-178.651
-180.418
-182.307
-184.159
-186.244
-188.188
-190.617
-192.65
-195.694
-197.629
-201.425
-89.7618
-55.0436
-60.9768
-64.0085
-66.1052
-68.9491
-71.9795
-74.9327
-77.8529
-80.7265
-83.5282
-86.2491
-88.8873
-91.4405
-93.9086
-96.2921
-98.5926
-100.812
-102.952
-105.016
-107.005
-108.923
-110.771
-112.552
-114.268
-115.922
-117.516
-119.052
-120.532
-121.959
-123.334
-124.659
-125.937
-127.169
-128.357
-129.503
-130.609
-131.678
-132.71
-133.709
-134.676
-135.615
-136.528
-137.418
-138.288
-139.141
-139.983
-140.817
-141.647
-142.479
-143.319
-144.174
-145.048
-145.951
-146.889
-147.872
-148.908
-150.007
-151.179
-152.435
-153.786
-155.248
-156.831
-158.276
-159.482
-160.718
-161.991
-163.301
-164.65
-166.036
-167.461
-168.926
-170.429
-171.978
-173.566
-175.21
-176.886
-178.638
-180.4
-182.283
-184.129
-186.2
-188.131
-190.527
-192.519
-195.463
-197.25
-200.762
-90.2296
-55.1436
-61.0224
-64.0355
-66.1203
-68.9578
-71.9844
-74.9353
-77.8541
-80.7268
-83.528
-86.2486
-88.8866
-91.4398
-93.9078
-96.2913
-98.5919
-100.811
-102.952
-105.015
-107.005
-108.922
-110.77
-112.551
-114.267
-115.922
-117.515
-119.051
-120.532
-121.958
-123.333
-124.659
-125.936
-127.168
-128.357
-129.503
-130.609
-131.677
-132.71
-133.709
-134.676
-135.615
-136.528
-137.418
-138.288
-139.141
-139.983
-140.816
-141.647
-142.479
-143.319
-144.173
-145.048
-145.951
-146.889
-147.872
-148.908
-150.007
-151.178
-152.434
-153.785
-155.248
-156.829
-158.274
-159.48
-160.716
-161.988
-163.298
-164.646
-166.031
-167.455
-168.918
-170.42
-171.967
-173.552
-175.193
-176.865
-178.611
-180.367
-182.24
-184.076
-186.127
-188.039
-190.385
-192.33
-195.135
-196.79
-199.977
-90.7319
-55.2682
-61.0782
-64.0706
-66.1414
-68.9711
-71.9927
-74.9403
-77.857
-80.7284
-83.5287
-86.2487
-88.8864
-91.4393
-93.9072
-96.2906
-98.5912
-100.811
-102.951
-105.015
-107.004
-108.922
-110.77
-112.551
-114.267
-115.921
-117.515
-119.051
-120.531
-121.958
-123.333
-124.658
-125.936
-127.168
-128.356
-129.502
-130.609
-131.677
-132.71
-133.709
-134.676
-135.615
-136.528
-137.417
-138.287
-139.141
-139.983
-140.816
-141.646
-142.479
-143.319
-144.173
-145.048
-145.95
-146.888
-147.871
-148.907
-150.006
-151.177
-152.433
-153.783
-155.245
-156.826
-158.27
-159.475
-160.71
-161.981
-163.29
-164.636
-166.02
-167.442
-168.903
-170.402
-171.946
-173.527
-175.162
-176.828
-178.565
-180.312
-182.169
-183.991
-186.011
-187.899
-190.172
-192.062
-194.688
-196.229
-199.069
-91.2442
-55.4224
-61.1449
-64.1144
-66.1692
-68.9898
-72.0054
-74.9488
-77.8626
-80.732
-83.531
-86.25
-88.8871
-91.4395
-93.9071
-96.2903
-98.5907
-100.81
-102.95
-105.014
-107.003
-108.921
-110.769
-112.55
-114.266
-115.92
-117.514
-119.05
-120.531
-121.957
-123.333
-124.658
-125.936
-127.168
-128.356
-129.502
-130.608
-131.677
-132.709
-133.708
-134.676
-135.615
-136.527
-137.417
-138.287
-139.141
-139.982
-140.816
-141.646
-142.478
-143.318
-144.172
-145.047
-145.949
-146.887
-147.869
-148.905
-150.003
-151.174
-152.429
-153.778
-155.24
-156.82
-158.262
-159.466
-160.699
-161.968
-163.275
-164.619
-166
-167.418
-168.876
-170.37
-171.909
-173.484
-175.11
-176.767
-178.49
-180.224
-182.056
-183.859
-185.834
-187.688
-189.864
-191.688
-194.101
-195.541
-198.038
-91.7299
-55.611
-61.2231
-64.1675
-66.2041
-69.0143
-72.0231
-74.9614
-77.8716
-80.7384
-83.5354
-86.2531
-88.8892
-91.4409
-93.9079
-96.2907
-98.5908
-100.81
-102.95
-105.014
-107.003
-108.92
-110.768
-112.549
-114.266
-115.92
-117.514
-119.05
-120.53
-121.957
-123.332
-124.657
-125.935
-127.167
-128.355
-129.502
-130.608
-131.676
-132.709
-133.708
-134.675
-135.614
-136.527
-137.417
-138.286
-139.14
-139.981
-140.815
-141.645
-142.477
-143.317
-144.171
-145.045
-145.947
-146.885
-147.866
-148.901
-149.999
-151.168
-152.423
-153.77
-155.23
-156.808
-158.248
-159.449
-160.68
-161.946
-163.249
-164.589
-165.966
-167.379
-168.831
-170.319
-171.849
-173.414
-175.028
-176.67
-178.373
-180.087
-181.885
-183.659
-185.572
-187.38
-189.433
-191.177
-193.356
-194.695
-196.878
-92.1418
-55.8375
-61.3133
-64.2303
-66.2461
-69.0449
-72.0462
-74.9788
-77.8847
-80.7483
-83.5429
-86.2587
-88.8933
-91.444
-93.9102
-96.2923
-98.5919
-100.811
-102.95
-105.014
-107.003
-108.92
-110.768
-112.549
-114.266
-115.92
-117.514
-119.05
-120.53
-121.957
-123.332
-124.657
-125.935
-127.167
-128.355
-129.501
-130.608
-131.676
-132.708
-133.707
-134.675
-135.614
-136.526
-137.416
-138.286
-139.139
-139.981
-140.814
-141.644
-142.476
-143.315
-144.168
-145.042
-145.943
-146.88
-147.861
-148.895
-149.991
-151.159
-152.411
-153.757
-155.213
-156.788
-158.224
-159.421
-160.648
-161.91
-163.208
-164.542
-165.912
-167.317
-168.76
-170.237
-171.754
-173.305
-174.9
-176.522
-178.195
-179.879
-181.631
-183.363
-185.195
-186.938
-188.848
-190.492
-192.432
-193.664
-195.574
-92.4246
-56.1031
-61.4156
-64.3032
-66.295
-69.0814
-72.0746
-75.0011
-77.9022
-80.7622
-83.554
-86.2675
-88.9003
-91.4495
-93.9145
-96.2958
-98.5946
-100.813
-102.952
-105.015
-107.004
-108.921
-110.769
-112.549
-114.266
-115.92
-117.513
-119.049
-120.53
-121.956
-123.331
-124.657
-125.935
-127.166
-128.355
-129.501
-130.607
-131.676
-132.708
-133.707
-134.674
-135.613
-136.526
-137.415
-138.285
-139.138
-139.979
-140.812
-141.642
-142.473
-143.312
-144.165
-145.038
-145.938
-146.874
-147.853
-148.885
-149.979
-151.145
-152.394
-153.736
-155.187
-156.756
-158.186
-159.377
-160.598
-161.853
-163.142
-164.467
-165.827
-167.221
-168.649
-170.111
-171.61
-173.139
-174.706
-176.298
-177.931
-179.573
-181.262
-182.933
-184.666
-186.321
-188.07
-189.593
-191.304
-192.42
-194.098
-92.5208
-56.4053
-61.5292
-64.3869
-66.3505
-69.123
-72.108
-75.0279
-77.9241
-80.7802
-83.5688
-86.2798
-88.9105
-91.4579
-93.9216
-96.3016
-98.5994
-100.817
-102.955
-105.018
-107.006
-108.923
-110.77
-112.551
-114.267
-115.92
-117.514
-119.05
-120.53
-121.957
-123.332
-124.657
-125.935
-127.167
-128.355
-129.501
-130.607
-131.675
-132.708
-133.707
-134.674
-135.613
-136.525
-137.414
-138.284
-139.137
-139.977
-140.81
-141.639
-142.47
-143.308
-144.159
-145.031
-145.93
-146.863
-147.841
-148.87
-149.96
-151.122
-152.366
-153.702
-155.146
-156.706
-158.127
-159.309
-160.522
-161.765
-163.042
-164.354
-165.698
-167.074
-168.483
-169.921
-171.392
-172.89
-174.419
-175.968
-177.545
-179.128
-180.737
-182.325
-183.94
-185.482
-187.06
-188.443
-189.937
-190.933
-192.411
-92.38
-56.7381
-61.6511
-64.482
-66.4123
-69.1692
-72.1455
-75.0587
-77.9497
-80.8019
-83.5873
-86.2955
-88.924
-91.4695
-93.9315
-96.3102
-98.6069
-100.823
-102.961
-105.023
-107.01
-108.926
-110.773
-112.554
-114.269
-115.923
-117.516
-119.052
-120.532
-121.958
-123.333
-124.658
-125.936
-127.167
-128.355
-129.501
-130.608
-131.676
-132.708
-133.707
-134.674
-135.612
-136.525
-137.414
-138.283
-139.135
-139.975
-140.807
-141.635
-142.465
-143.301
-144.151
-145.021
-145.917
-146.848
-147.821
-148.846
-149.932
-151.087
-152.324
-153.651
-155.084
-156.631
-158.037
-159.207
-160.405
-161.632
-162.892
-164.183
-165.505
-166.856
-168.235
-169.64
-171.072
-172.525
-174.001
-175.489
-176.993
-178.496
-180.004
-181.486
-182.963
-184.368
-185.769
-187
-188.292
-189.168
-190.466
-91.9722
-57.0895
-61.7756
-64.5895
-66.4803
-69.2192
-72.1864
-75.0925
-77.9781
-80.8263
-83.6085
-86.3141
-88.9403
-91.4839
-93.9443
-96.3215
-98.6169
-100.832
-102.969
-105.03
-107.017
-108.932
-110.778
-112.558
-114.273
-115.926
-117.519
-119.055
-120.534
-121.96
-123.335
-124.66
-125.937
-127.169
-128.357
-129.503
-130.609
-131.677
-132.709
-133.707
-134.674
-135.612
-136.524
-137.413
-138.281
-139.133
-139.972
-140.803
-141.629
-142.457
-143.292
-144.139
-145.005
-145.898
-146.824
-147.793
-148.811
-149.889
-151.034
-152.26
-153.574
-154.991
-156.518
-157.903
-159.054
-160.232
-161.436
-162.669
-163.931
-165.22
-166.534
-167.871
-169.229
-170.606
-171.998
-173.401
-174.809
-176.218
-177.616
-179.001
-180.352
-181.675
-182.926
-184.146
-185.219
-186.322
-187.081
-188.208
-91.2979
-57.4348
-61.8949
-64.7105
-66.5547
-69.2726
-72.2301
-75.1284
-78.0083
-80.8524
-83.6315
-86.3345
-88.9585
-91.5003
-93.959
-96.3348
-98.629
-100.843
-102.979
-105.039
-107.025
-108.94
-110.786
-112.565
-114.279
-115.932
-117.524
-119.059
-120.539
-121.965
-123.339
-124.664
-125.941
-127.172
-128.36
-129.505
-130.611
-131.679
-132.711
-133.709
-134.675
-135.613
-136.524
-137.412
-138.28
-139.13
-139.968
-140.797
-141.621
-142.447
-143.278
-144.121
-144.983
-145.87
-146.79
-147.75
-148.758
-149.824
-150.956
-152.165
-153.459
-154.852
-156.349
-157.704
-158.828
-159.976
-161.147
-162.343
-163.563
-164.806
-166.067
-167.346
-168.638
-169.94
-171.248
-172.557
-173.859
-175.15
-176.418
-177.659
-178.857
-180.012
-181.096
-182.135
-183.047
-183.971
-184.614
-185.575
-90.3723
-57.7319
-61.9978
-64.8458
-66.6355
-69.329
-72.276
-75.1659
-78.0394
-80.8793
-83.6551
-86.3555
-88.9774
-91.5175
-93.9747
-96.3492
-98.6423
-100.855
-102.99
-105.049
-107.035
-108.949
-110.794
-112.573
-114.287
-115.939
-117.531
-119.066
-120.545
-121.97
-123.344
-124.668
-125.945
-127.176
-128.364
-129.509
-130.615
-131.682
-132.714
-133.711
-134.677
-135.614
-136.525
-137.411
-138.277
-139.126
-139.962
-140.788
-141.61
-142.431
-143.258
-144.095
-144.95
-145.829
-146.738
-147.686
-148.68
-149.729
-150.841
-152.025
-153.29
-154.647
-156.102
-157.414
-158.498
-159.604
-160.727
-161.87
-163.032
-164.209
-165.399
-166.597
-167.801
-169.004
-170.203
-171.391
-172.562
-173.709
-174.823
-175.9
-176.927
-177.905
-178.813
-179.671
-180.424
-181.175
-181.701
-182.496
-89.2015
-57.9575
-62.054
-64.9937
-66.7227
-69.3879
-72.3242
-75.2045
-78.071
-80.9062
-83.6785
-86.3762
-88.996
-91.5343
-93.9901
-96.3635
-98.6555
-100.868
-103.002
-105.06
-107.045
-108.959
-110.803
-112.581
-114.295
-115.947
-117.539
-119.073
-120.551
-121.977
-123.35
-124.674
-125.951
-127.182
-128.369
-129.514
-130.619
-131.686
-132.717
-133.714
-134.679
-135.615
-136.524
-137.41
-138.274
-139.121
-139.953
-140.776
-141.592
-142.408
-143.228
-144.057
-144.901
-145.768
-146.663
-147.593
-148.566
-149.59
-150.671
-151.82
-153.042
-154.348
-155.743
-156.993
-158.023
-159.067
-160.124
-161.194
-162.276
-163.365
-164.457
-165.549
-166.636
-167.713
-168.775
-169.815
-170.828
-171.808
-172.748
-173.644
-174.488
-175.28
-176.008
-176.687
-177.279
-177.863
-178.268
-178.897
-87.8401
-58.1367
-62.0116
-65.1409
-66.8133
-69.4474
-72.3738
-75.2441
-78.1026
-80.9327
-83.7013
-86.396
-89.0135
-91.5501
-94.0044
-96.3766
-98.6676
-100.879
-103.012
-105.07
-107.055
-108.968
-110.812
-112.589
-114.303
-115.954
-117.546
-119.08
-120.558
-121.983
-123.357
-124.68
-125.957
-127.187
-128.374
-129.519
-130.624
-131.69
-132.72
-133.717
-134.681
-135.615
-136.523
-137.406
-138.268
-139.111
-139.939
-140.756
-141.566
-142.373
-143.183
-144
-144.829
-145.678
-146.551
-147.456
-148.398
-149.386
-150.424
-151.522
-152.683
-153.917
-155.226
-156.39
-157.344
-158.305
-159.272
-160.243
-161.217
-162.189
-163.155
-164.111
-165.051
-165.972
-166.868
-167.734
-168.565
-169.358
-170.107
-170.81
-171.462
-172.065
-172.611
-173.112
-173.543
-173.962
-174.243
-174.705
-86.4596
-58.3122
-61.8593
-65.2532
-66.8938
-69.4998
-72.4211
-75.2825
-78.1331
-80.9581
-83.7229
-86.4145
-89.0296
-91.5643
-94.0171
-96.3881
-98.6781
-100.889
-103.021
-105.079
-107.062
-108.975
-110.819
-112.596
-114.309
-115.961
-117.552
-119.086
-120.564
-121.989
-123.362
-124.686
-125.962
-127.192
-128.379
-129.523
-130.627
-131.693
-132.723
-133.718
-134.681
-135.613
-136.518
-137.398
-138.256
-139.094
-139.916
-140.725
-141.526
-142.321
-143.116
-143.915
-144.723
-145.546
-146.389
-147.257
-148.155
-149.091
-150.068
-151.093
-152.17
-153.303
-154.493
-155.54
-156.391
-157.24
-158.086
-158.928
-159.763
-160.586
-161.393
-162.18
-162.944
-163.68
-164.384
-165.053
-165.684
-166.273
-166.82
-167.321
-167.777
-168.187
-168.55
-168.874
-169.143
-169.399
-169.551
-169.844
-85.1543
-58.5385
-61.685
-65.3217
-66.9416
-69.528
-72.4553
-75.3123
-78.1574
-80.9788
-83.7406
-86.4297
-89.0427
-91.5757
-94.0273
-96.3971
-98.6862
-100.896
-103.028
-105.085
-107.068
-108.981
-110.824
-112.601
-114.314
-115.965
-117.556
-119.09
-120.568
-121.992
-123.366
-124.689
-125.965
-127.195
-128.381
-129.525
-130.629
-131.694
-132.722
-133.716
-134.677
-135.607
-136.509
-137.385
-138.237
-139.068
-139.881
-140.679
-141.465
-142.244
-143.018
-143.792
-144.569
-145.355
-146.154
-146.97
-147.808
-148.671
-149.563
-150.488
-151.448
-152.444
-153.475
-154.367
-155.082
-155.786
-156.478
-157.156
-157.817
-158.458
-159.074
-159.664
-160.223
-160.75
-161.241
-161.696
-162.112
-162.489
-162.825
-163.122
-163.379
-163.599
-163.781
-163.93
-164.039
-164.135
-164.158
-164.279
-83.8919
-58.7047
-61.5733
-65.4076
-66.9822
-69.5404
-72.4713
-75.3249
-78.1668
-80.987
-83.7477
-86.4357
-89.0479
-91.5802
-94.0311
-96.4004
-98.689
-100.898
-103.03
-105.087
-107.07
-108.982
-110.826
-112.602
-114.315
-115.966
-117.557
-119.091
-120.569
-121.993
-123.366
-124.69
-125.966
-127.195
-128.381
-129.525
-130.627
-131.691
-132.718
-133.71
-134.668
-135.595
-136.492
-137.362
-138.206
-139.027
-139.828
-140.61
-141.377
-142.131
-142.876
-143.615
-144.35
-145.086
-145.824
-146.568
-147.321
-148.085
-148.862
-149.652
-150.455
-151.271
-152.095
-152.789
-153.332
-153.856
-154.359
-154.839
-155.294
-155.722
-156.12
-156.486
-156.82
-157.119
-157.384
-157.613
-157.806
-157.964
-158.088
-158.178
-158.236
-158.264
-158.263
-158.236
-158.181
-158.112
-158.001
-157.938
-83.0263
-58.7231
-61.4857
-65.4501
-67.0034
-69.5489
-72.4808
-75.3305
-78.1681
-80.9868
-83.7463
-86.4329
-89.0441
-91.5757
-94.0261
-96.3951
-98.6835
-100.893
-103.025
-105.081
-107.064
-108.976
-110.82
-112.597
-114.31
-115.961
-117.552
-119.085
-120.564
-121.988
-123.361
-124.685
-125.96
-127.19
-128.375
-129.518
-130.62
-131.683
-132.708
-133.698
-134.653
-135.575
-136.467
-137.329
-138.164
-138.973
-139.758
-140.522
-141.266
-141.992
-142.702
-143.398
-144.083
-144.758
-145.424
-146.084
-146.739
-147.387
-148.031
-148.667
-149.295
-149.91
-150.507
-150.987
-151.348
-151.684
-151.993
-152.273
-152.524
-152.743
-152.932
-153.088
-153.212
-153.304
-153.364
-153.393
-153.392
-153.363
-153.306
-153.224
-153.117
-152.99
-152.842
-152.676
-152.493
-152.298
-152.086
-151.884
-82.6218
-58.7216
-61.4479
-65.459
-67.0035
-69.5447
-72.4764
-75.3245
-78.1598
-80.9775
-83.7363
-86.4225
-89.0337
-91.5651
-94.0155
-96.3846
-98.6732
-100.883
-103.015
-105.071
-107.055
-108.967
-110.811
-112.588
-114.301
-115.952
-117.544
-119.077
-120.556
-121.98
-123.353
-124.677
-125.952
-127.182
-128.367
-129.509
-130.61
-131.672
-132.696
-133.683
-134.635
-135.553
-136.439
-137.293
-138.119
-138.916
-139.686
-140.43
-141.15
-141.846
-142.521
-143.174
-143.807
-144.421
-145.015
-145.591
-146.146
-146.682
-147.194
-147.682
-148.142
-148.568
-148.955
-149.24
-149.438
-149.607
-149.745
-149.852
-149.927
-149.972
-149.985
-149.967
-149.92
-149.844
-149.74
-149.61
-149.457
-149.28
-149.083
-148.867
-148.634
-148.386
-148.126
-147.854
-147.574
-147.286
-146.993
-146.697
-82.5957
-58.7089
-61.4512
-65.4545
-67.0014
-69.5439
-72.4756
-75.3237
-78.1592
-80.977
-83.7359
-86.4221
-89.0333
-91.5648
-94.0153
-96.3843
-98.673
-100.882
-103.014
-105.071
-107.055
-108.967
-110.811
-112.588
-114.301
-115.952
-117.544
-119.077
-120.556
-121.98
-123.353
-124.676
-125.952
-127.181
-128.366
-129.507
-130.607
-131.668
-132.69
-133.674
-134.623
-135.536
-136.416
-137.263
-138.079
-138.863
-139.618
-140.342
-141.038
-141.705
-142.344
-142.954
-143.536
-144.089
-144.612
-145.104
-145.563
-145.988
-146.375
-146.721
-147.021
-147.271
-147.464
-147.573
-147.625
-147.644
-147.631
-147.586
-147.51
-147.403
-147.266
-147.102
-146.911
-146.695
-146.457
-146.197
-145.919
-145.624
-145.314
-144.991
-144.658
-144.316
-143.968
-143.614
-143.258
-142.899
-142.541
-142.176
-82.9471
-58.6828
-61.4952
-65.4366
-66.9976
-69.5468
-72.4787
-75.3286
-78.1665
-80.9855
-83.7452
-86.4318
-89.0431
-91.5748
-94.0253
-96.3943
-98.6829
-100.892
-103.024
-105.081
-107.064
-108.976
-110.819
-112.596
-114.309
-115.96
-117.551
-119.085
-120.563
-121.987
-123.36
-124.683
-125.958
-127.187
-128.371
-129.512
-130.611
-131.67
-132.69
-133.671
-134.617
-135.526
-136.4
-137.239
-138.045
-138.817
-139.556
-140.261
-140.933
-141.571
-142.174
-142.742
-143.274
-143.767
-144.221
-144.632
-144.999
-145.318
-145.585
-145.797
-145.949
-146.034
-146.05
-145.998
-145.918
-145.804
-145.66
-145.484
-145.278
-145.043
-144.782
-144.496
-144.189
-143.86
-143.515
-143.153
-142.778
-142.391
-141.995
-141.592
-141.184
-140.772
-140.359
-139.945
-139.532
-139.12
-138.717
-138.301
-83.7402
-58.6357
-61.5863
-65.3859
-66.973
-69.5371
-72.468
-75.3222
-78.1648
-80.9854
-83.7464
-86.4345
-89.0468
-91.5791
-94.0301
-96.3995
-98.6882
-100.898
-103.03
-105.086
-107.069
-108.981
-110.825
-112.602
-114.315
-115.966
-117.557
-119.09
-120.568
-121.992
-123.365
-124.687
-125.962
-127.19
-128.374
-129.514
-130.612
-131.67
-132.688
-133.667
-134.609
-135.514
-136.383
-137.215
-138.011
-138.772
-139.496
-140.183
-140.832
-141.442
-142.012
-142.54
-143.024
-143.462
-143.85
-144.187
-144.468
-144.689
-144.848
-144.938
-144.956
-144.897
-144.756
-144.565
-144.372
-144.146
-143.89
-143.604
-143.29
-142.95
-142.586
-142.202
-141.799
-141.381
-140.948
-140.505
-140.052
-139.593
-139.129
-138.662
-138.194
-137.727
-137.262
-136.8
-136.344
-135.891
-135.452
-134.998
-84.9038
-58.4643
-61.6981
-65.2974
-66.9316
-69.5252
-72.452
-75.3101
-78.1561
-80.9777
-83.7398
-86.4289
-89.0421
-91.5751
-94.0267
-96.3965
-98.6857
-100.895
-103.028
-105.084
-107.068
-108.98
-110.824
-112.601
-114.314
-115.965
-117.556
-119.089
-120.567
-121.991
-123.364
-124.686
-125.961
-127.189
-128.372
-129.511
-130.609
-131.665
-132.682
-133.66
-134.599
-135.5
-136.364
-137.191
-137.98
-138.731
-139.443
-140.115
-140.745
-141.333
-141.876
-142.372
-142.817
-143.209
-143.545
-143.822
-144.034
-144.178
-144.25
-144.245
-144.159
-143.987
-143.726
-143.428
-143.149
-142.839
-142.499
-142.131
-141.736
-141.318