/*--------------------------------*- C++ -*----------------------------------*\
| =========                 |                                                 |
| \\      /  F ield         | OpenFOAM: The Open Source CFD Toolbox           |
|  \\    /   O peration     | Version:  2306                                  |
|   \\  /    A nd           | Website:  www.openfoam.com                      |
|    \\/     M anipulation  |                                                 |
\*---------------------------------------------------------------------------*/
FoamFile
{
    version     2.0;
    format      ascii;
    arch        "LSB;label=32;scalar=64";
    class       surfaceScalarField;
    location    "2000";
    object      phi;
}
// * * * * * * * * * * * * * * * * * * * * * * * * * * * * * * * * * * * * * //

dimensions      [0 3 -1 0 0 0 0];

oriented        oriented;

internalField   nonuniform List<scalar> 
40747
(
7.9437e-06
6.9368e-06
2.93915e-06
5.00455e-06
9.61791e-06
1.53202e-05
5.05105e-06
7.50602e-06
1.16515e-05
2.54454e-05
6.56875e-06
1.01338e-05
1.41229e-05
3.76664e-05
7.72895e-06
1.29627e-05
1.71294e-05
5.24059e-05
8.64891e-06
1.62095e-05
2.0792e-05
7.01666e-05
9.37646e-06
2.00645e-05
2.52614e-05
9.15436e-05
9.92556e-06
2.47123e-05
3.07256e-05
0.000117238
1.02943e-05
3.03569e-05
3.74214e-05
0.000148069
1.04752e-05
3.72405e-05
4.56476e-05
0.000184988
1.04634e-05
4.56594e-05
5.57844e-05
0.000229087
1.0266e-05
5.59817e-05
6.83185e-05
0.0002816
9.91515e-06
6.86693e-05
8.38775e-05
0.000343896
9.48596e-06
8.43067e-05
0.000103277
0.000417449
9.12323e-06
0.00010364
0.000127585
0.000503781
9.07925e-06
0.000127629
0.00015821
0.000604351
9.76666e-06
0.000157523
0.000197029
0.000720376
1.183e-05
0.000194965
0.000246554
0.000852531
1.62376e-05
0.000242146
0.000310173
0.00100049
2.439e-05
0.000302021
0.000392473
0.00116224
3.82333e-05
0.000378629
0.000499652
0.00133304
6.03305e-05
0.000477555
0.000639992
0.00150412
9.37555e-05
0.000606567
0.000824095
0.00166119
0.000141384
0.000776466
0.00106426
0.00178388
0.000203596
0.00100205
0.00137391
0.00184585
0.000274635
0.00130287
0.00176967
0.00181321
0.000342197
0.00170211
0.0022608
0.00165374
0.000386389
0.0022166
0.00281416
0.00138162
0.000375984
0.00282456
0.00340923
0.00104756
0.000309162
0.00347605
0.00410663
0.000661056
0.000210836
0.00420495
0.00391611
0.000309452
0.000110068
0.00401688
0.00390701
-3.30554e-05
7.32869e-06
0.00400975
0.003907
-0.000375554
-9.52162e-05
0.00400955
0.00391584
-0.000726889
-0.000195537
0.00401616
0.00398014
-0.00109977
-0.000291006
0.00407561
0.00332386
-0.00142276
-0.000357959
0.00339081
0.002762
-0.00168835
-0.000374275
0.00277831
0.00224004
-0.00185164
-0.000337043
0.0022028
0.00177007
-0.00189406
-0.000274423
0.00170744
0.0013859
-0.00184275
-0.000205944
0.00131742
0.00108198
-0.00172911
-0.000144233
0.00102026
0.00084383
-0.00157832
-9.5879e-05
0.000795476
0.000659551
-0.00141045
-6.12735e-05
0.000624945
0.000517944
-0.00124006
-3.7991e-05
0.000494661
0.00040905
-0.00107649
-2.31698e-05
0.000394229
0.000324928
-0.000925062
-1.43207e-05
0.000316078
0.000259547
-0.000788329
-9.496e-06
0.000254723
0.000208402
-0.000667068
-7.25641e-06
0.000206162
0.00016813
-0.000560952
-6.58242e-06
0.000167457
0.000136223
-0.000469031
-6.77768e-06
0.000136418
0.000110792
-0.000390032
-7.38343e-06
0.000111398
9.0414e-05
-0.000322559
-8.1098e-06
9.11404e-05
7.40033e-05
-0.000265217
-8.78329e-06
7.46768e-05
6.07284e-05
-0.00021668
-9.3083e-06
6.12534e-05
4.99472e-05
-0.00017573
-9.63942e-06
5.02783e-05
4.116e-05
-0.000141273
-9.76195e-06
4.12825e-05
3.39755e-05
-0.000112343
-9.67828e-06
3.38919e-05
2.80854e-05
-8.80971e-05
-9.39823e-06
2.78053e-05
2.32447e-05
-6.7808e-05
-8.93162e-06
2.27781e-05
1.92582e-05
-5.08507e-05
-8.28129e-06
1.86079e-05
1.59694e-05
-3.66925e-05
-7.43359e-06
1.51217e-05
1.32517e-05
-2.48813e-05
-6.34116e-06
1.21593e-05
1.10033e-05
-1.50348e-05
-4.8884e-06
9.5505e-06
9.14102e-06
-6.83102e-06
-2.84499e-06
7.09762e-06
7.59806e-06
4.75306e-06
2.44081e-06
2.56374e-06
1.64906e-06
7.91747e-07
1.47064e-06
1.78419e-07
1.36978e-06
1.00863e-07
1.30643e-06
6.3349e-08
1.26398e-06
4.24428e-08
1.23367e-06
3.03146e-08
1.21112e-06
2.2552e-08
1.19388e-06
1.72369e-08
1.1804e-06
1.34757e-08
1.16967e-06
1.07297e-08
1.16101e-06
8.6596e-09
1.15394e-06
7.07519e-09
1.14811e-06
5.83265e-09
1.14325e-06
4.85225e-09
1.1392e-06
4.05985e-09
1.13578e-06
3.41615e-09
1.13288e-06
2.89548e-09
1.13043e-06
2.45743e-09
1.12832e-06
2.10688e-09
1.12651e-06
1.80579e-09
1.12496e-06
1.5526e-09
1.12362e-06
1.34122e-09
1.12245e-06
1.16605e-09
1.12144e-06
1.01669e-09
1.12055e-06
8.8455e-10
1.11978e-06
7.73675e-10
1.1191e-06
6.75958e-10
1.11851e-06
5.97195e-10
1.11798e-06
5.25515e-10
1.11752e-06
4.62038e-10
1.11711e-06
4.09951e-10
1.11675e-06
3.59365e-10
1.11643e-06
3.1828e-10
1.11615e-06
2.84265e-10
1.1159e-06
2.52319e-10
1.11568e-06
2.21673e-10
1.11548e-06
1.93964e-10
1.11532e-06
1.6628e-10
1.11518e-06
1.3778e-10
1.11507e-06
1.10248e-10
1.11499e-06
8.0571e-11
1.11494e-06
5.00197e-11
1.11493e-06
1.70021e-11
1.11495e-06
-2.0397e-11
1.11502e-06
-6.37431e-11
1.11513e-06
-1.10874e-10
1.1153e-06
-1.64315e-10
1.11553e-06
-2.26503e-10
1.11584e-06
-3.00103e-10
1.11623e-06
-3.82053e-10
1.11671e-06
-4.76518e-10
1.11731e-06
-5.85813e-10
1.11802e-06
-7.05027e-10
1.11888e-06
-8.455e-10
1.1199e-06
-1.00075e-09
1.1211e-06
-1.18116e-09
1.12251e-06
-1.37881e-09
1.12414e-06
-1.60832e-09
1.12602e-06
-1.85861e-09
1.1282e-06
-2.15119e-09
1.13069e-06
-2.46905e-09
1.13356e-06
-2.85876e-09
1.13571e-06
-2.11897e-09
1.13797e-06
-2.25223e-09
1.14036e-06
-2.37811e-09
1.14289e-06
-2.55073e-09
1.14557e-06
-2.69522e-09
1.14839e-06
-2.87983e-09
1.15137e-06
-3.03372e-09
1.1545e-06
-3.2363e-09
1.15781e-06
-3.39593e-09
1.16129e-06
-3.63594e-09
1.16497e-06
-3.82466e-09
1.16887e-06
-4.11065e-09
1.17298e-06
-4.35101e-09
1.17736e-06
-4.71503e-09
1.18196e-06
-5.02634e-09
1.18695e-06
-5.56339e-09
1.19217e-06
-5.9682e-09
1.19804e-06
-6.81595e-09
1.20437e-06
-7.45053e-09
1.2116e-06
-8.53592e-09
1.21946e-06
-9.2521e-09
1.23256e-06
-1.46031e-08
1.24257e-06
-1.12353e-08
1.25552e-06
-1.40352e-08
-6.44826e-07
1.899e-06
5.50474e-06
4.56501e-06
4.2224e-06
2.07409e-06
3.85852e-06
5.42294e-07
3.64162e-06
3.17768e-07
3.50129e-06
2.03675e-07
3.40575e-06
1.37987e-07
3.33672e-06
9.93433e-08
3.28496e-06
7.43115e-08
3.24519e-06
5.70086e-08
3.21397e-06
4.46949e-08
3.18903e-06
3.56663e-08
3.16886e-06
2.88357e-08
3.15234e-06
2.35925e-08
3.1387e-06
1.94723e-08
3.12734e-06
1.62146e-08
3.11782e-06
1.3579e-08
3.1098e-06
1.14342e-08
3.103e-06
9.69758e-09
3.09722e-06
8.23555e-09
3.09226e-06
7.06337e-09
3.08801e-06
6.05731e-09
3.08436e-06
5.21048e-09
3.08119e-06
4.50253e-09
3.07845e-06
3.91524e-09
3.07605e-06
3.41503e-09
3.07396e-06
2.97214e-09
3.07213e-06
2.60029e-09
3.07054e-06
2.27263e-09
3.06913e-06
2.00775e-09
3.06788e-06
1.76751e-09
3.06679e-06
1.5544e-09
3.06582e-06
1.37908e-09
3.06497e-06
1.20936e-09
3.06422e-06
1.07071e-09
3.06355e-06
9.55668e-10
3.06296e-06
8.47862e-10
3.06244e-06
7.44435e-10
3.06198e-06
6.50515e-10
3.06159e-06
5.56672e-10
3.06128e-06
4.59789e-10
3.06102e-06
3.65711e-10
3.06084e-06
2.64268e-10
3.06074e-06
1.59024e-10
3.06072e-06
4.47608e-11
3.06079e-06
-8.49466e-11
3.06097e-06
-2.34204e-10
3.06126e-06
-3.98387e-10
3.06169e-06
-5.85859e-10
3.06228e-06
-8.02525e-10
3.06305e-06
-1.05855e-09
3.06403e-06
-1.34524e-09
3.06525e-06
-1.67498e-09
3.06674e-06
-2.05586e-09
3.06853e-06
-2.47313e-09
3.07068e-06
-2.96166e-09
3.07323e-06
-3.50541e-09
3.07623e-06
-4.13096e-09
3.07973e-06
-4.82353e-09
3.08379e-06
-5.61934e-09
3.08849e-06
-6.49913e-09
3.09391e-06
-7.51285e-09
3.10012e-06
-8.62961e-09
3.10726e-06
-9.96563e-09
3.11256e-06
-7.36749e-09
3.11815e-06
-7.83145e-09
3.12409e-06
-8.29218e-09
3.13036e-06
-8.87374e-09
3.13702e-06
-9.38916e-09
3.14401e-06
-1.00037e-08
3.15142e-06
-1.05603e-08
3.15919e-06
-1.12295e-08
3.16742e-06
-1.18233e-08
3.17606e-06
-1.25956e-08
3.18523e-06
-1.32944e-08
3.19485e-06
-1.4189e-08
3.20509e-06
-1.50922e-08
3.21585e-06
-1.61817e-08
3.22739e-06
-1.74531e-08
3.23958e-06
-1.89413e-08
3.25293e-06
-2.08306e-08
3.26718e-06
-2.29401e-08
3.28367e-06
-2.61474e-08
3.30107e-06
-2.84632e-08
3.32209e-06
-3.28908e-08
3.35233e-06
-4.76588e-08
3.37923e-06
-4.02928e-08
3.44651e-06
-8.3113e-08
-1.04866e-06
3.84775e-06
8.92592e-06
5.77293e-06
7.59596e-06
3.40406e-06
7.11164e-06
1.02661e-06
6.79777e-06
6.31639e-07
6.58593e-06
4.15512e-07
6.43853e-06
2.85391e-07
6.33033e-06
2.07533e-07
6.24837e-06
1.56279e-07
6.18497e-06
1.20405e-07
6.13496e-06
9.47052e-08
6.09486e-06
7.57677e-08
6.06232e-06
6.13787e-08
6.03561e-06
5.0297e-08
6.01352e-06
4.15694e-08
5.99508e-06
3.4653e-08
5.97961e-06
2.90517e-08
5.96656e-06
2.44844e-08
5.95547e-06
2.07816e-08
5.94605e-06
1.76632e-08
5.93795e-06
1.5155e-08
5.931e-06
1.30072e-08
5.92502e-06
1.11961e-08
5.91984e-06
9.67936e-09
5.91534e-06
8.41897e-09
5.91141e-06
7.34684e-09
5.90798e-06
6.39811e-09
5.90498e-06
5.6e-09
5.90236e-06
4.89758e-09
5.90004e-06
4.32599e-09
5.898e-06
3.81109e-09
5.8962e-06
3.35297e-09
5.8946e-06
2.97421e-09
5.8932e-06
2.61035e-09
5.89197e-06
2.30907e-09
5.89086e-06
2.0579e-09
5.88989e-06
1.8236e-09
5.88904e-06
1.59866e-09
5.8883e-06
1.39247e-09
5.88767e-06
1.18637e-09
5.88716e-06
9.72673e-10
5.88677e-06
7.62608e-10
5.8865e-06
5.35686e-10
5.88637e-06
2.96907e-10
5.88639e-06
3.55076e-11
5.88657e-06
-2.62744e-10
5.88695e-06
-6.02112e-10
5.88754e-06
-9.82331e-10
5.88839e-06
-1.42208e-09
5.88952e-06
-1.92491e-09
5.891e-06
-2.51835e-09
5.89286e-06
-3.18849e-09
5.89516e-06
-3.95754e-09
5.89798e-06
-4.84548e-09
5.90136e-06
-5.82623e-09
5.90541e-06
-6.96648e-09
5.91019e-06
-8.24258e-09
5.91582e-06
-9.70202e-09
5.92239e-06
-1.13291e-08
5.93001e-06
-1.31832e-08
5.93883e-06
-1.52495e-08
5.94898e-06
-1.76048e-08
5.96063e-06
-2.02253e-08
5.97402e-06
-2.33161e-08
5.98396e-06
-1.72553e-08
5.9945e-06
-1.83522e-08
6.00565e-06
-1.94294e-08
6.01747e-06
-2.07401e-08
6.02999e-06
-2.19607e-08
6.04318e-06
-2.33359e-08
6.05715e-06
-2.46537e-08
6.07181e-06
-2.61339e-08
6.08734e-06
-2.75693e-08
6.10364e-06
-2.92312e-08
6.12098e-06
-3.09527e-08
6.13913e-06
-3.28107e-08
6.15859e-06
-3.50805e-08
6.17885e-06
-3.71897e-08
6.20095e-06
-4.04871e-08
6.22379e-06
-4.30158e-08
6.24957e-06
-4.81663e-08
6.27589e-06
-5.11853e-08
6.30766e-06
-6.01468e-08
6.33964e-06
-6.29744e-08
6.38082e-06
-7.66674e-08
6.43134e-06
-1.00944e-07
6.48666e-06
-9.7686e-08
6.62166e-06
-2.19761e-07
-1.20004e-06
6.77035e-06
1.24942e-05
6.24144e-06
1.12667e-05
4.63161e-06
1.0708e-05
1.58531e-06
1.03094e-05
1.03018e-06
1.0029e-05
6.95949e-07
9.82997e-06
4.844e-07
9.68202e-06
3.55482e-07
9.56902e-06
2.69287e-07
9.48117e-06
2.08247e-07
9.41163e-06
1.64246e-07
9.35572e-06
1.31682e-07
9.31025e-06
1.06848e-07
9.27288e-06
8.76684e-08
9.24191e-06
7.25355e-08
9.21605e-06
6.05205e-08
9.19431e-06
5.07835e-08
9.17597e-06
4.28306e-08
9.16037e-06
3.63761e-08
9.1471e-06
3.09397e-08
9.1357e-06
2.65541e-08
9.1259e-06
2.28074e-08
9.11745e-06
1.96431e-08
9.11014e-06
1.69893e-08
9.10378e-06
1.47804e-08
9.09823e-06
1.29026e-08
9.09338e-06
1.12437e-08
9.08914e-06
9.84506e-09
9.08542e-06
8.61587e-09
9.08213e-06
7.60895e-09
9.07924e-06
6.70745e-09
9.07669e-06
5.904e-09
9.07443e-06
5.23617e-09
9.07244e-06
4.59998e-09
9.07068e-06
4.06653e-09
9.06912e-06
3.61941e-09
9.06774e-06
3.20446e-09
9.06654e-06
2.80632e-09
9.06549e-06
2.43839e-09
9.06461e-06
2.07094e-09
9.0639e-06
1.68908e-09
9.06336e-06
1.31003e-09
9.063e-06
9.00259e-10
9.06284e-06
4.64505e-10
9.06289e-06
-1.52066e-11
9.0632e-06
-5.64781e-10
9.0638e-06
-1.18437e-09
9.06471e-06
-1.88672e-09
9.06601e-06
-2.70761e-09
9.06774e-06
-3.63932e-09
9.06997e-06
-4.73697e-09
9.07279e-06
-5.9839e-09
9.07626e-06
-7.41242e-09
9.08051e-06
-9.06104e-09
9.08561e-06
-1.08926e-08
9.0917e-06
-1.30112e-08
9.0989e-06
-1.53903e-08
9.10736e-06
-1.81011e-08
9.11724e-06
-2.11357e-08
9.12869e-06
-2.4575e-08
9.14194e-06
-2.84261e-08
9.15719e-06
-3.27849e-08
9.17469e-06
-3.76632e-08
9.19477e-06
-4.33561e-08
9.20968e-06
-3.21077e-08
9.22551e-06
-3.4171e-08
9.24226e-06
-3.61594e-08
9.25999e-06
-3.85279e-08
9.27878e-06
-4.08022e-08
9.29857e-06
-4.32807e-08
9.31951e-06
-4.57298e-08
9.34149e-06
-4.83704e-08
9.36476e-06
-5.1067e-08
9.38913e-06
-5.39654e-08
9.41507e-06
-5.72356e-08
9.44214e-06
-6.03805e-08
9.47124e-06
-6.47458e-08
9.50136e-06
-6.80962e-08
9.53442e-06
-7.4545e-08
9.56815e-06
-7.80466e-08
9.60668e-06
-8.835e-08
9.64513e-06
-9.16458e-08
9.69221e-06
-1.09566e-07
9.73831e-06
-1.1173e-07
9.79944e-06
-1.40487e-07
9.86716e-06
-1.71533e-07
9.95076e-06
-1.83413e-07
1.01171e-05
-3.87769e-07
-1.33434e-06
1.02485e-05
1.64727e-05
5.97823e-06
1.54235e-05
5.68074e-06
1.48305e-05
2.17835e-06
1.43509e-05
1.50972e-06
1.39961e-05
1.05079e-06
1.37384e-05
7.4206e-07
1.35443e-05
5.49651e-07
1.33947e-05
4.18861e-07
1.32778e-05
3.25124e-07
1.3185e-05
2.57105e-07
1.31101e-05
2.06542e-07
1.30491e-05
1.67846e-07
1.29989e-05
1.3788e-07
1.29572e-05
1.14194e-07
1.29224e-05
9.53561e-08
1.28931e-05
8.00794e-08
1.28684e-05
6.7583e-08
1.28473e-05
5.74312e-08
1.28294e-05
4.88801e-08
1.2814e-05
4.19628e-08
1.28007e-05
3.60657e-08
1.27893e-05
3.10784e-08
1.27794e-05
2.68903e-08
1.27707e-05
2.33993e-08
1.27632e-05
2.04325e-08
1.27566e-05
1.78163e-08
1.27509e-05
1.56059e-08
1.27458e-05
1.36659e-08
1.27414e-05
1.20674e-08
1.27374e-05
1.06434e-08
1.2734e-05
9.37319e-09
1.27309e-05
8.31214e-09
1.27282e-05
7.30916e-09
1.27258e-05
6.45941e-09
1.27237e-05
5.7435e-09
1.27218e-05
5.08234e-09
1.27202e-05
4.44886e-09
1.27187e-05
3.85982e-09
1.27175e-05
3.27261e-09
1.27166e-05
2.66204e-09
1.27158e-05
2.0518e-09
1.27153e-05
1.39241e-09
1.27151e-05
6.86106e-10
1.27152e-05
-9.37344e-11
1.27157e-05
-9.90058e-10
1.27165e-05
-1.99374e-09
1.27177e-05
-3.13742e-09
1.27195e-05
-4.48551e-09
1.27219e-05
-6.00923e-09
1.2725e-05
-7.79995e-09
1.27289e-05
-9.84222e-09
1.27337e-05
-1.21788e-08
1.27395e-05
-1.4874e-08
1.27465e-05
-1.78798e-08
1.27549e-05
-2.1344e-08
1.27648e-05
-2.52422e-08
1.27765e-05
-2.96722e-08
1.27901e-05
-3.46439e-08
1.28058e-05
-4.02579e-08
1.2824e-05
-4.65613e-08
1.2845e-05
-5.3662e-08
1.2869e-05
-6.16369e-08
1.28966e-05
-7.08618e-08
1.2917e-05
-5.24871e-08
1.29388e-05
-5.58893e-08
1.29618e-05
-5.91168e-08
1.29861e-05
-6.28955e-08
1.30118e-05
-6.65963e-08
1.30389e-05
-7.0547e-08
1.30675e-05
-7.45209e-08
1.30975e-05
-7.86908e-08
1.31293e-05
-8.30878e-08
1.31625e-05
-8.75814e-08
1.31978e-05
-9.29365e-08
1.32346e-05
-9.76953e-08
1.32741e-05
-1.04882e-07
1.33148e-05
-1.09694e-07
1.33596e-05
-1.20389e-07
1.34049e-05
-1.24818e-07
1.34567e-05
-1.42048e-07
1.35079e-05
-1.45078e-07
1.35707e-05
-1.74875e-07
1.36312e-05
-1.75178e-07
1.37122e-05
-2.24408e-07
1.37956e-05
-2.58091e-07
1.39097e-05
-2.99909e-07
1.40771e-05
-5.56963e-07
-1.53727e-06
1.42769e-05
2.11126e-05
4.93008e-06
2.03116e-05
6.48178e-06
1.97411e-05
2.74885e-06
1.91929e-05
2.0579e-06
1.87596e-05
1.48406e-06
1.84355e-05
1.06618e-06
1.81871e-05
7.9805e-07
1.79938e-05
6.12206e-07
1.78417e-05
4.77184e-07
1.77204e-05
3.78441e-07
1.76223e-05
3.04668e-07
1.75421e-05
2.4799e-07
1.7476e-05
2.0397e-07
1.74211e-05
1.69108e-07
1.73751e-05
1.41329e-07
1.73364e-05
1.18785e-07
1.73037e-05
1.00317e-07
1.72758e-05
8.52974e-08
1.72521e-05
7.26451e-08
1.72317e-05
6.23835e-08
1.72141e-05
5.36503e-08
1.71989e-05
4.62561e-08
1.71857e-05
4.00394e-08
1.71743e-05
3.48497e-08
1.71643e-05
3.04401e-08
1.71555e-05
2.65584e-08
1.71479e-05
2.32722e-08
1.71412e-05
2.03912e-08
1.71352e-05
1.80051e-08
1.713e-05
1.58888e-08
1.71253e-05
1.4e-08
1.71212e-05
1.24149e-08
1.71176e-05
1.09272e-08
1.71144e-05
9.6559e-09
1.71116e-05
8.57966e-09
1.71091e-05
7.59015e-09
1.71069e-05
6.64392e-09
1.7105e-05
5.75993e-09
1.71034e-05
4.88085e-09
1.71021e-05
3.96732e-09
1.71011e-05
3.05003e-09
1.71005e-05
2.06022e-09
1.71002e-05
9.94523e-10
1.71003e-05
-1.83408e-10
1.71008e-05
-1.5405e-09
1.71019e-05
-3.05421e-09
1.71035e-05
-4.77941e-09
1.71059e-05
-6.82587e-09
1.71091e-05
-9.13631e-09
1.71131e-05
-1.1844e-08
1.71182e-05
-1.49392e-08
1.71246e-05
-1.8477e-08
1.71323e-05
-2.2555e-08
1.71416e-05
-2.71156e-08
1.71527e-05
-3.23568e-08
1.71657e-05
-3.82622e-08
1.71811e-05
-4.49589e-08
1.71991e-05
-5.24869e-08
1.72199e-05
-6.09644e-08
1.72439e-05
-7.04988e-08
1.72715e-05
-8.12022e-08
1.73032e-05
-9.32491e-08
1.73395e-05
-1.0708e-07
1.73664e-05
-7.93009e-08
1.7395e-05
-8.44716e-08
1.74252e-05
-8.93211e-08
1.74572e-05
-9.49087e-08
1.74909e-05
-1.00454e-07
1.75265e-05
-1.06292e-07
1.7564e-05
-1.1223e-07
1.76033e-05
-1.18339e-07
1.76449e-05
-1.2492e-07
1.76882e-05
-1.31405e-07
1.77342e-05
-1.39417e-07
1.7782e-05
-1.46152e-07
1.78333e-05
-1.56905e-07
1.78861e-05
-1.63446e-07
1.79439e-05
-1.79459e-07
1.80023e-05
-1.84876e-07
1.80688e-05
-2.10688e-07
1.81343e-05
-2.13103e-07
1.8214e-05
-2.57492e-07
1.82904e-05
-2.54918e-07
1.83922e-05
-3.29586e-07
1.8492e-05
-3.61413e-07
1.86396e-05
-4.50128e-07
1.88029e-05
-7.2234e-07
-1.78849e-06
1.90506e-05
2.66425e-05
2.99984e-06
2.61627e-05
6.9616e-06
2.56898e-05
3.22175e-06
2.51009e-05
2.64676e-06
2.4592e-05
1.993e-06
2.41956e-05
1.46252e-06
2.3885e-05
1.10868e-06
2.36399e-05
8.57313e-07
2.34454e-05
6.71611e-07
2.32894e-05
5.3447e-07
2.31627e-05
4.31363e-07
2.30589e-05
3.51784e-07
2.29731e-05
2.8976e-07
2.29017e-05
2.40525e-07
2.28419e-05
2.01208e-07
2.27914e-05
1.69268e-07
2.27486e-05
1.43061e-07
2.27122e-05
1.2172e-07
2.26811e-05
1.0374e-07
2.26544e-05
8.91184e-08
2.26313e-05
7.66925e-08
2.26114e-05
6.61614e-08
2.25942e-05
5.72963e-08
2.25791e-05
4.98838e-08
2.2566e-05
4.35868e-08
2.25545e-05
3.80523e-08
2.25444e-05
3.33572e-08
2.25356e-05
2.92448e-08
2.25277e-05
2.58234e-08
2.25208e-05
2.28006e-08
2.25147e-05
2.01019e-08
2.25093e-05
1.78271e-08
2.25045e-05
1.57058e-08
2.25003e-05
1.38799e-08
2.24966e-05
1.23271e-08
2.24933e-05
1.09053e-08
2.24904e-05
9.54877e-09
2.24879e-05
8.27685e-09
2.24857e-05
7.01571e-09
2.2484e-05
5.70711e-09
2.24827e-05
4.38904e-09
2.24818e-05
2.96987e-09
2.24813e-05
1.43612e-09
2.24814e-05
-2.58895e-10
2.24821e-05
-2.21383e-09
2.24835e-05
-4.39234e-09
2.24856e-05
-6.86846e-09
2.24886e-05
-9.8147e-09
2.24926e-05
-1.31459e-08
2.24978e-05
-1.70405e-08
2.25044e-05
-2.14961e-08
2.25126e-05
-2.65849e-08
2.25225e-05
-3.24468e-08
2.25345e-05
-3.90153e-08
2.25487e-05
-4.65468e-08
2.25656e-05
-5.50396e-08
2.25854e-05
-6.46525e-08
2.26085e-05
-7.54699e-08
2.26353e-05
-8.76266e-08
2.26662e-05
-1.01312e-07
2.27018e-05
-1.16634e-07
2.27425e-05
-1.33903e-07
2.27891e-05
-1.53599e-07
2.28236e-05
-1.13707e-07
2.28603e-05
-1.21145e-07
2.28991e-05
-1.28069e-07
2.294e-05
-1.35926e-07
2.29833e-05
-1.43791e-07
2.30287e-05
-1.51993e-07
2.30767e-05
-1.60389e-07
2.31268e-05
-1.68906e-07
2.31798e-05
-1.78208e-07
2.32349e-05
-1.87137e-07
2.32934e-05
-1.98417e-07
2.3354e-05
-2.07555e-07
2.34189e-05
-2.22634e-07
2.34855e-05
-2.31269e-07
2.35582e-05
-2.53625e-07
2.36317e-05
-2.6027e-07
2.37147e-05
-2.96178e-07
2.37966e-05
-2.97917e-07
2.3895e-05
-3.59311e-07
2.39896e-05
-3.53286e-07
2.41138e-05
-4.57654e-07
2.42322e-05
-4.83873e-07
2.4414e-05
-6.34981e-07
2.45842e-05
-8.94807e-07
-2.05661e-06
2.48482e-05
3.33042e-05
5.24647e-08
3.32233e-05
7.04251e-06
3.29375e-05
3.5076e-06
3.23557e-05
3.22857e-06
3.17856e-05
2.5631e-06
3.13164e-05
1.93163e-06
3.09373e-05
1.48778e-06
3.06326e-05
1.16204e-06
3.03881e-05
9.16164e-07
3.01903e-05
7.32252e-07
3.00288e-05
5.92847e-07
2.9896e-05
4.84622e-07
2.97858e-05
3.99897e-07
2.96939e-05
3.32439e-07
2.96167e-05
2.78425e-07
2.95515e-05
2.34482e-07
2.94962e-05
1.98362e-07
2.9449e-05
1.68901e-07
2.94087e-05
1.44073e-07
2.9374e-05
1.23825e-07
2.9344e-05
1.06637e-07
2.93181e-05
9.20559e-08
2.92957e-05
7.97652e-08
2.92761e-05
6.94703e-08
2.92589e-05
6.0726e-08
2.92439e-05
5.30513e-08
2.92308e-05
4.65264e-08
2.92192e-05
4.08156e-08
2.9209e-05
3.60445e-08
2.91999e-05
3.18443e-08
2.9192e-05
2.80934e-08
2.91849e-05
2.49181e-08
2.91786e-05
2.1975e-08
2.91731e-05
1.94258e-08
2.91681e-05
1.72482e-08
2.91638e-05
1.52618e-08
2.916e-05
1.33715e-08
2.91567e-05
1.15939e-08
2.91538e-05
9.83736e-09
2.91515e-05
8.01891e-09
2.91498e-05
6.1838e-09
2.91485e-05
4.21362e-09
2.91479e-05
2.07859e-09
2.91479e-05
-2.78683e-10
2.91487e-05
-2.99625e-09
2.91504e-05
-6.02831e-09
2.9153e-05
-9.46291e-09
2.91568e-05
-1.35476e-08
2.91618e-05
-1.81783e-08
2.91684e-05
-2.35849e-08
2.91767e-05
-2.97677e-08
2.9187e-05
-3.68261e-08
2.91996e-05
-4.49496e-08
2.92147e-05
-5.4066e-08
2.92328e-05
-6.44995e-08
2.92541e-05
-7.62688e-08
2.92792e-05
-8.95686e-08
2.93084e-05
-1.04544e-07
2.93423e-05
-1.21346e-07
2.93814e-05
-1.40268e-07
2.94263e-05
-1.6141e-07
2.94778e-05
-1.85252e-07
2.95366e-05
-2.123e-07
2.958e-05
-1.57072e-07
2.96263e-05
-1.67356e-07
2.96751e-05
-1.76888e-07
2.97267e-05
-1.87551e-07
2.9781e-05
-1.98278e-07
2.98381e-05
-2.09391e-07
2.98983e-05
-2.20801e-07
2.99612e-05
-2.32268e-07
3.00274e-05
-2.44882e-07
3.00964e-05
-2.56784e-07
3.01693e-05
-2.71977e-07
3.02449e-05
-2.8404e-07
3.03254e-05
-3.04203e-07
3.04082e-05
-3.15445e-07
3.04979e-05
-3.45114e-07
3.05888e-05
-3.53428e-07
3.06905e-05
-4.00796e-07
3.07914e-05
-4.02176e-07
3.09106e-05
-4.82525e-07
3.10261e-05
-4.73195e-07
3.11747e-05
-6.10597e-07
3.13153e-05
-6.29053e-07
3.15306e-05
-8.53836e-07
3.17212e-05
-1.088e-06
-2.32771e-06
3.19877e-05
4.13782e-05
-4.0853e-06
4.17795e-05
6.64126e-06
4.17796e-05
3.50749e-06
4.12737e-05
3.73453e-06
4.0674e-05
3.16276e-06
4.01412e-05
2.46438e-06
3.96921e-05
1.93696e-06
3.93216e-05
1.53246e-06
3.90195e-05
1.21828e-06
3.87726e-05
9.79221e-07
3.85694e-05
7.96026e-07
3.84013e-05
6.527e-07
3.82614e-05
5.39845e-07
3.81442e-05
4.49628e-07
3.80455e-05
3.77139e-07
3.79619e-05
3.18048e-07
3.78909e-05
2.69367e-07
3.78302e-05
2.2958e-07
3.77783e-05
1.96032e-07
3.77335e-05
1.68589e-07
3.76948e-05
1.45308e-07
3.76613e-05
1.2554e-07
3.76322e-05
1.08852e-07
3.76069e-05
9.48464e-08
3.75846e-05
8.29505e-08
3.75652e-05
7.2523e-08
3.75481e-05
6.36372e-08
3.7533e-05
5.58636e-08
3.75197e-05
4.93436e-08
3.75079e-05
4.36229e-08
3.74975e-05
3.85138e-08
3.74883e-05
3.41696e-08
3.74801e-05
3.01658e-08
3.74728e-05
2.66791e-08
3.74664e-05
2.36873e-08
3.74607e-05
2.09678e-08
3.74557e-05
1.83872e-08
3.74513e-05
1.59542e-08
3.74476e-05
1.35594e-08
3.74446e-05
1.10879e-08
3.74422e-05
8.59138e-09
3.74405e-05
5.92044e-09
3.74396e-05
3.02075e-09
3.74395e-05
-1.75946e-10
3.74404e-05
-3.85418e-09
3.74423e-05
-7.96727e-09
3.74455e-05
-1.26139e-08
3.74501e-05
-1.81232e-08
3.74564e-05
-2.43841e-08
3.74645e-05
-3.16883e-08
3.74749e-05
-4.00355e-08
3.74877e-05
-4.95626e-08
3.75033e-05
-6.05142e-08
3.75222e-05
-7.282e-08
3.75447e-05
-8.68806e-08
3.75713e-05
-1.02742e-07
3.76025e-05
-1.20639e-07
3.7639e-05
-1.40794e-07
3.76812e-05
-1.63384e-07
3.773e-05
-1.88818e-07
3.77859e-05
-2.17193e-07
3.785e-05
-2.49192e-07
3.79232e-05
-2.8534e-07
3.79772e-05
-2.10968e-07
3.80347e-05
-2.24764e-07
3.80953e-05
-2.37528e-07
3.81593e-05
-2.51621e-07
3.82267e-05
-2.65826e-07
3.82974e-05
-2.80484e-07
3.83718e-05
-2.95532e-07
3.84496e-05
-3.1058e-07
3.85313e-05
-3.27151e-07
3.86164e-05
-3.42649e-07
3.87061e-05
-3.62431e-07
3.8799e-05
-3.78053e-07
3.88976e-05
-4.04065e-07
3.89991e-05
-4.18568e-07
3.91084e-05
-4.56495e-07
3.92194e-05
-4.67128e-07
3.93424e-05
-5.27146e-07
3.94652e-05
-5.28947e-07
3.96078e-05
-6.29668e-07
3.97476e-05
-6.18087e-07
3.99228e-05
-7.90849e-07
4.00899e-05
-8.01347e-07
4.03379e-05
-1.10588e-06
4.0559e-05
-1.31204e-06
-2.60051e-06
4.08268e-05
5.12012e-05
-9.62709e-06
5.21764e-05
5.66611e-06
5.25667e-05
3.1171e-06
5.22244e-05
4.07688e-06
5.16479e-05
3.7392e-06
5.10757e-05
3.03658e-06
5.05636e-05
2.44909e-06
5.01259e-05
1.97012e-06
4.97609e-05
1.58335e-06
4.94579e-05
1.28216e-06
4.92061e-05
1.04789e-06
4.89961e-05
8.62684e-07
4.88202e-05
7.15715e-07
4.86722e-05
5.97586e-07
4.85472e-05
5.02231e-07
4.84409e-05
4.24276e-07
4.83504e-05
3.59875e-07
4.82729e-05
3.07096e-07
4.82064e-05
2.62552e-07
4.8149e-05
2.25992e-07
4.80993e-05
1.94977e-07
4.80562e-05
1.68617e-07
4.80188e-05
1.46328e-07
4.7986e-05
1.27577e-07
4.79573e-05
1.11647e-07
4.79322e-05
9.77007e-08
4.791e-05
8.57859e-08
4.78905e-05
7.53638e-08
4.78733e-05
6.65897e-08
4.7858e-05
5.89147e-08
4.78444e-05
5.20602e-08
4.78324e-05
4.6206e-08
4.78217e-05
4.08392e-08
4.78123e-05
3.61433e-08
4.78039e-05
3.20958e-08
4.77964e-05
2.84281e-08
4.77899e-05
2.49581e-08
4.77841e-05
2.16798e-08
4.77793e-05
1.84665e-08
4.77752e-05
1.5163e-08
4.7772e-05
1.18259e-08
4.77697e-05
8.26957e-09
4.77683e-05
4.4052e-09
4.7768e-05
1.53097e-10
4.77689e-05
-4.72374e-09
4.77712e-05
-1.01895e-08
4.77749e-05
-1.63547e-08
4.77805e-05
-2.36323e-08
4.77881e-05
-3.19174e-08
4.7798e-05
-4.15738e-08
4.78107e-05
-5.26015e-08
4.78264e-05
-6.51885e-08
4.78456e-05
-7.96354e-08
4.78688e-05
-9.58903e-08
4.78965e-05
-1.14432e-07
4.79293e-05
-1.35343e-07
4.79678e-05
-1.58911e-07
4.80127e-05
-1.85445e-07
4.80647e-05
-2.15163e-07
4.81248e-05
-2.48599e-07
4.81936e-05
-2.85861e-07
4.82725e-05
-3.27857e-07
4.83625e-05
-3.75161e-07
4.84289e-05
-2.77169e-07
4.84994e-05
-2.95245e-07
4.85739e-05
-3.11962e-07
4.86523e-05
-3.30209e-07
4.87349e-05
-3.486e-07
4.88215e-05
-3.67525e-07
4.89125e-05
-3.86919e-07
4.90075e-05
-4.06269e-07
4.91073e-05
-4.27512e-07
4.9211e-05
-4.47325e-07
4.93201e-05
-4.72438e-07
4.94331e-05
-4.92343e-07
4.95526e-05
-5.25025e-07
4.96756e-05
-5.43558e-07
4.98073e-05
-5.9067e-07
4.99416e-05
-6.04548e-07
5.00888e-05
-6.7817e-07
5.0237e-05
-6.81731e-07
5.04058e-05
-8.03689e-07
5.05738e-05
-7.91864e-07
5.07785e-05
-1.00124e-06
5.0977e-05
-1.00569e-06
5.1257e-05
-1.3905e-06
5.15151e-05
-1.57337e-06
-2.87797e-06
5.17873e-05
6.31832e-05
-1.68286e-05
6.48371e-05
4.01225e-06
6.57254e-05
2.22872e-06
6.56485e-05
4.15384e-06
6.51705e-05
4.21719e-06
6.46032e-05
3.60384e-06
6.40494e-05
3.00289e-06
6.35516e-05
2.46788e-06
6.31232e-05
2.01183e-06
6.27601e-05
1.64526e-06
6.24537e-05
1.35428e-06
6.21954e-05
1.12091e-06
6.19774e-05
9.33771e-07
6.17928e-05
7.82219e-07
6.16359e-05
6.5913e-07
6.15021e-05
5.58084e-07
6.13876e-05
4.74299e-07
6.12893e-05
4.05391e-07
6.12048e-05
3.47145e-07
6.11316e-05
2.99153e-07
6.10682e-05
2.58417e-07
6.1013e-05
2.23749e-07
6.0965e-05
1.94384e-07
6.09229e-05
1.6961e-07
6.0886e-05
1.48552e-07
6.08536e-05
1.30136e-07
6.0825e-05
1.14358e-07
6.07998e-05
1.00554e-07
6.07775e-05
8.88898e-08
6.07577e-05
7.87136e-08
6.07402e-05
6.96271e-08
6.07246e-05
6.18314e-08
6.07107e-05
5.472e-08
6.06984e-05
4.84715e-08
6.06874e-05
4.30611e-08
6.06777e-05
3.81712e-08
6.06691e-05
3.35595e-08
6.06616e-05
2.91944e-08
6.06551e-05
2.49352e-08
6.06497e-05
2.05769e-08
6.06454e-05
1.61768e-08
6.06422e-05
1.15075e-08
6.06402e-05
6.43384e-09
6.06395e-05
8.63741e-10
6.06403e-05
-5.49736e-09
6.06428e-05
-1.26385e-08
6.06472e-05
-2.069e-08
6.06538e-05
-3.01469e-08
6.06629e-05
-4.09244e-08
6.06749e-05
-5.34682e-08
6.06901e-05
-6.7783e-08
6.07092e-05
-8.41256e-08
6.07325e-05
-1.02849e-07
6.07608e-05
-1.23946e-07
6.07945e-05
-1.47966e-07
6.08345e-05
-1.7505e-07
6.08814e-05
-2.05543e-07
6.09361e-05
-2.39854e-07
6.09995e-05
-2.78263e-07
6.10727e-05
-3.21438e-07
6.11566e-05
-3.69508e-07
6.12527e-05
-4.23642e-07
6.13622e-05
-4.84488e-07
6.14429e-05
-3.57673e-07
6.15286e-05
-3.80899e-07
6.16191e-05
-4.02408e-07
6.17143e-05
-4.25632e-07
6.18146e-05
-4.49029e-07
6.19196e-05
-4.73038e-07
6.20298e-05
-4.97591e-07
6.21447e-05
-5.22049e-07
6.22652e-05
-5.48781e-07
6.23905e-05
-5.73719e-07
6.2522e-05
-6.04999e-07
6.26581e-05
-6.30018e-07
6.28016e-05
-6.70241e-07
6.29495e-05
-6.93748e-07
6.31069e-05
-7.50898e-07
6.32681e-05
-7.693e-07
6.34427e-05
-8.57196e-07
6.36202e-05
-8.64465e-07
6.38186e-05
-1.00797e-06
6.40192e-05
-9.98863e-07
6.42563e-05
-1.2448e-06
6.44919e-05
-1.24764e-06
6.48031e-05
-1.70688e-06
6.51026e-05
-1.87642e-06
-3.16279e-06
6.5382e-05
7.78275e-05
-2.59868e-05
8.02834e-05
1.55641e-06
8.17816e-05
7.30517e-07
8.20802e-05
3.85519e-06
8.17957e-05
4.50164e-06
8.13012e-05
4.09839e-06
8.07467e-05
3.55736e-06
8.02102e-05
3.00443e-06
7.97271e-05
2.4949e-06
7.93054e-05
2.06698e-06
7.89421e-05
1.7176e-06
7.86312e-05
1.43183e-06
7.83656e-05
1.19935e-06
7.81387e-05
1.00911e-06
7.79445e-05
8.53316e-07
7.77779e-05
7.24664e-07
7.76348e-05
6.1746e-07
7.75113e-05
5.28878e-07
7.74046e-05
4.53821e-07
7.73121e-05
3.91696e-07
7.72316e-05
3.38889e-07
7.71615e-05
2.93869e-07
7.71002e-05
2.55656e-07
7.70465e-05
2.2331e-07
7.69993e-05
1.95786e-07
7.69577e-05
1.71736e-07
7.6921e-05
1.51069e-07
7.68886e-05
1.32974e-07
7.68598e-05
1.1763e-07
7.68343e-05
1.0427e-07
7.68116e-05
9.2344e-08
7.67913e-05
8.20659e-08
7.67733e-05
7.27317e-08
7.67573e-05
6.45e-08
7.6743e-05
5.73389e-08
7.67303e-05
5.08794e-08
7.67191e-05
4.48066e-08
7.67093e-05
3.90498e-08
7.67008e-05
3.3459e-08
7.66936e-05
2.77688e-08
7.66878e-05
2.20305e-08
7.66834e-05
1.59669e-08
7.66805e-05
9.38564e-09
7.66792e-05
2.17945e-09
7.66798e-05
-6.00852e-09
7.66824e-05
-1.52065e-08
7.66874e-05
-2.5583e-08
7.6695e-05
-3.77086e-08
7.67057e-05
-5.1533e-08
7.67199e-05
-6.75926e-08
7.67382e-05
-8.59036e-08
7.6761e-05
-1.06818e-07
7.67891e-05
-1.30729e-07
7.6823e-05
-1.5771e-07
7.68637e-05
-1.88371e-07
7.69119e-05
-2.22936e-07
7.69685e-05
-2.61807e-07
7.70346e-05
-3.05527e-07
7.71112e-05
-3.54432e-07
7.71995e-05
-4.09365e-07
7.73008e-05
-4.7046e-07
7.74168e-05
-5.39214e-07
7.75488e-05
-6.16351e-07
7.76461e-05
-4.54717e-07
7.77494e-05
-4.84068e-07
7.78584e-05
-5.11346e-07
7.7973e-05
-5.40483e-07
7.80936e-05
-5.69837e-07
7.82198e-05
-5.99853e-07
7.83521e-05
-6.30501e-07
7.84901e-05
-6.60978e-07
7.86345e-05
-6.94121e-07
7.87846e-05
-7.25106e-07
7.89418e-05
-7.63477e-07
7.91046e-05
-7.946e-07
7.92756e-05
-8.43255e-07
7.94522e-05
-8.72926e-07
7.96389e-05
-9.40863e-07
7.9831e-05
-9.65448e-07
8.00368e-05
-1.06801e-06
8.0248e-05
-1.08154e-06
8.04798e-05
-1.24629e-06
8.07179e-05
-1.24398e-06
8.09905e-05
-1.52444e-06
8.12694e-05
-1.53336e-06
8.16107e-05
-2.0539e-06
8.19548e-05
-2.22439e-06
-3.45646e-06
8.22433e-05
9.57556e-05
-3.74356e-05
9.91602e-05
-1.84825e-06
0.000101387
-1.49645e-06
0.000102176
3.0665e-06
0.000102194
4.48326e-06
0.000101863
4.42975e-06
0.000101372
4.04782e-06
0.000100838
3.53861e-06
0.000100324
3.00889e-06
9.98559e-05
2.53532e-06
9.94403e-05
2.13324e-06
9.90768e-05
1.79528e-06
9.87613e-05
1.51485e-06
9.84884e-05
1.28208e-06
9.82524e-05
1.08926e-06