/*--------------------------------*- C++ -*----------------------------------*\
| =========                 |                                                 |
| \\      /  F ield         | OpenFOAM: The Open Source CFD Toolbox           |
|  \\    /   O peration     | Version:  2306                                  |
|   \\  /    A nd           | Website:  www.openfoam.com                      |
|    \\/     M anipulation  |                                                 |
\*---------------------------------------------------------------------------*/
FoamFile
{
    version     2.0;
    format      ascii;
    arch        "LSB;label=32;scalar=64";
    class       volSymmTensorField;
    location    "2000";
    object      turbulenceProperties:devReff;
}
// * * * * * * * * * * * * * * * * * * * * * * * * * * * * * * * * * * * * * //

dimensions      [0 2 -2 0 0 0 0];

internalField   nonuniform List<symmTensor> 
20540
(
(5.86101 -13.8576 -0 -5.73794 -0 -0.123072)
(27.1835 -28.656 -0 -25.9645 -0 -1.21899)
(3.98733 -22.3748 -0 -4.03577 -0 0.0484356)
(13.1016 -49.1404 -0 -13.8116 -0 0.710018)
(3.41811 -24.6583 -0 -3.46518 -0 0.0470692)
(6.97177 -54.3527 -0 -7.27773 -0 0.305962)
(3.08275 -25.7288 -0 -3.06982 -0 -0.0129241)
(3.85944 -57.0998 -0 -3.74963 -0 -0.109805)
(2.90333 -26.3389 -0 -2.89475 -0 -0.00858007)
(2.40404 -58.9926 -0 -2.33414 -0 -0.0699046)
(2.77307 -26.7036 -0 -2.77197 -0 -0.00110194)
(1.53574 -60.4776 -0 -1.52265 -0 -0.013085)
(2.66712 -26.881 -0 -2.66763 -0 0.000503021)
(0.932123 -61.6427 -0 -0.932478 -0 0.000354402)
(2.58039 -26.8917 -0 -2.58059 -0 0.00020568)
(0.501532 -62.5314 -0 -0.501169 -0 -0.000362848)
(2.50819 -26.745 -0 -2.5082 -0 3.35769e-06)
(0.197796 -63.1842 -0 -0.196692 -0 -0.00110407)
(2.4451 -26.4438 -0 -2.4451 -0 -7.99314e-06)
(-0.0100172 -63.6336 -0 0.0109056 -0 -0.000888368)
(2.38596 -25.9857 -0 -2.38597 -0 8.42974e-06)
(-0.140159 -63.9017 -0 0.140764 -0 -0.000605089)
(2.32591 -25.3642 -0 -2.32591 -0 6.18424e-06)
(-0.202125 -63.9997 -0 0.202581 -0 -0.000456459)
(2.26005 -24.5695 -0 -2.26004 -0 -1.56155e-05)
(-0.200461 -63.9283 -0 0.200818 -0 -0.000357364)
(2.18337 -23.59 -0 -2.1833 -0 -6.31709e-05)
(-0.137124 -63.6771 -0 0.137362 -0 -0.000238058)
(2.09073 -22.4127 -0 -2.09059 -0 -0.000137437)
(-0.0130234 -63.223 -0 0.0130809 -0 -5.7515e-05)
(1.97732 -21.0258 -0 -1.97713 -0 -0.000193666)
(0.170587 -62.5279 -0 -0.170806 -0 0.00021862)
(1.83942 -19.4204 -0 -1.83924 -0 -0.000182971)
(0.410462 -61.5332 -0 -0.41106 -0 0.000597909)
(1.67536 -17.5986 -0 -1.67512 -0 -0.00023366)
(0.699164 -60.1511 -0 -0.700272 -0 0.00110716)
(1.48521 -15.5742 -0 -1.48461 -0 -0.000598112)
(1.0225 -58.2577 -0 -1.02441 -0 0.00191206)
(1.27017 -13.3632 -0 -1.26899 -0 -0.00117355)
(1.35726 -55.6968 -0 -1.36063 -0 0.00337093)
(1.03648 -10.9914 -0 -1.03549 -0 -0.000983297)
(1.6683 -52.2647 -0 -1.67402 -0 0.00571637)
(0.801323 -8.501 -0 -0.802794 -0 0.00147095)
(1.90347 -47.7058 -0 -1.91107 -0 0.0076011)
(0.591405 -5.97123 -0 -0.595277 -0 0.0038713)
(1.98946 -41.768 -0 -1.99494 -0 0.0054771)
(0.424455 -3.60619 -0 -0.419028 -0 -0.00542764)
(1.84301 -34.3457 -0 -1.84461 -0 0.00160363)
(0.263859 -1.48932 -0 -0.244751 -0 -0.0191077)
(1.43681 -25.7107 -0 -1.45223 -0 0.0154184)
(-0.123852 1.04403 -0 0.128113 -0 -0.00426129)
(0.869715 -16.3701 -0 -0.90682 -0 0.037105)
(-0.40135 2.03577 -0 0.401419 -0 -6.89389e-05)
(0.31012 -7.80542 -0 -0.322213 -0 0.0120924)
(-0.585288 2.20571 -0 0.596867 -0 -0.011579)
(-0.122952 -2.97294 -0 0.120675 -0 0.00227735)
(-0.778291 1.84014 -0 0.799194 -0 -0.0209023)
(-0.807432 -0.300834 -0 0.757343 -0 0.0500891)
(-1.0112 1.18195 -0 1.02701 -0 -0.0158061)
(-1.05586 0.736691 -0 1.00168 -0 0.0541868)
(-1.1839 0.559307 -0 1.20048 -0 -0.0165777)
(-1.18024 0.642786 -0 1.13983 -0 0.0404105)
(-1.23847 0.153645 -0 1.26393 -0 -0.025464)
(-1.27617 0.245398 -0 1.22332 -0 0.0528485)
(-1.23652 -0.168315 -0 1.26199 -0 -0.025471)
(-1.27567 -0.236017 -0 1.22278 -0 0.0528916)
(-1.17939 -0.565994 -0 1.19634 -0 -0.0169455)
(-1.18006 -0.621237 -0 1.13967 -0 0.0403866)
(-1.01472 -1.14963 -0 1.03046 -0 -0.0157339)
(-1.05802 -0.70094 -0 1.00505 -0 0.0529734)
(-0.795504 -1.7623 -0 0.815945 -0 -0.0204418)
(-0.823447 0.247585 -0 0.773671 -0 0.0497759)
(-0.608404 -2.11706 -0 0.620508 -0 -0.0121036)
(-0.163387 2.71665 -0 0.16077 -0 0.00261692)
(-0.428127 -1.96838 -0 0.428179 -0 -5.2372e-05)
(0.246894 7.04921 -0 -0.256178 -0 0.00928408)
(-0.164162 -1.05494 -0 0.167397 -0 -0.00323444)
(0.763336 14.9416 -0 -0.798462 -0 0.0351261)
(0.224061 1.3563 -0 -0.205141 -0 -0.0189193)
(1.31108 23.8834 -0 -1.32821 -0 0.0171298)
(0.395109 3.43187 -0 -0.388791 -0 -0.00631707)
(1.72557 32.2911 -0 -1.72807 -0 0.00249529)
(0.561044 5.73851 -0 -0.564491 -0 0.00344693)
(1.90067 39.6372 -0 -1.90615 -0 0.00547889)
(0.77003 8.23726 -0 -0.771667 -0 0.00163664)
(1.84809 45.5947 -0 -1.85571 -0 0.00762411)
(1.00814 10.7274 -0 -1.00726 -0 -0.000881225)
(1.64146 50.2197 -0 -1.64736 -0 0.00590621)
(1.24924 13.1234 -0 -1.24805 -0 -0.00118844)
(1.35013 53.7346 -0 -1.35373 -0 0.00359686)
(1.47539 15.3803 -0 -1.47477 -0 -0.000611896)
(1.02529 56.381 -0 -1.02741 -0 0.00211441)
(1.67923 17.471 -0 -1.67897 -0 -0.000261594)
(0.702542 58.3537 -0 -0.703826 -0 0.00128384)
(1.85803 19.3761 -0 -1.85777 -0 -0.00026235)
(0.406138 59.8052 -0 -0.406878 -0 0.000739591)
(2.00941 21.0707 -0 -2.00915 -0 -0.000264731)
(0.15132 60.8669 -0 -0.151648 -0 0.000328196)
(2.13432 22.5524 -0 -2.13415 -0 -0.000166579)
(-0.0537319 61.627 -0 0.0536954 -0 3.64869e-05)
(2.23617 23.8274 -0 -2.2361 -0 -7.36182e-05)
(-0.205214 62.146 -0 0.205365 -0 -0.000150849)
(2.31968 24.906 -0 -2.31965 -0 -2.22803e-05)
(-0.301667 62.4655 -0 0.301938 -0 -0.000271134)
(2.38987 25.7996 -0 -2.38987 -0 8.75292e-07)
(-0.342503 62.6122 -0 0.34286 -0 -0.000357662)
(2.45171 26.5198 -0 -2.45172 -0 1.02414e-05)
(-0.326868 62.601 -0 0.327308 -0 -0.000440035)
(2.50991 27.0767 -0 -2.50992 -0 7.21596e-06)
(-0.252551 62.4368 -0 0.25313 -0 -0.00057906)
(2.56904 27.4781 -0 -2.56902 -0 -1.24628e-05)
(-0.114628 62.1149 -0 0.115479 -0 -0.000850949)
(2.63371 27.7286 -0 -2.63371 -0 -4.77954e-06)
(0.0967639 61.6217 -0 -0.0957021 -0 -0.00106183)
(2.70895 27.8284 -0 -2.70914 -0 0.00019559)
(0.400101 60.9336 -0 -0.399702 -0 -0.000399001)
(2.80015 27.7725 -0 -2.80065 -0 0.000499796)
(0.826398 60.017 -0 -0.82648 -0 8.19154e-05)
(2.91216 27.5488 -0 -2.91105 -0 -0.00110724)
(1.42241 58.8294 -0 -1.4093 -0 -0.0131119)
(3.05041 27.133 -0 -3.0417 -0 -0.0087106)
(2.28177 57.3229 -0 -2.21482 -0 -0.0669475)
(3.24047 26.462 -0 -3.22719 -0 -0.0132746)
(3.72486 55.4028 -0 -3.62265 -0 -0.102209)
(3.59088 25.3158 -0 -3.6388 -0 0.0479255)
(6.78837 52.6399 -0 -7.08286 -0 0.294493)
(4.1786 22.9279 -0 -4.22836 -0 0.049762)
(12.7769 47.503 -0 -13.4484 -0 0.671533)
(6.09697 14.1127 -0 -5.97248 -0 -0.124497)
(26.2299 27.5322 -0 -25.0802 -0 -1.14971)
(0.0102264 -16.9749 -0 -0.0103268 -0 0.000100328)
(0.00286504 -9.3354 -0 -0.00287764 -0 1.26029e-05)
(0.000648624 -8.04648 -0 -0.000653192 -0 4.568e-06)
(0.000372071 -7.34994 -0 -0.000370668 -0 -1.4039e-06)
(0.00023883 -6.92115 -0 -0.000236492 -0 -2.33788e-06)
(0.000164337 -6.64282 -0 -0.000162247 -0 -2.08957e-06)
(0.000120935 -6.44841 -0 -0.000119107 -0 -1.82809e-06)
(9.28963e-05 -6.30558 -0 -9.13281e-05 -0 -1.56822e-06)
(7.3405e-05 -6.19768 -0 -7.20856e-05 -0 -1.31931e-06)
(5.93787e-05 -6.1141 -0 -5.82633e-05 -0 -1.11546e-06)
(4.89519e-05 -6.04809 -0 -4.79993e-05 -0 -9.52571e-07)
(4.09244e-05 -5.99505 -0 -4.01069e-05 -0 -8.17481e-07)
(3.46481e-05 -5.95206 -0 -3.39416e-05 -0 -7.06432e-07)
(2.96055e-05 -5.91663 -0 -2.89916e-05 -0 -6.13931e-07)
(2.55337e-05 -5.88742 -0 -2.49967e-05 -0 -5.37022e-07)
(2.21513e-05 -5.86287 -0 -2.1679e-05 -0 -4.72285e-07)
(1.93293e-05 -5.84245 -0 -1.89128e-05 -0 -4.16553e-07)
(1.69918e-05 -5.82505 -0 -1.66221e-05 -0 -3.69715e-07)
(1.49574e-05 -5.81038 -0 -1.46285e-05 -0 -3.28868e-07)
(1.33034e-05 -5.79784 -0 -1.30096e-05 -0 -2.93778e-07)
(1.18273e-05 -5.78706 -0 -1.15633e-05 -0 -2.64003e-07)
(1.05493e-05 -5.77785 -0 -1.03119e-05 -0 -2.37426e-07)
(9.45471e-06 -5.76988 -0 -9.24066e-06 -0 -2.14045e-07)
(8.52826e-06 -5.763 -0 -8.33422e-06 -0 -1.94042e-07)
(7.7158e-06 -5.75697 -0 -7.54004e-06 -0 -1.75764e-07)
(6.96442e-06 -5.75175 -0 -6.80426e-06 -0 -1.6016e-07)
(6.32022e-06 -5.74718 -0 -6.17402e-06 -0 -1.46206e-07)
(5.72864e-06 -5.74319 -0 -5.59473e-06 -0 -1.33913e-07)
(5.25213e-06 -5.7397 -0 -5.12944e-06 -0 -1.2269e-07)
(4.79552e-06 -5.73658 -0 -4.68327e-06 -0 -1.1225e-07)
(4.37454e-06 -5.73389 -0 -4.27175e-06 -0 -1.02787e-07)
(4.0279e-06 -5.73147 -0 -3.93376e-06 -0 -9.41391e-08)
(3.6625e-06 -5.72935 -0 -3.57605e-06 -0 -8.64489e-08)
(3.36606e-06 -5.7275 -0 -3.28761e-06 -0 -7.84415e-08)
(3.1206e-06 -5.72584 -0 -3.04995e-06 -0 -7.06517e-08)
(2.8745e-06 -5.72436 -0 -2.81137e-06 -0 -6.31238e-08)
(2.62053e-06 -5.72305 -0 -2.56508e-06 -0 -5.54487e-08)
(2.37986e-06 -5.72191 -0 -2.33286e-06 -0 -4.70042e-08)
(2.11745e-06 -5.72091 -0 -2.07952e-06 -0 -3.79305e-08)
(1.82091e-06 -5.72008 -0 -1.7937e-06 -0 -2.72145e-08)
(1.51391e-06 -5.7194 -0 -1.4994e-06 -0 -1.45166e-08)
(1.15075e-06 -5.71888 -0 -1.1518e-06 -0 1.04506e-09)
(7.46458e-07 -5.71853 -0 -7.66396e-07 -0 1.99379e-08)
(2.73496e-07 -5.71834 -0 -3.16407e-07 -0 4.29104e-08)
(-3.0468e-07 -5.71836 -0 2.3262e-07 -0 7.20594e-08)
(-1.02608e-06 -5.71859 -0 9.21548e-07 -0 1.04536e-07)
(-1.86265e-06 -5.71909 -0 1.71607e-06 -0 1.46583e-07)
(-2.86765e-06 -5.71985 -0 2.66649e-06 -0 2.01156e-07)
(-4.10794e-06 -5.72094 -0 3.84397e-06 -0 2.63975e-07)
(-5.65547e-06 -5.72239 -0 5.31433e-06 -0 3.41143e-07)
(-7.47426e-06 -5.72431 -0 7.03822e-06 -0 4.36038e-07)
(-9.68365e-06 -5.72667 -0 9.13184e-06 -0 5.51812e-07)
(-1.23642e-05 -5.72964 -0 1.16721e-05 -0 6.92049e-07)
(-1.54563e-05 -5.73323 -0 1.45865e-05 -0 8.69767e-07)
(-1.92507e-05 -5.73754 -0 1.81778e-05 -0 1.07285e-06)
(-2.36757e-05 -5.74271 -0 2.23478e-05 -0 1.32794e-06)
(-2.89917e-05 -5.74877 -0 2.73862e-05 -0 1.6055e-06)
(-3.51471e-05 -5.75594 -0 3.31945e-05 -0 1.95269e-06)
(-4.24893e-05 -5.76423 -0 4.01976e-05 -0 2.29168e-06)
(-5.0984e-05 -5.77391 -0 4.82432e-05 -0 2.74074e-06)
(-6.10993e-05 -5.78501 -0 5.79623e-05 -0 3.13702e-06)
(-7.28813e-05 -5.79784 -0 6.91218e-05 -0 3.75951e-06)
(-8.73437e-05 -5.8125 -0 8.30847e-05 -0 4.259e-06)
(-0.00010112 -5.82666 -0 9.61164e-05 -0 5.00399e-06)
(-0.000113161 -5.83875 -0 0.000107553 -0 5.60781e-06)
(-0.000125493 -5.85159 -0 0.000119558 -0 5.93531e-06)
(-0.000140784 -5.86499 -0 0.000134853 -0 5.93096e-06)
(-0.000156484 -5.87943 -0 0.000149905 -0 6.57897e-06)
(-0.000174588 -5.89442 -0 0.000168274 -0 6.31375e-06)
(-0.000193682 -5.91045 -0 0.000186593 -0 7.0892e-06)
(-0.000215616 -5.92717 -0 0.000209125 -0 6.49039e-06)
(-0.00023871 -5.94489 -0 0.000231074 -0 7.63558e-06)
(-0.000266529 -5.96351 -0 0.000259964 -0 6.56483e-06)
(-0.000296049 -5.98317 -0 0.0002878 -0 8.24929e-06)
(-0.000330741 -6.00404 -0 0.000324844 -0 5.89701e-06)
(-0.000369971 -6.02575 -0 0.000361718 -0 8.25344e-06)
(-0.000413153 -6.04947 -0 0.000411137 -0 2.01574e-06)
(-0.00046776 -6.07313 -0 0.000461819 -0 5.94174e-06)
(-0.000524571 -6.10081 -0 0.000534849 -0 -1.02782e-05)
(-0.000609893 -6.12622 -0 0.000608407 -0 1.48592e-06)
(-0.000683307 -6.16069 -0 0.000721252 -0 -3.79451e-05)
(-0.000859023 -6.18662 -0 0.000852535 -0 6.48818e-06)
(-0.000892405 -6.23705 -0 0.000981843 -0 -8.94387e-05)
(-0.00126513 -6.25525 -0 0.00120774 -0 5.73919e-05)
(-0.00170757 -6.34104 -0 0.0018873 -0 -0.000179735)
(-0.00196422 -6.37053 -0 0.00177584 -0 0.000188386)
(-0.00123921 -6.49462 -0 0.00208616 -0 -0.000846947)
(-0.106708 -6.45361 8.49533e-21 0.104565 -0 0.00214314)
(0.0103044 -10.4732 -0 -0.00978699 -0 -0.000517381)
(0.00383073 -5.41498 -0 -0.00379663 -0 -3.41013e-05)
(0.00102462 -4.65044 -0 -0.00102474 -0 1.20993e-07)
(0.000606029 -4.25043 -0 -0.00060716 -0 1.13057e-06)
(0.000396137 -4.008 -0 -0.000397344 -0 1.2069e-06)
(0.000274929 -3.85144 -0 -0.000275989 -0 1.06079e-06)
(0.000203721 -3.74292 -0 -0.000204632 -0 9.11546e-07)
(0.0001572 -3.66356 -0 -0.00015795 -0 7.50747e-07)
(0.000124546 -3.60373 -0 -0.000125165 -0 6.18461e-07)
(0.000100952 -3.55747 -0 -0.00010147 -0 5.18646e-07)
(8.33596e-05 -3.521 -0 -8.37976e-05 -0 4.3798e-07)
(6.97762e-05 -3.49173 -0 -7.01494e-05 -0 3.73208e-07)
(5.91328e-05 -3.46802 -0 -5.94531e-05 -0 3.20381e-07)
(5.0571e-05 -3.4485 -0 -5.08484e-05 -0 2.77425e-07)
(4.36468e-05 -3.43242 -0 -4.38884e-05 -0 2.41659e-07)
(3.78947e-05 -3.41892 -0 -3.8107e-05 -0 2.12241e-07)
(3.30876e-05 -3.40768 -0 -3.32743e-05 -0 1.86654e-07)
(2.91021e-05 -3.39811 -0 -2.92676e-05 -0 1.65481e-07)
(2.56353e-05 -3.39006 -0 -2.57824e-05 -0 1.47101e-07)
(2.2805e-05 -3.38317 -0 -2.2936e-05 -0 1.31046e-07)
(2.02897e-05 -3.37725 -0 -2.04077e-05 -0 1.17923e-07)
(1.8108e-05 -3.37219 -0 -1.82141e-05 -0 1.06083e-07)
(1.62347e-05 -3.36781 -0 -1.63302e-05 -0 9.54422e-08)
(1.46471e-05 -3.36404 -0 -1.4734e-05 -0 8.68861e-08)
(1.32564e-05 -3.36073 -0 -1.33348e-05 -0 7.83841e-08)
(1.19722e-05 -3.35787 -0 -1.20435e-05 -0 7.13387e-08)
(1.08691e-05 -3.35536 -0 -1.09345e-05 -0 6.53757e-08)
(9.85879e-06 -3.35317 -0 -9.91921e-06 -0 6.04172e-08)
(9.03727e-06 -3.35126 -0 -9.09306e-06 -0 5.57984e-08)
(8.25654e-06 -3.34955 -0 -8.30748e-06 -0 5.09491e-08)
(7.53437e-06 -3.34807 -0 -7.58137e-06 -0 4.69954e-08)
(6.93546e-06 -3.34675 -0 -6.97873e-06 -0 4.3276e-08)
(6.31162e-06 -3.34558 -0 -6.35178e-06 -0 4.01591e-08)
(5.79555e-06 -3.34456 -0 -5.83279e-06 -0 3.72427e-08)
(5.36391e-06 -3.34365 -0 -5.39789e-06 -0 3.39787e-08)
(4.93359e-06 -3.34284 -0 -4.96446e-06 -0 3.08701e-08)
(4.48943e-06 -3.34211 -0 -4.51709e-06 -0 2.76617e-08)
(4.06269e-06 -3.34148 -0 -4.08687e-06 -0 2.41866e-08)
(3.59739e-06 -3.34092 -0 -3.61762e-06 -0 2.02295e-08)
(3.06838e-06 -3.34045 -0 -3.08371e-06 -0 1.53277e-08)
(2.5115e-06 -3.34006 -0 -2.52045e-06 -0 8.9488e-09)
(1.85182e-06 -3.33974 -0 -1.85266e-06 -0 8.39399e-10)
(1.10489e-06 -3.33951 -0 -1.0953e-06 -0 -9.58374e-09)
(2.23748e-07 -3.33936 -0 -2.00731e-07 -0 -2.30172e-08)
(-8.58366e-07 -3.33931 -0 8.98157e-07 -0 -3.97916e-08)
(-2.18563e-06 -3.33936 -0 2.24458e-06 -0 -5.8952e-08)
(-3.75903e-06 -3.33954 -0 3.84497e-06 -0 -8.59428e-08)
(-5.67584e-06 -3.33983 -0 5.79659e-06 -0 -1.2075e-07)
(-8.00826e-06 -3.34028 -0 8.16988e-06 -0 -1.61621e-07)
(-1.09097e-05 -3.34089 -0 1.11197e-05 -0 -2.09964e-07)
(-1.43525e-05 -3.34171 -0 1.46246e-05 -0 -2.72087e-07)
(-1.85165e-05 -3.34274 -0 1.88579e-05 -0 -3.41401e-07)
(-2.35583e-05 -3.34403 -0 2.3982e-05 -0 -4.23671e-07)
(-2.94224e-05 -3.34561 -0 2.99444e-05 -0 -5.21936e-07)
(-3.65463e-05 -3.3475 -0 3.71778e-05 -0 -6.31517e-07)
(-4.49064e-05 -3.34978 -0 4.56768e-05 -0 -7.70344e-07)
(-5.48681e-05 -3.35245 -0 5.58133e-05 -0 -9.4519e-07)
(-6.64822e-05 -3.35562 -0 6.76348e-05 -0 -1.15259e-06)
(-8.02029e-05 -3.35927 -0 8.16296e-05 -0 -1.42671e-06)
(-9.62232e-05 -3.36355 -0 9.79586e-05 -0 -1.73543e-06)
(-0.00011506 -3.36842 -0 0.00011723 -0 -2.16988e-06)
(-0.00013716 -3.37407 -0 0.000139749 -0 -2.58952e-06)
(-0.000163684 -3.38048 -0 0.000166958 -0 -3.27423e-06)
(-0.000189131 -3.38663 -0 0.000192987 -0 -3.85662e-06)
(-0.00021139 -3.39186 -0 0.000215612 -0 -4.22116e-06)
(-0.00023462 -3.39748 -0 0.000239639 -0 -5.01921e-06)
(-0.000262272 -3.40326 -0 0.000268316 -0 -6.04435e-06)
(-0.000291635 -3.4095 -0 0.000298536 -0 -6.90147e-06)
(-0.000324088 -3.4159 -0 0.000332461 -0 -8.37383e-06)
(-0.000359885 -3.42277 -0 0.000369309 -0 -9.42413e-06)
(-0.00039898 -3.42984 -0 0.000410335 -0 -1.13549e-05)
(-0.000442791 -3.43735 -0 0.000455324 -0 -1.25338e-05)
(-0.000491094 -3.4451 -0 0.000506288 -0 -1.5194e-05)
(-0.000547174 -3.45331 -0 0.000563914 -0 -1.67404e-05)
(-0.000605347 -3.46182 -0 0.000626376 -0 -2.10287e-05)
(-0.000680725 -3.47076 -0 0.000704085 -0 -2.33601e-05)
(-0.000749056 -3.48016 -0 0.000780163 -0 -3.11065e-05)
(-0.000858628 -3.48978 -0 0.000892892 -0 -3.4264e-05)
(-0.000938259 -3.50035 -0 0.000987393 -0 -4.91338e-05)
(-0.00111983 -3.51064 -0 0.00116933 -0 -4.94938e-05)
(-0.00119965 -3.52314 -0 0.00128065 -0 -8.10051e-05)
(-0.00157323 -3.53348 -0 0.00163325 -0 -6.00202e-05)
(-0.00155637 -3.55076 -0 0.00170149 -0 -0.000145123)
(-0.00233605 -3.55575 -0 0.00237046 -0 -3.441e-05)
(-0.00280431 -3.58582 -0 0.00308119 -0 -0.00027688)
(-0.00369676 -3.58837 -0 0.00355227 -0 0.000144482)
(-0.0055423 -3.61819 -0 0.00640274 -0 -0.000860439)
(-0.0466261 -3.70722 -7.80137e-21 0.0446992 -0 0.00192684)
(0.0129484 -11.4737 -0 -0.0135843 -0 0.000635821)
(0.00588859 -6.30241 -0 -0.00594523 -0 5.66467e-05)
(0.00191059 -5.45378 -0 -0.00192902 -0 1.84302e-05)
(0.00119798 -4.99166 -0 -0.00120934 -0 1.13596e-05)
(0.000805134 -4.70571 -0 -0.000812725 -0 7.59066e-06)
(0.000565838 -4.51858 -0 -0.000571253 -0 5.41502e-06)
(0.000423149 -4.38802 -0 -0.000427198 -0 4.04877e-06)
(0.000328341 -4.29211 -0 -0.000331466 -0 3.12494e-06)
(0.000260918 -4.21955 -0 -0.000263399 -0 2.48163e-06)
(0.000211947 -4.16331 -0 -0.000213964 -0 2.0174e-06)
(0.000175303 -4.1189 -0 -0.00017697 -0 1.66672e-06)
(0.000146916 -4.0832 -0 -0.000148312 -0 1.39675e-06)
(0.000124619 -4.05426 -0 -0.000125803 -0 1.18396e-06)
(0.000106665 -4.03041 -0 -0.000107679 -0 1.01381e-06)
(9.21211e-05 -4.01074 -0 -9.29962e-05 -0 8.75036e-07)
(8.00454e-05 -3.99422 -0 -8.0806e-05 -0 7.6062e-07)
(6.9935e-05 -3.98046 -0 -7.05993e-05 -0 6.64317e-07)
(6.15454e-05 -3.96875 -0 -6.21301e-05 -0 5.8473e-07)
(5.42552e-05 -3.95888 -0 -5.47706e-05 -0 5.1534e-07)
(4.8272e-05 -3.95044 -0 -4.87303e-05 -0 4.58314e-07)
(4.29867e-05 -3.94318 -0 -4.33949e-05 -0 4.08227e-07)
(3.83908e-05 -3.93698 -0 -3.87552e-05 -0 3.64476e-07)
(3.44345e-05 -3.93162 -0 -3.47614e-05 -0 3.26849e-07)
(3.10706e-05 -3.927 -0 -3.1365e-05 -0 2.94395e-07)
(2.81359e-05 -3.92294 -0 -2.84027e-05 -0 2.66805e-07)
(2.5432e-05 -3.91942 -0 -2.56736e-05 -0 2.41623e-07)
(2.31001e-05 -3.91635 -0 -2.33196e-05 -0 2.19485e-07)
(2.09707e-05 -3.91366 -0 -2.11698e-05 -0 1.9916e-07)
(1.92137e-05 -3.91132 -0 -1.93956e-05 -0 1.81869e-07)
(1.75733e-05 -3.90922 -0 -1.77403e-05 -0 1.66993e-07)
(1.60465e-05 -3.90741 -0 -1.62e-05 -0 1.53504e-07)
(1.47655e-05 -3.90578 -0 -1.49069e-05 -0 1.41431e-07)
(1.34555e-05 -3.90435 -0 -1.35855e-05 -0 1.30016e-07)
(1.23381e-05 -3.9031 -0 -1.24581e-05 -0 1.20042e-07)
(1.13928e-05 -3.90198 -0 -1.15042e-05 -0 1.11416e-07)
(1.04621e-05 -3.90097 -0 -1.05665e-05 -0 1.04311e-07)
(9.50044e-06 -3.90008 -0 -9.59757e-06 -0 9.71277e-08)
(8.55739e-06 -3.8993 -0 -8.64737e-06 -0 8.99795e-08)
(7.52991e-06 -3.89861 -0 -7.61248e-06 -0 8.2574e-08)
(6.35525e-06 -3.89802 -0 -6.42979e-06 -0 7.45413e-08)
(5.09155e-06 -3.89753 -0 -5.15689e-06 -0 6.53428e-08)
(3.59522e-06 -3.89712 -0 -3.65044e-06 -0 5.52202e-08)
(1.86548e-06 -3.89682 -0 -1.9088e-06 -0 4.33224e-08)
(-1.97094e-07 -3.89661 -0 1.69015e-07 -0 2.8079e-08)
(-2.74167e-06 -3.89651 -0 2.73123e-06 -0 1.04357e-08)
(-5.81187e-06 -3.89652 -0 5.82332e-06 -0 -1.14457e-08)
(-9.53279e-06 -3.89668 -0 9.57239e-06 -0 -3.9599e-08)
(-1.41376e-05 -3.89697 -0 1.42125e-05 -0 -7.49702e-08)
(-1.96622e-05 -3.89743 -0 1.97787e-05 -0 -1.16447e-07)
(-2.6519e-05 -3.89807 -0 2.66859e-05 -0 -1.66926e-07)
(-3.47293e-05 -3.89894 -0 3.49574e-05 -0 -2.28118e-07)
(-4.46262e-05 -3.90003 -0 4.49219e-05 -0 -2.95751e-07)
(-5.65999e-05 -3.90143 -0 5.69762e-05 -0 -3.76306e-07)
(-7.06231e-05 -3.90313 -0 7.10768e-05 -0 -4.53704e-07)
(-8.75536e-05 -3.90518 -0 8.81105e-05 -0 -5.56891e-07)
(-0.000107487 -3.90765 -0 0.000108155 -0 -6.6768e-07)
(-0.000131149 -3.91055 -0 0.000131972 -0 -8.23365e-07)
(-0.000158901 -3.91401 -0 0.000159909 -0 -1.00758e-06)
(-0.000191554 -3.91798 -0 0.000192861 -0 -1.30719e-06)
(-0.000229875 -3.92264 -0 0.000231492 -0 -1.6166e-06)
(-0.000274716 -3.92793 -0 0.000276868 -0 -2.15186e-06)
(-0.000327543 -3.93409 -0 0.000330129 -0 -2.58647e-06)
(-0.000390644 -3.94103 -0 0.000394123 -0 -3.47849e-06)
(-0.000451795 -3.94767 -0 0.000455577 -0 -3.78224e-06)
(-0.000505557 -3.95334 -0 0.000509704 -0 -4.14729e-06)
(-0.000561261 -3.95948 -0 0.00056644 -0 -5.17818e-06)
(-0.000627011 -3.96574 -0 0.000633742 -0 -6.73041e-06)
(-0.000697867 -3.97249 -0 0.000705536 -0 -7.66815e-06)
(-0.000775497 -3.97937 -0 0.000785488 -0 -9.991e-06)
(-0.000861488 -3.98677 -0 0.000872555 -0 -1.1067e-05)
(-0.000954478 -3.99433 -0 0.00096859 -0 -1.41122e-05)
(-0.00106048 -4.00234 -0 0.00107567 -0 -1.51911e-05)
(-0.00117307 -4.01054 -0 0.00119233 -0 -1.92657e-05)
(-0.00131044 -4.01922 -0 0.00133087 -0 -2.04331e-05)
(-0.00144359 -4.02809 -0 0.00147058 -0 -2.69946e-05)
(-0.0016319 -4.03747 -0 0.00166051 -0 -2.86087e-05)
(-0.00178252 -4.04711 -0 0.00182364 -0 -4.11183e-05)
(-0.00206352 -4.05719 -0 0.00210645 -0 -4.29276e-05)
(-0.00222034 -4.06774 -0 0.00228928 -0 -6.89487e-05)
(-0.00269046 -4.07849 -0 0.00275328 -0 -6.28191e-05)
(-0.00281163 -4.09031 -0 0.00293258 -0 -0.000120947)
(-0.0037211 -4.10105 -0 0.00378794 -0 -6.68332e-05)
(-0.00367917 -4.1163 -0 0.00389821 -0 -0.000219039)
(-0.00544629 -4.12002 -0 0.00542871 -0 1.7583e-05)
(-0.00616871 -4.14733 -0 0.00659285 -0 -0.000424144)
(-0.0083108 -4.14053 -0 0.00785546 -0 0.000455335)
(-0.0167467 -4.1749 -0 0.0182281 -0 -0.00148139)
(-0.0264029 -4.15936 -0 0.0276494 -0 -0.00124655)
(0.00856522 -11.6657 -0 -0.00858078 -0 1.55614e-05)
(0.00800899 -6.4292 -0 -0.00796357 -0 -4.54247e-05)
(0.0031249 -5.59431 -0 -0.00311829 -0 -6.60627e-06)
(0.0021342 -5.14495 -0 -0.00213275 -0 -1.44557e-06)
(0.001491 -4.86672 -0 -0.00149079 -0 -2.06604e-07)
(0.0010679 -4.68387 -0 -0.00106818 -0 2.82423e-07)
(0.000808869 -4.55611 -0 -0.000809205 -0 3.36399e-07)
(0.000632915 -4.46213 -0 -0.000633221 -0 3.06069e-07)
(0.000505624 -4.39091 -0 -0.000505909 -0 2.85246e-07)
(0.000412317 -4.33566 -0 -0.000412578 -0 2.60708e-07)
(0.000342054 -4.29199 -0 -0.000342284 -0 2.29888e-07)
(0.000287328 -4.25688 -0 -0.000287532 -0 2.04408e-07)
(0.000244165 -4.22839 -0 -0.000244346 -0 1.80453e-07)
(0.000209316 -4.2049 -0 -0.000209477 -0 1.60577e-07)
(0.000181005 -4.18553 -0 -0.000181147 -0 1.41995e-07)
(0.00015748 -4.16925 -0 -0.000157606 -0 1.26553e-07)
(0.000137731 -4.1557 -0 -0.000137843 -0 1.12307e-07)
(0.000121319 -4.14415 -0 -0.000121419 -0 1.00429e-07)
(0.000107059 -4.13442 -0 -0.000107148 -0 8.94493e-08)
(9.52937e-05 -4.1261 -0 -9.5374e-05 -0 8.0283e-08)
(8.49487e-05 -4.11894 -0 -8.50207e-05 -0 7.19566e-08)
(7.59295e-05 -4.11284 -0 -7.59942e-05 -0 6.47169e-08)
(6.81476e-05 -4.10754 -0 -6.82057e-05 -0 5.80658e-08)
(6.1513e-05 -4.10298 -0 -6.15658e-05 -0 5.27844e-08)
(5.57265e-05 -4.09898 -0 -5.57744e-05 -0 4.79341e-08)
(5.04195e-05 -4.0955 -0 -5.0463e-05 -0 4.34391e-08)
(4.58242e-05 -4.09248 -0 -4.58639e-05 -0 3.97419e-08)
(4.16418e-05 -4.08982 -0 -4.16781e-05 -0 3.63048e-08)
(3.8146e-05 -4.08751 -0 -3.81799e-05 -0 3.3923e-08)
(3.49175e-05 -4.08544 -0 -3.49487e-05 -0 3.12114e-08)
(3.19084e-05 -4.08365 -0 -3.19382e-05 -0 2.97144e-08)
(2.9356e-05 -4.08204 -0 -2.93842e-05 -0 2.81754e-08)
(2.67917e-05 -4.08063 -0 -2.68186e-05 -0 2.68846e-08)
(2.4553e-05 -4.07939 -0 -2.45802e-05 -0 2.7186e-08)
(2.26344e-05 -4.07828 -0 -2.26616e-05 -0 2.7172e-08)
(2.07656e-05 -4.07729 -0 -2.07937e-05 -0 2.81258e-08)
(1.88397e-05 -4.07641 -0 -1.88692e-05 -0 2.95592e-08)
(1.69244e-05 -4.07563 -0 -1.69563e-05 -0 3.18443e-08)
(1.48445e-05 -4.07494 -0 -1.48792e-05 -0 3.47021e-08)
(1.24637e-05 -4.07435 -0 -1.25023e-05 -0 3.8648e-08)
(9.8674e-06 -4.07386 -0 -9.91045e-06 -0 4.30501e-08)
(6.79521e-06 -4.07344 -0 -6.84419e-06 -0 4.89863e-08)
(3.20093e-06 -4.07312 -0 -3.25748e-06 -0 5.65566e-08)
(-1.10562e-06 -4.07289 -0 1.04019e-06 -0 6.54225e-08)
(-6.44057e-06 -4.07276 -0 6.36426e-06 -0 7.63125e-08)
(-1.28029e-05 -4.07274 -0 1.27134e-05 -0 8.9505e-08)
(-2.05853e-05 -4.07284 -0 2.04774e-05 -0 1.07951e-07)
(-3.03302e-05 -4.07307 -0 3.02039e-05 -0 1.26272e-07)
(-4.19408e-05 -4.07345 -0 4.17935e-05 -0 1.47325e-07)
(-5.62987e-05 -4.07399 -0 5.61189e-05 -0 1.79795e-07)
(-7.35871e-05 -4.07474 -0 7.3371e-05 -0 2.16093e-07)
(-9.4377e-05 -4.07568 -0 9.41066e-05 -0 2.70429e-07)
(-0.000119505 -4.0769 -0 0.000119166 -0 3.39617e-07)
(-0.000149082 -4.07838 -0 0.00014864 -0 4.42193e-07)
(-0.000184605 -4.08018 -0 0.000184047 -0 5.57781e-07)
(-0.00022655 -4.08235 -0 0.00022585 -0 6.99733e-07)
(-0.000276195 -4.0849 -0 0.000275363 -0 8.32391e-07)
(-0.000334591 -4.08793 -0 0.0003336 -0 9.90218e-07)
(-0.000403028 -4.09142 -0 0.000401965 -0 1.06321e-06)
(-0.000483564 -4.09552 -0 0.000482351 -0 1.21395e-06)
(-0.000577375 -4.10016 -0 0.000576229 -0 1.14577e-06)
(-0.000688127 -4.10556 -0 0.000686756 -0 1.37093e-06)
(-0.000819307 -4.11162 -0 0.000818154 -0 1.1537e-06)
(-0.000948197 -4.11739 -0 0.000946644 -0 1.55286e-06)
(-0.00106174 -4.1223 -0 0.00105987 -0 1.87037e-06)
(-0.00117842 -4.12767 -0 0.00117727 -0 1.15495e-06)
(-0.0013142 -4.13309 -0 0.00131413 -0 7.28438e-08)
(-0.00146257 -4.13894 -0 0.00146273 -0 -1.55922e-07)
(-0.00162314 -4.14485 -0 0.00162522 -0 -2.08326e-06)
(-0.00180259 -4.15121 -0 0.0018049 -0 -2.31685e-06)
(-0.00199355 -4.15766 -0 0.00199851 -0 -4.95457e-06)
(-0.00221508 -4.16448 -0 0.00221992 -0 -4.83431e-06)
(-0.002443 -4.17139 -0 0.00245164 -0 -8.63967e-06)
(-0.00273091 -4.1787 -0 0.00273896 -0 -8.05151e-06)
(-0.00299635 -4.18606 -0 0.00301151 -0 -1.5161e-05)
(-0.00339342 -4.19388 -0 0.00340763 -0 -1.42089e-05)
(-0.00368381 -4.20168 -0 0.00371365 -0 -2.98376e-05)
(-0.00428075 -4.21001 -0 0.00430762 -0 -2.68719e-05)
(-0.00455481 -4.21825 -0 0.0046173 -0 -6.24883e-05)
(-0.0055545 -4.22712 -0 0.00559739 -0 -4.28881e-05)
(-0.00570624 -4.23582 -0 0.00583236 -0 -0.000126124)
(-0.00758312 -4.24468 -0 0.00761499 -0 -3.18737e-05)
(-0.00741105 -4.25514 -0 0.00765597 -0 -0.000244916)
(-0.0110609 -4.25751 -0 0.0109611 -0 9.97821e-05)
(-0.011622 -4.27728 -0 0.0120839 -0 -0.000461922)
(-0.017164 -4.26385 -0 0.0166158 -0 0.000548214)
(-0.0292996 -4.31036 -0 0.0307346 -0 -0.001435)
(-0.0325996 -4.1613 -0 0.0327455 -0 -0.000145875)
(-0.00767627 -11.5774 -0 0.00774697 -0 -7.06987e-05)
(0.00955193 -6.36713 -0 -0.00950622 -0 -4.57119e-05)
(0.00435741 -5.52612 -0 -0.00434117 -0 -1.6232e-05)
(0.00330831 -5.08479 -0 -0.00329866 -0 -9.65485e-06)
(0.00241559 -4.81387 -0 -0.00240934 -0 -6.25741e-06)
(0.0017669 -4.6356 -0 -0.00176269 -0 -4.20604e-06)
(0.00135602 -4.51112 -0 -0.00135283 -0 -3.19882e-06)
(0.00107024 -4.41959 -0 -0.00106768 -0 -2.56041e-06)
(0.000859801 -4.35017 -0 -0.00085774 -0 -2.06139e-06)
(0.000703938 -4.29628 -0 -0.000702252 -0 -1.68639e-06)
(0.00058576 -4.25368 -0 -0.00058435 -0 -1.40959e-06)
(0.000493209 -4.21942 -0 -0.000492021 -0 -1.18824e-06)
(0.000419898 -4.19162 -0 -0.000418884 -0 -1.01407e-06)
(0.000360534 -4.1687 -0 -0.000359664 -0 -8.70764e-07)
(0.00031217 -4.14979 -0 -0.000311415 -0 -7.55449e-07)
(0.000271936 -4.1339 -0 -0.000271278 -0 -6.57828e-07)
(0.00023808 -4.12067 -0 -0.000237503 -0 -5.76746e-07)
(0.000209896 -4.10941 -0 -0.000209387 -0 -5.08468e-07)
(0.000185406 -4.09991 -0 -0.000184957 -0 -4.49452e-07)
(0.000165111 -4.09179 -0 -0.000164711 -0 -4.00722e-07)
(0.000147323 -4.0848 -0 -0.000146965 -0 -3.57556e-07)
(0.000131784 -4.07884 -0 -0.000131464 -0 -3.1984e-07)
(0.000118351 -4.07367 -0 -0.000118064 -0 -2.87627e-07)
(0.00010687 -4.06922 -0 -0.00010661 -0 -2.59624e-07)
(9.68556e-05 -4.06532 -0 -9.66201e-05 -0 -2.35493e-07)
(8.77077e-05 -4.06193 -0 -8.74945e-05 -0 -2.13231e-07)
(7.97574e-05 -4.05897 -0 -7.95639e-05 -0 -1.93458e-07)
(7.254e-05 -4.05638 -0 -7.23648e-05 -0 -1.75274e-07)
(6.64478e-05 -4.05413 -0 -6.62879e-05 -0 -1.5992e-07)
(6.08661e-05 -4.05211 -0 -6.072e-05 -0 -1.46164e-07)
(5.5664e-05 -4.05036 -0 -5.55321e-05 -0 -1.31832e-07)
(5.12111e-05 -4.04879 -0 -5.10909e-05 -0 -1.20231e-07)
(4.68012e-05 -4.04742 -0 -4.66933e-05 -0 -1.07978e-07)
(4.28894e-05 -4.04621 -0 -4.27939e-05 -0 -9.54991e-08)
(3.95022e-05 -4.04513 -0 -3.94169e-05 -0 -8.53526e-08)
(3.62326e-05 -4.04416 -0 -3.61584e-05 -0 -7.41363e-08)
(3.28776e-05 -4.04329 -0 -3.28157e-05 -0 -6.19285e-08)
(2.95133e-05 -4.04253 -0 -2.94644e-05 -0 -4.88606e-08)
(2.58768e-05 -4.04185 -0 -2.58424e-05 -0 -3.44426e-08)
(2.17213e-05 -4.04126 -0 -2.1704e-05 -0 -1.72312e-08)
(1.7158e-05 -4.04076 -0 -1.71594e-05 -0 1.36509e-09)
(1.17714e-05 -4.04034 -0 -1.17955e-05 -0 2.41667e-08)
(5.42767e-06 -4.04 -0 -5.47855e-06 -0 5.0878e-08)
(-2.18006e-06 -4.03974 -0 2.09787e-06 -0 8.2192e-08)
(-1.16353e-05 -4.03957 -0 1.15145e-05 -0 1.20826e-07)
(-2.28446e-05 -4.03948 -0 2.2681e-05 -0 1.63601e-07)
(-3.65436e-05 -4.03951 -0 3.632e-05 -0 2.23595e-07)
(-5.38445e-05 -4.03964 -0 5.35525e-05 -0 2.91972e-07)
(-7.44276e-05 -4.0399 -0 7.40625e-05 -0 3.65054e-07)
(-9.97794e-05 -4.04028 -0 9.93113e-05 -0 4.68107e-07)
(-0.000130387 -4.04085 -0 0.000129798 -0 5.88608e-07)
(-0.00016714 -4.04156 -0 0.00016639 -0 7.4942e-07)
(-0.000211522 -4.04251 -0 0.000210573 -0 9.48058e-07)
(-0.00026389 -4.04366 -0 0.000262679 -0 1.21014e-06)
(-0.000326592 -4.04507 -0 0.000325077 -0 1.51526e-06)
(-0.000400711 -4.04678 -0 0.00039883 -0 1.88121e-06)
(-0.000488257 -4.04878 -0 0.000485999 -0 2.25753e-06)
(-0.000591361 -4.05119 -0 0.000588656 -0 2.70431e-06)
(-0.000711913 -4.05393 -0 0.000708858 -0 3.05485e-06)
(-0.000853907 -4.05718 -0 0.000850346 -0 3.56152e-06)
(-0.00101885 -4.06082 -0 0.00101507 -0 3.784e-06)
(-0.00121369 -4.06509 -0 0.0012092 -0 4.4945e-06)
(-0.00144279 -4.06982 -0 0.0014382 -0 4.58694e-06)
(-0.00166903 -4.07432 -0 0.00166353 -0 5.50486e-06)
(-0.00186971 -4.07811 -0 0.00186344 -0 6.27067e-06)
(-0.00207452 -4.0823 -0 0.00206898 -0 5.53522e-06)
(-0.00231018 -4.08647 -0 0.00230592 -0 4.25857e-06)
(-0.00256922 -4.091 -0 0.00256488 -0 4.33337e-06)
(-0.0028481 -4.09548 -0 0.00284618 -0 1.91456e-06)
(-0.00316031 -4.10034 -0 0.00315827 -0 2.0421e-06)
(-0.00348975 -4.10516 -0 0.00349111 -0 -1.36648e-06)
(-0.00387453 -4.11029 -0 0.00387519 -0 -6.68052e-07)
(-0.00426336 -4.11536 -0 0.00426909 -0 -5.72692e-06)
(-0.00476194 -4.12079 -0 0.0047662 -0 -4.26846e-06)
(-0.00520929 -4.126 -0 0.0052234 -0 -1.41035e-05)
(-0.00589574 -4.13175 -0 0.00590765 -0 -1.19146e-05)
(-0.00637467 -4.13698 -0 0.00640895 -0 -3.42803e-05)
(-0.00740468 -4.14307 -0 0.00743315 -0 -2.84689e-05)
(-0.00783282 -4.14812 -0 0.00791336 -0 -8.0538e-05)
(-0.009545 -4.15467 -0 0.00959431 -0 -4.93116e-05)
(-0.00973097 -4.15922 -0 0.00990166 -0 -0.000170686)