/*--------------------------------*- C++ -*----------------------------------*\
| =========                 |                                                 |
| \\      /  F ield         | OpenFOAM: The Open Source CFD Toolbox           |
|  \\    /   O peration     | Version:  2306                                  |
|   \\  /    A nd           | Website:  www.openfoam.com                      |
|    \\/     M anipulation  |                                                 |
\*---------------------------------------------------------------------------*/
FoamFile
{
    version     2.0;
    format      ascii;
    arch        "LSB;label=32;scalar=64";
    class       volVectorField;
    location    "2000";
    object      U;
}
// * * * * * * * * * * * * * * * * * * * * * * * * * * * * * * * * * * * * * //

dimensions      [0 1 -1 0 0 0 0];

internalField   nonuniform List<vector> 
20540
(
(32.8576 0.00125406 0)
(20.8167 0.00177836 0)
(32.8862 0.00427916 0)
(20.8344 0.00545392 0)
(32.9364 0.00836065 0)
(20.8628 0.00835863 0)
(33.0076 0.0128175 0)
(20.9019 0.00997363 0)
(33.1024 0.0181727 0)
(20.9538 0.0111803 0)
(33.2252 0.0247043 0)
(21.0214 0.012222 0)
(33.3811 0.0326003 0)
(21.1084 0.013069 0)
(33.5762 0.0420958 0)
(21.2192 0.0136788 0)
(33.8171 0.0534955 0)
(21.3588 0.0140365 0)
(34.1112 0.067161 0)
(21.5334 0.0141354 0)
(34.4666 0.083507 0)
(21.7507 0.013976 0)
(34.892 0.103005 0)
(22.0197 0.0135808 0)
(35.3972 0.126183 0)
(22.3517 0.0130167 0)
(35.9922 0.153621 0)
(22.7602 0.0124253 0)
(36.6877 0.185928 0)
(23.262 0.0120655 0)
(37.4945 0.223717 0)
(23.8777 0.0123739 0)
(38.4229 0.267549 0)
(24.6323 0.0140487 0)
(39.4813 0.317839 0)
(25.557 0.0181594 0)
(40.6733 0.374682 0)
(26.6895 0.0262849 0)
(41.9942 0.437599 0)
(28.0756 0.0406755 0)
(43.4258 0.505269 0)
(29.7683 0.0644093 0)
(44.9203 0.575344 0)
(31.8242 0.101421 0)
(46.3579 0.644263 0)
(34.2939 0.155938 0)
(47.4753 0.704464 0)
(37.1966 0.230404 0)
(47.9736 0.738197 0)
(40.4817 0.322027 0)
(47.9645 0.743283 0)
(43.9951 0.423572 0)
(47.5236 0.709585 0)
(47.322 0.517571 0)
(46.6721 0.616138 0)
(49.2975 0.531016 0)
(45.9051 0.485211 0)
(49.5953 0.462429 0)
(45.4361 0.338772 0)
(49.4473 0.356853 0)
(45.2338 0.195044 0)
(49.2479 0.215528 0)
(45.1613 0.0563878 0)
(49.1405 0.0774227 0)
(45.1628 -0.0828659 0)
(49.1395 -0.0577277 0)
(45.2381 -0.221523 0)
(49.2429 -0.19549 0)
(45.4378 -0.363136 0)
(49.4299 -0.334099 0)
(45.8718 -0.504518 0)
(49.5627 -0.437468 0)
(46.5617 -0.630892 0)
(49.3033 -0.507453 0)
(47.3338 -0.723523 0)
(47.5369 -0.505526 0)
(47.7603 -0.760627 0)
(44.3842 -0.421048 0)
(47.7843 -0.759234 0)
(40.9639 -0.324041 0)
(47.3291 -0.729813 0)
(37.716 -0.234213 0)
(46.2583 -0.673127 0)
(34.8083 -0.159441 0)
(44.8458 -0.606078 0)
(32.3062 -0.103533 0)
(43.3571 -0.536678 0)
(30.2019 -0.0648593 0)
(41.9177 -0.46871 0)
(28.4532 -0.0396348 0)
(40.579 -0.40471 0)
(27.0083 -0.0241058 0)
(39.3622 -0.346223 0)
(25.8174 -0.0152316 0)
(38.274 -0.293941 0)
(24.8366 -0.0107282 0)
(37.3123 -0.247927 0)
(24.0294 -0.00895308 0)
(36.4696 -0.207884 0)
(23.3655 -0.00876507 0)
(35.7367 -0.173343 0)
(22.82 -0.00939885 0)
(35.1037 -0.143757 0)
(22.3723 -0.0103608 0)
(34.5607 -0.118556 0)
(22.0054 -0.0113475 0)
(34.0984 -0.0971863 0)
(21.7055 -0.0121842 0)
(33.7078 -0.07913 0)
(21.4609 -0.0127809 0)
(33.3805 -0.0639185 0)
(21.2622 -0.0131012 0)
(33.1087 -0.0511348 0)
(21.1016 -0.0131399 0)
(32.8851 -0.0404117 0)
(20.9725 -0.012906 0)
(32.7033 -0.0314289 0)
(20.8695 -0.0124112 0)
(32.5574 -0.0239151 0)
(20.7881 -0.0116723 0)
(32.442 -0.0176612 0)
(20.7245 -0.0107288 0)
(32.3526 -0.0125007 0)
(20.6755 -0.00960445 0)
(32.2852 -0.00818073 0)
(20.6383 -0.00806515 0)
(32.2374 -0.00421025 0)
(20.6112 -0.00528169 0)
(32.2099 -0.0012378 0)
(20.5943 -0.00172837 0)
(9.34166 0.00278629 0)
(5.24701 0.000470985 0)
(4.55817 8.80068e-05 0)
(4.18552 4.48517e-05 0)
(3.95631 2.66738e-05 0)
(3.80743 1.75953e-05 0)
(3.70337 1.2511e-05 0)
(3.62686 9.37745e-06 0)
(3.56904 7.29267e-06 0)
(3.52422 5.82726e-06 0)
(3.48881 4.75647e-06 0)
(3.46035 3.94563e-06 0)
(3.43727 3.31963e-06 0)
(3.41825 2.82176e-06 0)
(3.40256 2.42271e-06 0)
(3.38938 2.0926e-06 0)
(3.3784 1.81987e-06 0)
(3.36905 1.59475e-06 0)
(3.36117 1.39894e-06 0)
(3.35443 1.24256e-06 0)
(3.34864 1.10073e-06 0)
(3.34369 9.78974e-07 0)
(3.33941 8.75951e-07 0)
(3.33571 7.87387e-07 0)
(3.33247 7.13397e-07 0)
(3.32966 6.4244e-07 0)
(3.32721 5.81458e-07 0)
(3.32506 5.24141e-07 0)
(3.32319 4.7899e-07 0)
(3.32151 4.38458e-07 0)
(3.32006 3.99653e-07 0)
(3.31876 3.6832e-07 0)
(3.31763 3.3391e-07 0)
(3.31663 3.06776e-07 0)
(3.31574 2.86518e-07 0)
(3.31494 2.66944e-07 0)
(3.31424 2.46396e-07 0)
(3.31363 2.27754e-07 0)
(3.31309 2.07554e-07 0)
(3.31264 1.85659e-07 0)
(3.31228 1.64913e-07 0)
(3.312 1.42145e-07 0)
(3.31181 1.18608e-07 0)
(3.31171 9.17605e-08 0)
(3.31172 6.10781e-08 0)
(3.31184 1.66701e-08 0)
(3.31211 -2.82263e-08 0)
(3.31252 -7.66576e-08 0)
(3.31311 -1.40862e-07 0)
(3.31389 -2.26204e-07 0)
(3.31492 -3.17386e-07 0)
(3.31619 -4.32814e-07 0)
(3.31779 -5.7602e-07 0)
(3.31972 -7.13839e-07 0)
(3.32204 -9.19701e-07 0)
(3.32482 -1.1181e-06 0)
(3.32809 -1.39142e-06 0)
(3.33195 -1.68104e-06 0)
(3.33642 -2.11701e-06 0)
(3.34163 -2.55365e-06 0)
(3.34761 -3.22634e-06 0)
(3.35452 -3.87382e-06 0)
(3.36242 -4.98981e-06 0)
(3.37007 -5.58265e-06 0)
(3.3766 -6.41103e-06 0)
(3.38354 -7.20202e-06 0)
(3.39077 -8.89839e-06 0)
(3.39857 -9.82456e-06 0)
(3.40667 -1.2088e-05 0)
(3.41534 -1.31285e-05 0)
(3.42436 -1.60763e-05 0)
(3.43394 -1.71522e-05 0)
(3.44399 -2.10345e-05 0)
(3.45462 -2.22525e-05 0)
(3.46589 -2.76916e-05 0)
(3.47766 -2.91794e-05 0)
(3.49049 -3.8336e-05 0)
(3.50335 -3.9876e-05 0)
(3.5183 -5.82966e-05 0)
(3.53214 -5.61141e-05 0)
(3.55069 -9.48562e-05 0)
(3.56486 -7.30846e-05 0)
(3.59194 -0.00015062 0)
(3.60194 -5.8343e-05 0)
(3.64842 -0.000298879 0)
(3.66565 5.19764e-05 0)
(3.73152 -0.0007508 0)
(3.68311 -0.0297162 0)
(16.1961 0.00507456 0)
(10.9446 0.00210705 0)
(9.80679 0.000519741 0)
(9.15379 0.000302878 0)
(8.73726 0.00019649 0)
(8.46172 0.000136244 0)
(8.26661 0.000100778 0)
(8.12185 7.76912e-05 0)
(8.01178 6.15673e-05 0)
(7.92609 4.99173e-05 0)
(7.85815 4.12246e-05 0)
(7.80339 3.45142e-05 0)
(7.75888 2.92555e-05 0)
(7.72213 2.50217e-05 0)
(7.69178 2.15977e-05 0)
(7.66625 1.87489e-05 0)
(7.64496 1.63691e-05 0)
(7.62681 1.43962e-05 0)
(7.61151 1.26772e-05 0)
(7.5984 1.12792e-05 0)
(7.58713 1.00301e-05 0)
(7.57749 8.94838e-06 0)
(7.56915 8.02106e-06 0)
(7.56195 7.23797e-06 0)
(7.55563 6.54799e-06 0)
(7.55015 5.91003e-06 0)
(7.54537 5.36427e-06 0)
(7.54117 4.86346e-06 0)
(7.53752 4.46143e-06 0)
(7.53424 4.07217e-06 0)
(7.53141 3.71458e-06 0)
(7.52887 3.42109e-06 0)
(7.52665 3.11044e-06 0)
(7.5247 2.86101e-06 0)
(7.52295 2.65413e-06 0)
(7.5214 2.44521e-06 0)
(7.52003 2.22981e-06 0)
(7.51884 2.02703e-06 0)
(7.5178 1.80548e-06 0)
(7.51693 1.55488e-06 0)
(7.51623 1.29633e-06 0)
(7.51569 9.89409e-07 0)
(7.51534 6.48673e-07 0)
(7.51518 2.50975e-07 0)
(7.51523 -2.35639e-07 0)
(7.51552 -8.43234e-07 0)
(7.5161 -1.54696e-06 0)
(7.51697 -2.39082e-06 0)
(7.51821 -3.43596e-06 0)
(7.51984 -4.73602e-06 0)
(7.52199 -6.2664e-06 0)
(7.52464 -8.1186e-06 0)
(7.52795 -1.03621e-05 0)
(7.53195 -1.29506e-05 0)
(7.53676 -1.61123e-05 0)
(7.5425 -1.98122e-05 0)
(7.54925 -2.42718e-05 0)
(7.5572 -2.94146e-05 0)
(7.56641 -3.55885e-05 0)
(7.57715 -4.26961e-05 0)
(7.58947 -5.12499e-05 0)
(7.60369 -6.10484e-05 0)
(7.61995 -7.32137e-05 0)
(7.63562 -8.48214e-05 0)
(7.64899 -9.46811e-05 0)
(7.66318 -0.000105426 0)
(7.67805 -0.000118706 0)
(7.69402 -0.000132008 0)
(7.71065 -0.000147928 0)
(7.7284 -0.000164216 0)
(7.74696 -0.000183788 0)
(7.76659 -0.00020327 0)
(7.78729 -0.000228518 0)
(7.80903 -0.000253141 0)
(7.83228 -0.000285899 0)
(7.85621 -0.000318509 0)
(7.88272 -0.000362959 0)
(7.9087 -0.000407658 0)
(7.93992 -0.000474357 0)
(7.96765 -0.00053845 0)
(8.00702 -0.000643276 0)
(8.03502 -0.000755876 0)
(8.09258 -0.00088596 0)
(8.11268 -0.00107605 0)
(8.20974 -0.0016959 0)
(8.23908 -0.00164191 0)
(8.38726 -0.00200482 0)
(8.45217 -0.0664369 0)
(20.292 0.00778849 0)
(16.0291 0.00428887 0)
(14.8237 0.00124991 0)
(14.0596 0.000771849 0)
(13.545 0.000517653 0)
(13.1962 0.000365508 0)
(12.9448 0.000274026 0)
(12.7559 0.0002132 0)
(12.6113 0.000169974 0)
(12.498 0.000138448 0)
(12.4078 0.000114758 0)
(12.3349 9.63525e-05 0)
(12.2755 8.18568e-05 0)
(12.2263 7.01489e-05 0)
(12.1856 6.06451e-05 0)
(12.1513 5.2728e-05 0)
(12.1227 4.60929e-05 0)
(12.0983 4.05817e-05 0)
(12.0776 3.57774e-05 0)
(12.06 3.18499e-05 0)
(12.0447 2.8355e-05 0)
(12.0317 2.53194e-05 0)
(12.0204 2.27104e-05 0)
(12.0107 2.04966e-05 0)
(12.0021 1.85581e-05 0)
(11.9947 1.67657e-05 0)
(11.9882 1.52251e-05 0)
(11.9825 1.38129e-05 0)
(11.9775 1.26633e-05 0)
(11.9731 1.15733e-05 0)
(11.9692 1.05639e-05 0)
(11.9658 9.72578e-06 0)
(11.9627 8.85336e-06 0)
(11.9601 8.1306e-06 0)
(11.9577 7.52626e-06 0)
(11.9556 6.9253e-06 0)
(11.9537 6.30435e-06 0)
(11.9521 5.70696e-06 0)
(11.9507 5.05519e-06 0)
(11.9496 4.31389e-06 0)
(11.9487 3.5316e-06 0)
(11.948 2.60551e-06 0)
(11.9476 1.55455e-06 0)
(11.9474 3.11615e-07 0)
(11.9476 -1.21334e-06 0)
(11.9482 -3.0858e-06 0)
(11.9492 -5.31187e-06 0)
(11.9506 -8.02472e-06 0)
(11.9526 -1.13242e-05 0)
(11.9552 -1.54283e-05 0)
(11.9586 -2.03022e-05 0)
(11.9627 -2.61867e-05 0)
(11.9679 -3.33112e-05 0)
(11.9741 -4.15749e-05 0)
(11.9816 -5.16294e-05 0)
(11.9905 -6.34082e-05 0)
(12.001 -7.75052e-05 0)
(12.0133 -9.39278e-05 0)
(12.0276 -0.000113507 0)
(12.0443 -0.00013627 0)
(12.0634 -0.000163395 0)
(12.0854 -0.000194841 0)
(12.1107 -0.000233433 0)
(12.1349 -0.000269685 0)
(12.1557 -0.000301431 0)
(12.1777 -0.000335561 0)
(12.2009 -0.000377236 0)
(12.2257 -0.000419937 0)
(12.2517 -0.000469905 0)
(12.2793 -0.000521887 0)
(12.3083 -0.00058276 0)
(12.3388 -0.00064598 0)
(12.3713 -0.000722118 0)
(12.405 -0.000803081 0)
(12.4416 -0.000898451 0)
(12.4785 -0.00100799 0)
(12.5207 -0.00113015 0)
(12.5605 -0.00128861 0)
(12.6108 -0.00145458 0)
(12.6524 -0.00169961 0)
(12.7167 -0.00193174 0)
(12.7569 -0.00235697 0)
(12.8497 -0.00264914 0)
(12.8798 -0.00330226 0)
(13.029 -0.00484619 0)
(13.0655 -0.00451163 0)
(13.2903 -0.0110599 0)
(13.5092 -0.0844192 0)
(22.5311 0.00896339 0)
(19.458 0.00621092 0)
(18.3651 0.00208247 0)
(17.5814 0.0013608 0)
(17.0236 0.000939272 0)
(16.6369 0.000673187 0)
(16.3539 0.000510059 0)
(16.1392 0.000399649 0)
(15.9738 0.000320073 0)
(15.8438 0.000261596 0)
(15.74 0.000217412 0)
(15.6558 0.00018292 0)
(15.5871 0.000155655 0)
(15.5302 0.00013358 0)
(15.483 0.000115614 0)
(15.4432 0.000100635 0)
(15.41 8.80515e-05 0)
(15.3816 7.7585e-05 0)
(15.3576 6.84597e-05 0)
(15.337 6.09687e-05 0)
(15.3192 5.43259e-05 0)
(15.304 4.85434e-05 0)
(15.2909 4.35629e-05 0)
(15.2795 3.93275e-05 0)
(15.2695 3.56239e-05 0)
(15.2608 3.22064e-05 0)
(15.2532 2.92603e-05 0)
(15.2465 2.65655e-05 0)
(15.2407 2.43503e-05 0)
(15.2355 2.22702e-05 0)
(15.231 2.03381e-05 0)
(15.227 1.87212e-05 0)
(15.2234 1.70591e-05 0)
(15.2203 1.56546e-05 0)
(15.2175 1.44695e-05 0)
(15.215 1.33002e-05 0)
(15.2129 1.20923e-05 0)
(15.211 1.0915e-05 0)
(15.2094 9.63224e-06 0)
(15.208 8.16863e-06 0)
(15.207 6.60266e-06 0)
(15.2062 4.74875e-06 0)
(15.2057 2.61778e-06 0)
(15.2056 8.2369e-08 0)
(15.2059 -3.04022e-06 0)
(15.2067 -6.82743e-06 0)
(15.2079 -1.13908e-05 0)
(15.2097 -1.70158e-05 0)
(15.2123 -2.37931e-05 0)
(15.2155 -3.22044e-05 0)
(15.2197 -4.22549e-05 0)
(15.225 -5.43645e-05 0)
(15.2314 -6.90151e-05 0)
(15.2392 -8.61072e-05 0)
(15.2485 -0.000106794 0)
(15.2596 -0.000131113 0)
(15.2726 -0.000160096 0)
(15.2879 -0.000194012 0)
(15.3057 -0.000234204 0)
(15.3263 -0.000281161 0)
(15.3501 -0.000336694 0)
(15.3774 -0.000401456 0)
(15.4088 -0.000480018 0)
(15.4388 -0.000554947 0)
(15.4647 -0.000620684 0)
(15.492 -0.000690614 0)
(15.5208 -0.00077439 0)
(15.5514 -0.000862282 0)
(15.5838 -0.00096251 0)
(15.6179 -0.00106928 0)
(15.6539 -0.00119044 0)
(15.6916 -0.00132111 0)
(15.7319 -0.00147027 0)
(15.7734 -0.00163869 0)
(15.8189 -0.00182177 0)
(15.8641 -0.00205179 0)
(15.9166 -0.002277 0)
(15.965 -0.00261531 0)
(16.0278 -0.00289716 0)
(16.0775 -0.00343396 0)
(16.158 -0.00378419 0)
(16.2048 -0.00472506 0)
(16.3189 -0.00512924 0)
(16.354 -0.00667762 0)
(16.5336 -0.00893185 0)
(16.5659 -0.00938541 0)
(16.842 -0.0224827 0)
(17.0402 -0.0961432 0)
(23.8947 0.00904252 0)
(21.8415 0.00790787 0)
(20.9544 0.00298689 0)
(20.1975 0.00207265 0)
(19.6209 0.00147143 0)
(19.2099 0.00106919 0)
(18.9043 0.00081749 0)
(18.67 0.000644303 0)
(18.4884 0.000517909 0)
(18.3451 0.000424407 0)
(18.2303 0.000353439 0)
(18.137 0.000297829 0)
(18.0608 0.000253743 0)
(17.9975 0.000217982 0)
(17.945 0.000188823 0)
(17.9007 0.000164497 0)
(17.8636 0.000144027 0)
(17.832 0.000126982 0)
(17.8051 0.000112123 0)
(17.7821 9.98821e-05 0)
(17.7623 8.90615e-05 0)
(17.7453 7.96257e-05 0)
(17.7306 7.14856e-05 0)
(17.7178 6.45501e-05 0)
(17.7066 5.84889e-05 0)
(17.6969 5.29115e-05 0)
(17.6884 4.80903e-05 0)
(17.6809 4.36902e-05 0)
(17.6744 4.0041e-05 0)
(17.6685 3.66415e-05 0)
(17.6634 3.34795e-05 0)
(17.6589 3.08137e-05 0)
(17.6549 2.81056e-05 0)
(17.6514 2.57801e-05 0)
(17.6483 2.3801e-05 0)
(17.6455 2.18623e-05 0)
(17.643 1.98631e-05 0)
(17.6409 1.78952e-05 0)
(17.6391 1.57553e-05 0)
(17.6376 1.33111e-05 0)
(17.6364 1.06706e-05 0)
(17.6355 7.54651e-06 0)
(17.6351 3.92331e-06 0)
(17.6349 -4.02678e-07 0)
(17.6353 -5.7483e-06 0)
(17.6361 -1.21754e-05 0)
(17.6376 -1.99706e-05 0)
(17.6396 -2.96682e-05 0)
(17.6425 -4.12902e-05 0)
(17.6462 -5.56756e-05 0)
(17.651 -7.29371e-05 0)
(17.657 -9.37037e-05 0)
(17.6643 -0.000118812 0)
(17.6732 -0.00014822 0)
(17.6838 -0.000183681 0)
(17.6964 -0.00022546 0)
(17.7112 -0.000275121 0)
(17.7286 -0.000333386 0)
(17.7489 -0.000402177 0)
(17.7723 -0.000482776 0)
(17.7994 -0.00057765 0)
(17.8303 -0.000688669 0)
(17.866 -0.000822246 0)
(17.9 -0.000951029 0)
(17.9293 -0.00106444 0)
(17.9603 -0.00118395 0)
(17.993 -0.00132538 0)
(18.0277 -0.00147577 0)
(18.0643 -0.00164482 0)
(18.1028 -0.00182714 0)
(18.1436 -0.00203031 0)
(18.1861 -0.00225409 0)
(18.2316 -0.00250128 0)
(18.2782 -0.00279054 0)
(18.3295 -0.00308946 0)
(18.3801 -0.00348634 0)
(18.4391 -0.00384338 0)
(18.4929 -0.00443183 0)
(18.5633 -0.00485144 0)
(18.6181 -0.00579516 0)
(18.7079 -0.00626468 0)
(18.7587 -0.00791773 0)
(18.8844 -0.00840701 0)
(18.9218 -0.0112305 0)
(19.1171 -0.0139957 0)
(19.1401 -0.016317 0)
(19.4563 -0.0344376 0)
(19.5356 -0.108658 0)
(24.8384 0.00807124 0)
(23.5998 0.00930345 0)
(22.9823 0.00391208 0)
(22.2962 0.00291379 0)
(21.7233 0.00213667 0)
(21.2997 0.00157688 0)
(20.9783 0.00121734 0)
(20.7288 0.000965342 0)
(20.5339 0.000778937 0)
(20.3794 0.000640015 0)
(20.2551 0.00053406 0)
(20.1539 0.000450716 0)
(20.071 0.00038445 0)
(20.0021 0.000330595 0)
(19.9449 0.0002866 0)
(19.8966 0.000249877 0)
(19.856 0.000218923 0)
(19.8214 0.000193123 0)
(19.792 0.000170634 0)
(19.7668 0.000152047 0)
(19.7451 0.000135661 0)
(19.7265 0.000121351 0)
(19.7103 0.000108989 0)
(19.6963 9.84375e-05 0)
(19.684 8.92194e-05 0)
(19.6733 8.07601e-05 0)
(19.6639 7.34287e-05 0)
(19.6557 6.67507e-05 0)
(19.6485 6.11701e-05 0)
(19.6421 5.60061e-05 0)
(19.6364 5.11994e-05 0)
(19.6314 4.71198e-05 0)
(19.627 4.30197e-05 0)
(19.6231 3.94523e-05 0)
(19.6197 3.63925e-05 0)
(19.6166 3.34153e-05 0)
(19.6139 3.0353e-05 0)
(19.6116 2.73158e-05 0)
(19.6096 2.40231e-05 0)
(19.6079 2.0263e-05 0)
(19.6066 1.61739e-05 0)
(19.6056 1.13424e-05 0)
(19.6051 5.70326e-06 0)
(19.6049 -1.04055e-06 0)
(19.6053 -9.39503e-06 0)
(19.6062 -1.93882e-05 0)
(19.6077 -3.15261e-05 0)
(19.61 -4.67294e-05 0)
(19.6131 -6.49138e-05 0)
(19.6172 -8.73599e-05 0)
(19.6224 -0.000114363 0)
(19.6289 -0.000146813 0)
(19.6369 -0.000186026 0)
(19.6466 -0.00023208 0)
(19.6582 -0.00028746 0)
(19.672 -0.000352797 0)
(19.6882 -0.000430308 0)
(19.7072 -0.000521394 0)
(19.7293 -0.000628658 0)
(19.7548 -0.000754549 0)
(19.7843 -0.000902252 0)
(19.8181 -0.00107545 0)
(19.8569 -0.00128245 0)
(19.8938 -0.00148339 0)
(19.9258 -0.00166111 0)
(19.9595 -0.00184706 0)
(19.995 -0.00206488 0)
(20.0327 -0.00229854 0)
(20.0724 -0.00255872 0)
(20.1142 -0.00284142 0)
(20.1584 -0.00315249 0)
(20.2043 -0.00349974 0)
(20.2535 -0.0038747 0)
(20.3037 -0.00432346 0)
(20.3589 -0.00477164 0)
(20.4132 -0.00538766 0)
(20.4765 -0.00591145 0)
(20.534 -0.00682609 0)
(20.6092 -0.00741411 0)
(20.6674 -0.00888396 0)
(20.7625 -0.00948669 0)
(20.8161 -0.0120512 0)
(20.9475 -0.0126071 0)
(20.9868 -0.017083 0)
(21.1888 -0.0201511 0)
(21.2034 -0.0255017 0)
(21.5466 -0.0463073 0)
(21.5186 -0.125845 0)
(25.5606 0.00591175 0)
(24.9543 0.0102713 0)
(24.6383 0.00475024 0)
(24.0658 0.00385252 0)
(23.5217 0.00293815 0)
(23.0986 0.00220993 0)
(22.7688 0.00172552 0)
(22.5085 0.00137812 0)
(22.3032 0.001117 0)
(22.1392 0.000920604 0)
(22.0068 0.000769933 0)
(21.8987 0.000650893 0)
(21.8098 0.000555922 0)
(21.7358 0.000478569 0)
(21.6742 0.000415245 0)
(21.6221 0.000362345 0)
(21.5783 0.000317683 0)
(21.541 0.00028041 0)
(21.5092 0.000247925 0)
(21.4819 0.000220989 0)
(21.4584 0.000197297 0)
(21.4382 0.000176584 0)
(21.4207 0.000158664 0)
(21.4055 0.000143339 0)
(21.3921 0.000129956 0)
(21.3805 0.000117706 0)
(21.3703 0.000107061 0)
(21.3614 9.73817e-05 0)
(21.3535 8.92387e-05 0)
(21.3465 8.17483e-05 0)
(21.3404 7.47737e-05 0)
(21.335 6.88167e-05 0)
(21.3301 6.28884e-05 0)
(21.3259 5.76734e-05 0)
(21.3221 5.31688e-05 0)
(21.3188 4.88129e-05 0)
(21.3158 4.43462e-05 0)
(21.3133 3.98907e-05 0)
(21.3111 3.50777e-05 0)
(21.3092 2.95891e-05 0)
(21.3078 2.35926e-05 0)
(21.3067 1.65224e-05 0)
(21.3061 8.2313e-06 0)
(21.3059 -1.6873e-06 0)
(21.3062 -1.39949e-05 0)
(21.3072 -2.86853e-05 0)
(21.3088 -4.65e-05 0)
(21.3112 -6.89021e-05 0)
(21.3145 -9.57126e-05 0)
(21.3188 -0.000128733 0)
(21.3244 -0.000168499 0)
(21.3313 -0.000216252 0)
(21.3398 -0.000273924 0)
(21.3501 -0.000341788 0)
(21.3624 -0.000423222 0)
(21.3771 -0.000519378 0)
(21.3943 -0.000633261 0)
(21.4145 -0.000767229 0)
(21.4381 -0.000924684 0)
(21.4652 -0.00110967 0)
(21.4966 -0.00132616 0)
(21.5325 -0.00158035 0)
(21.5738 -0.0018824 0)
(21.613 -0.00217673 0)
(21.6469 -0.00243826 0)
(21.6826 -0.00271051 0)
(21.7203 -0.0030265 0)
(21.7601 -0.00336739 0)
(21.8022 -0.00374455 0)
(21.8463 -0.00415609 0)
(21.893 -0.00460487 0)
(21.9414 -0.00511011 0)
(21.9932 -0.00564693 0)
(22.0459 -0.00629822 0)
(22.1039 -0.00693415 0)
(22.1608 -0.00782565 0)
(22.2268 -0.00855785 0)
(22.2869 -0.00987703 0)
(22.3648 -0.0106745 0)
(22.4256 -0.0127885 0)
(22.5229 -0.0135544 0)
(22.5792 -0.0172202 0)
(22.712 -0.0178476 0)
(22.7536 -0.0243183 0)
(22.9555 -0.027491 0)
(22.9659 -0.037042 0)
(23.3182 -0.0583179 0)
(23.2341 -0.145718 0)
(26.1549 0.00237457 0)
(26.0338 0.0106916 0)
(26.0189 0.00536431 0)
(25.5966 0.00482399 0)
(25.1086 0.00386048 0)
(24.7015 0.00297362 0)
(24.3721 0.00235476 0)
(24.1064 0.00189733 0)
(23.8937 0.00154643 0)
(23.7224 0.00127936 0)
(23.5832 0.00107291 0)
(23.4689 0.00090891 0)
(23.3747 0.00077752 0)
(23.2961 0.000670206 0)
(23.2305 0.000582127 0)
(23.1749 0.000508465 0)
(23.1281 0.00044616 0)
(23.0881 0.000394084 0)
(23.0541 0.000348698 0)
(23.0249 0.000310938 0)
(22.9996 0.00027779 0)
(22.9779 0.00024878 0)
(22.959 0.000223646 0)
(22.9426 0.000202106 0)
(22.9283 0.000183304 0)
(22.9157 0.000166131 0)
(22.9048 0.000151171 0)
(22.8951 0.000137585 0)
(22.8866 0.000126088 0)
(22.8791 0.00011557 0)
(22.8724 0.000105775 0)
(22.8665 9.73575e-05 0)
(22.8613 8.90572e-05 0)
(22.8567 8.16874e-05 0)
(22.8526 7.52794e-05 0)
(22.849 6.91183e-05 0)
(22.8458 6.28226e-05 0)
(22.843 5.65144e-05 0)
(22.8406 4.97287e-05 0)
(22.8386 4.20079e-05 0)
(22.837 3.35472e-05 0)
(22.8358 2.35989e-05 0)
(22.835 1.18903e-05 0)
(22.8348 -2.1094e-06 0)
(22.8351 -1.94887e-05 0)
(22.836 -4.02411e-05 0)
(22.8377 -6.53334e-05 0)
(22.8401 -9.692e-05 0)
(22.8435 -0.000134796 0)
(22.848 -0.000181379 0)
(22.8538 -0.000237487 0)
(22.861 -0.00030483 0)
(22.8699 -0.000386106 0)
(22.8807 -0.000481881 0)
(22.8936 -0.000596616 0)
(22.9089 -0.000732152 0)
(22.927 -0.000892443 0)
(22.9481 -0.00108112 0)
(22.9727 -0.00130255 0)
(23.0011 -0.00156281 0)
(23.0339 -0.00186682 0)
(23.0714 -0.00222401 0)
(23.1145 -0.00264637 0)
(23.1553 -0.00305863 0)
(23.1906 -0.00342656 0)
(23.2278 -0.00380838 0)
(23.2671 -0.00424779 0)
(23.3085 -0.0047234 0)
(23.3522 -0.00524728 0)
(23.398 -0.00582013 0)
(23.4463 -0.00644092 0)
(23.4965 -0.00714306 0)
(23.55 -0.00788103 0)
(23.6046 -0.00878215 0)
(23.6642 -0.00965087 0)
(23.7229 -0.0108777 0)
(23.7904 -0.0118692 0)
(23.8523 -0.0136732 0)
(23.9312 -0.0147339 0)
(23.9941 -0.0176069 0)
(24.0916 -0.0185882 0)
(24.1503 -0.0235289 0)
(24.2814 -0.0242724 0)
(24.326 -0.0330339 0)
(24.5227 -0.0361941 0)
(24.5333 -0.0509322 0)
(24.8781 -0.0713213 0)
(24.7798 -0.166314 0)
(26.6705 -0.00276747 0)
(26.9222 0.0104463 0)
(27.1825 0.00560257 0)
(26.9349 0.0057304 0)
(26.5302 0.00486439 0)
(26.1572 0.00386101 0)
(25.8393 0.00311277 0)
(25.5745 0.00253649 0)
(25.3586 0.00208231 0)
(25.1825 0.00173108 0)
(25.0381 0.00145684 0)
(24.9189 0.0012374 0)
(24.82 0.00106065 0)
(24.7373 0.000915755 0)
(24.668 0.000796439 0)
(24.6093 0.000696487 0)
(24.5596 0.000611765 0)
(24.5172 0.000540813 0)
(24.4809 0.000478962 0)
(24.4498 0.000427325 0)
(24.4229 0.000382061 0)
(24.3996 0.000342409 0)
(24.3794 0.000308001 0)
(24.3619 0.000278445 0)
(24.3465 0.000252656 0)
(24.3331 0.00022915 0)
(24.3213 0.000208615 0)
(24.3109 0.000189987 0)
(24.3018 0.000174137 0)
(24.2936 0.000159711 0)
(24.2865 0.000146277 0)
(24.2801 0.000134663 0)
(24.2745 0.000123309 0)
(24.2695 0.000113147 0)
(24.2651 0.000104254 0)
(24.2612 9.575e-05 0)
(24.2577 8.70936e-05 0)
(24.2547 7.83881e-05 0)
(24.2521 6.90686e-05 0)
(24.2499 5.84981e-05 0)
(24.2481 4.68934e-05 0)
(24.2468 3.3294e-05 0)
(24.2459 1.72437e-05 0)
(24.2455 -1.92723e-06 0)
(24.2458 -2.57048e-05 0)
(24.2467 -5.41559e-05 0)
(24.2483 -8.84603e-05 0)
(24.2508 -0.000131577 0)
(24.2543 -0.000183407 0)
(24.2589 -0.000247096 0)
(24.2648 -0.000323782 0)
(24.2722 -0.000415801 0)
(24.2814 -0.000526765 0)
(24.2924 -0.000657679 0)
(24.3057 -0.000814286 0)
(24.3215 -0.00099931 0)
(24.3402 -0.00121785 0)
(24.362 -0.00147516 0)
(24.3873 -0.0017768 0)
(24.4166 -0.00213134 0)
(24.4504 -0.00254488 0)
(24.489 -0.00303082 0)
(24.5333 -0.00360321 0)
(24.5753 -0.0041618 0)
(24.6115 -0.0046624 0)
(24.6498 -0.00518102 0)
(24.69 -0.00577332 0)
(24.7325 -0.00641533 0)
(24.7773 -0.00712048 0)
(24.8241 -0.00789175 0)
(24.8735 -0.0087245 0)
(24.9248 -0.00966742 0)
(24.9793 -0.0106524 0)
(25.035 -0.0118557 0)
(25.0954 -0.0130101 0)
(25.1552 -0.0146371 0)
(25.2232 -0.0159489 0)
(25.2863 -0.0183216 0)
(25.3651 -0.0197153 0)
(25.4293 -0.0234596 0)
(25.5256 -0.0247386 0)
(25.5863 -0.0311056 0)
(25.7137 -0.0320668 0)
(25.7615 -0.0433604 0)
(25.95 -0.0465098 0)
(25.9638 -0.0671278 0)
(26.2901 -0.0861911 0)
(26.1982 -0.186985 0)
(27.1361 -0.00979411 0)
(27.6771 0.0094062 0)
(28.1731 0.00530538 0)
(28.1087 0.00644136 0)
(27.811 0.00587797 0)
(27.4915 0.00484383 0)
(27.198 0.00399582 0)
(26.9426 0.00330393 0)
(26.7286 0.00273804 0)
(26.551 0.00229081 0)
(26.4037 0.00193678 0)
(26.2809 0.00165073 0)
(26.1785 0.00141865 0)
(26.0923 0.00122745 0)
(26.0199 0.00106933 0)
(25.9582 0.000936535 0)
(25.9059 0.000823679 0)
(25.8612 0.000728924 0)
(25.8228 0.00064628 0)
(25.7898 0.000577021 0)
(25.7613 0.000516362 0)
(25.7366 0.000463176 0)
(25.7151 0.000416944 0)
(25.6964 0.000377126 0)
(25.68 0.000342391 0)
(25.6657 0.000310794 0)
(25.653 0.000283106 0)
(25.6419 0.000258008 0)
(25.6321 0.000236543 0)
(25.6234 0.000217102 0)
(25.6158 0.000199001 0)
(25.6089 0.000183259 0)
(25.6029 0.000167993 0)
(25.5975 0.000154236 0)
(25.5927 0.000142122 0)
(25.5885 0.000130594 0)
(25.5847 0.000118908 0)
(25.5814 0.00010712 0)
(25.5786 9.45681e-05 0)
(25.5762 8.0389e-05 0)
(25.5742 6.48102e-05 0)
(25.5727 4.66225e-05 0)
(25.5717 2.51147e-05 0)
(25.5713 -5.39901e-07 0)
(25.5714 -3.22904e-05 0)
(25.5722 -7.03835e-05 0)
(25.5738 -0.000116233 0)
(25.5763 -0.00017367 0)
(25.5798 -0.000242863 0)
(25.5844 -0.000327842 0)
(25.5904 -0.00043011 0)
(25.5979 -0.000552826 0)
(25.6072 -0.000700648 0)
(25.6184 -0.000875249 0)
(25.632 -0.00108383 0)
(25.6481 -0.00133025 0)
(25.667 -0.00162099 0)
(25.6892 -0.00196327 0)
(25.715 -0.00236426 0)
(25.7448 -0.00283532 0)
(25.7792 -0.00338423 0)
(25.8185 -0.004029 0)
(25.8636 -0.0047863 0)
(25.9063 -0.00552418 0)
(25.943 -0.00618792 0)
(25.9818 -0.00687512 0)
(26.0227 -0.00765461 0)
(26.0658 -0.0084997 0)
(26.111 -0.00942599 0)
(26.1585 -0.0104384 0)
(26.2084 -0.0115291 0)
(26.2602 -0.0127629 0)
(26.3151 -0.014048 0)
(26.3712 -0.0156124 0)
(26.4318 -0.0171141 0)
(26.492 -0.0192126 0)
(26.5598 -0.0209177 0)
(26.6234 -0.0239474 0)
(26.7014 -0.0257628 0)
(26.7663 -0.0304865 0)
(26.8603 -0.0321811 0)
(26.9225 -0.0401026 0)
(27.045 -0.0414453 0)
(27.0958 -0.0554658 0)
(27.2745 -0.0587419 0)
(27.2927 -0.0855767 0)
(27.595 -0.103564 0)
(27.5158 -0.20778 0)
(27.5708 -0.0190464 0)
(28.3393 0.00742391 0)
(29.0275 0.00430833 0)
(29.1397 0.00679985 0)
(28.9649 0.0067911 0)
(28.7176 0.00586213 0)
(28.463 0.00497933 0)
(28.2272 0.00419582 0)
(28.0219 0.00352065 0)
(27.8474 0.00297076 0)
(27.7 0.00252706 0)
(27.5758 0.00216373 0)
(27.4711 0.00186603 0)
(27.3825 0.00161908 0)
(27.3075 0.00141365 0)
(27.2434 0.00124051 0)
(27.1889 0.00109286 0)
(27.142 0.000968477 0)
(27.1018 0.000859877 0)
(27.0671 0.00076848 0)
(27.0369 0.000688445 0)
(27.0108 0.000618195 0)
(26.9881 0.000557019 0)
(26.9682 0.000504164 0)
(26.9508 0.000458054 0)
(26.9355 0.000416189 0)
(26.9221 0.000379383 0)
(26.9102 0.00034603 0)
(26.8998 0.000317366 0)
(26.8905 0.000291519 0)
(26.8822 0.000267466 0)
(26.8749 0.000246421 0)
(26.8684 0.000226167 0)
(26.8626 0.000207808 0)
(26.8575 0.00019154 0)
(26.8529 0.000176128 0)
(26.8489 0.000160574 0)
(26.8453 0.000144842 0)
(26.8422 0.000128187 0)
(26.8396 0.000109469 0)
(26.8374 8.89037e-05 0)
(26.8357 6.49926e-05 0)
(26.8346 3.66836e-05 0)
(26.834 2.97068e-06 0)
(26.834 -3.86188e-05 0)
(26.8347 -8.86409e-05 0)
(26.8362 -0.000148818 0)
(26.8386 -0.000223897 0)
(26.842 -0.00031448 0)
(26.8466 -0.000425646 0)
(26.8525 -0.000559368 0)
(26.8601 -0.000719869 0)
(26.8694 -0.000912949 0)
(26.8807 -0.00114129 0)
(26.8943 -0.00141368 0)
(26.9105 -0.00173544 0)
(26.9296 -0.00211473 0)
(26.952 -0.0025611 0)
(26.978 -0.00308375 0)
(27.008 -0.00369734 0)
(27.0427 -0.00441171 0)
(27.0822 -0.00525034 0)
(27.1276 -0.00623323 0)
(27.1705 -0.00718872 0)
(27.2074 -0.00805061 0)
(27.2465 -0.00894333 0)
(27.2874 -0.0099496 0)
(27.3307 -0.0110403 0)
(27.3761 -0.0122336 0)
(27.4236 -0.0135363 0)
(27.4735 -0.0149381 0)
(27.5253 -0.0165196 0)
(27.5801 -0.0181661 0)
(27.6362 -0.020158 0)
(27.6964 -0.0220788 0)
(27.7565 -0.0247274 0)
(27.8235 -0.026912 0)
(27.887 -0.0306916 0)
(27.9634 -0.0330392 0)
(28.0285 -0.0388468 0)
(28.1196 -0.0411135 0)
(28.1828 -0.0506986 0)
(28.2998 -0.0526505 0)
(28.3529 -0.0695356 0)
(28.5211 -0.0732343 0)
(28.5439 -0.106223 0)
(28.8199 -0.123846 0)
(28.7536 -0.228977 0)
(27.9885 -0.0309282 0)
(28.9381 0.00432744 0)
(29.7778 0.00244175 0)
(30.0485 0.00663188 0)
(30.0023 0.00745676 0)
(29.8421 0.00681614 0)
(29.6413 0.00600704 0)
(29.4366 0.00518663 0)
(29.2484 0.0044235 0)
(29.0827 0.00377501 0)
(28.9395 0.00323755 0)
(28.8165 0.00278915 0)
(28.7117 0.00241672 0)
(28.622 0.00210476 0)
(28.5454 0.00184322 0)
(28.4797 0.00162162 0)
(28.4234 0.00143177 0)
(28.3748 0.00127112 0)
(28.3329 0.00113061 0)
(28.2967 0.00101178 0)
(28.2651 0.000907643 0)
(28.2377 0.000816113 0)
(28.2138 0.00073624 0)
(28.1928 0.000666985 0)
(28.1744 0.000606527 0)
(28.1582 0.000551737 0)
(28.144 0.000503397 0)
(28.1314 0.00045958 0)
(28.1202 0.000421748 0)
(28.1103 0.000387764 0)
(28.1015 0.000356162 0)
(28.0937 0.000328346 0)
(28.0867 0.000301768 0)
(28.0805 0.000277552 0)
(28.075 0.00025596 0)
(28.07 0.000235579 0)
(28.0657 0.000215106 0)
(28.0618 0.000194353 0)
(28.0585 0.000172514 0)
(28.0556 0.000148119 0)
(28.0532 0.000121336 0)
(28.0513 9.03261e-05 0)
(28.05 5.36044e-05 0)
(28.0492 9.95372e-06 0)
(28.049 -4.368e-05 0)
(28.0496 -0.000108303 0)
(28.0509 -0.000186096 0)
(28.0532 -0.000282742 0)
(28.0565 -0.000399461 0)
(28.061 -0.000542535 0)
(28.0669 -0.000714556 0)
(28.0743 -0.000921125 0)
(28.0836 -0.00116924 0)
(28.0948 -0.00146306 0)
(28.1084 -0.00181304 0)
(28.1245 -0.00222638 0)
(28.1436 -0.00271322 0)
(28.1659 -0.00328593 0)
(28.1919 -0.00395618 0)
(28.2218 -0.0047425 0)
(28.2565 -0.00565718 0)
(28.2959 -0.00673028 0)
(28.3412 -0.00798592 0)
(28.3839 -0.0092034 0)
(28.4207 -0.0103035 0)
(28.4595 -0.0114446 0)
(28.5004 -0.0127232 0)
(28.5434 -0.0141085 0)
(28.5885 -0.0156215 0)
(28.6357 -0.0172709 0)
(28.6852 -0.0190443 0)
(28.7366 -0.0210388 0)
(28.7908 -0.0231169 0)
(28.8463 -0.0256121 0)
(28.9058 -0.0280342 0)
(28.9653 -0.0313208 0)
(29.0311 -0.0340863 0)
(29.0939 -0.0387136 0)
(29.1684 -0.04173 0)
(29.2332 -0.0487206 0)
(29.321 -0.0517573 0)
(29.3845 -0.0630953 0)
(29.4957 -0.0659535 0)
(29.5504 -0.0857538 0)
(29.7077 -0.0903785 0)
(29.7349 -0.128981 0)
(29.984 -0.147328 0)
(29.9288 -0.25073 0)
(28.4003 -0.0459024 0)
(29.4954 -8.70694e-05 0)
(30.4512 -0.000473271 0)
(30.8565 0.0057551 0)
(30.9344 0.0076993 0)
(30.8698 0.00756409 0)
(30.7354 0.00698162 0)
(30.5737 0.00621783 0)
(30.4123 0.00541604 0)
(30.2627 0.00469139 0)
(30.1288 0.00406751 0)
(30.011 0.00353306 0)
(29.9087 0.00308066 0)
(29.82 0.00269654 0)
(29.7434 0.00237099 0)
(29.6771 0.00209305 0)
(29.6198 0.00185343 0)
(29.5702 0.00164945 0)
(29.5271 0.00147051 0)
(29.4896 0.00131832 0)
(29.4569 0.0011847 0)
(29.4284 0.00106702 0)
(29.4034 0.000964086 0)
(29.3815 0.000874458 0)
(29.3622 0.000796101 0)
(29.3451 0.000725213 0)
(29.3301 0.000662427 0)
(29.3167 0.000605468 0)
(29.3049 0.000556065 0)
(29.2944 0.000511817 0)
(29.2851 0.000470713 0)
(29.2767 0.000434316 0)
(29.2693 0.000399768 0)
(29.2626 0.000368154 0)
(29.2567 0.000339785 0)
(29.2514 0.000313077 0)
(29.2467 0.000286379 0)
(29.2425 0.000259267 0)
(29.2389 0.000230916 0)
(29.2358 0.000199459 0)
(29.2331 0.000164964 0)
(29.231 0.000125192 0)
(29.2295 7.8136e-05 0)
(29.2285 2.23193e-05 0)
(29.2281 -4.59557e-05 0)
(29.2285 -0.000128286 0)
(29.2297 -0.000227554 0)
(29.2318 -0.00035038 0)