/*--------------------------------*- C++ -*----------------------------------*\
| =========                 |                                                 |
| \\      /  F ield         | OpenFOAM: The Open Source CFD Toolbox           |
|  \\    /   O peration     | Version:  2306                                  |
|   \\  /    A nd           | Website:  www.openfoam.com                      |
|    \\/     M anipulation  |                                                 |
\*---------------------------------------------------------------------------*/
FoamFile
{
    version     2.0;
    format      ascii;
    arch        "LSB;label=32;scalar=64";
    class       volVectorField;
    location    "2000";
    object      wallShearStress;
}
// * * * * * * * * * * * * * * * * * * * * * * * * * * * * * * * * * * * * * //

dimensions      [0 2 -2 0 0 0 0];

internalField   uniform (0 0 0);

boundaryField
{
    inlet
    {
        type            calculated;
        value           uniform (0 0 0);
    }
    outlet
    {
        type            calculated;
        value           uniform (0 0 0);
    }
    lowerWallStartup
    {
        type            symmetryPlane;
    }
    upperWallStartup
    {
        type            symmetryPlane;
    }
    upperWall
    {
        type            calculated;
        value           nonuniform List<vector> 
218
(
(-10.9117 0.00584126 0)
(-6.14024 0.00113989 0)
(-5.33484 0.000235026 0)
(-4.89542 0.00012843 0)
(-4.62651 7.94496e-05 0)
(-4.45299 5.34353e-05 0)
(-4.3325 3.85761e-05 0)
(-4.24443 2.9224e-05 0)
(-4.17814 2.2879e-05 0)
(-4.12696 1.83764e-05 0)
(-4.08659 1.50586e-05 0)
(-4.05428 1.25329e-05 0)
(-4.02805 1.05585e-05 0)
(-4.0066 8.99933e-06 0)
(-3.98878 7.72388e-06 0)
(-3.97405 6.67129e-06 0)
(-3.96162 5.80325e-06 0)
(-3.95124 5.08291e-06 0)
(-3.94233 4.47531e-06 0)
(-3.93486 3.93549e-06 0)
(-3.92842 3.50398e-06 0)
(-3.92292 3.11499e-06 0)
(-3.91816 2.78258e-06 0)
(-3.91409 2.48086e-06 0)
(-3.91056 2.23541e-06 0)
(-3.90749 2.02186e-06 0)
(-3.9048 1.82984e-06 0)
(-3.90245 1.65844e-06 0)
(-3.90041 1.49732e-06 0)
(-3.89861 1.37172e-06 0)
(-3.89704 1.24114e-06 0)
(-3.89564 1.15144e-06 0)
(-3.89441 1.04871e-06 0)
(-3.8933 9.87881e-07 0)
(-3.89233 8.97562e-07 0)
(-3.89143 8.65746e-07 0)
(-3.89064 7.92852e-07 0)
(-3.88989 7.91246e-07 0)
(-3.88921 7.23626e-07 0)
(-3.88857 7.56428e-07 0)
(-3.88794 7.28457e-07 0)
(-3.88733 7.84938e-07 0)
(-3.88669 8.06976e-07 0)
(-3.88603 9.02169e-07 0)
(-3.88531 9.68542e-07 0)
(-3.88454 1.1139e-06 0)
(-3.88367 1.27944e-06 0)
(-3.88268 1.51043e-06 0)
(-3.88153 1.79416e-06 0)
(-3.88021 2.12626e-06 0)
(-3.87866 2.59873e-06 0)
(-3.87685 3.08754e-06 0)
(-3.87473 3.77084e-06 0)
(-3.8723 4.4448e-06 0)
(-3.86946 5.39661e-06 0)
(-3.86622 6.30497e-06 0)
(-3.86249 7.5072e-06 0)
(-3.8583 8.74522e-06 0)
(-3.85353 1.01848e-05 0)
(-3.84824 1.179e-05 0)
(-3.8423 1.35126e-05 0)
(-3.83582 1.54904e-05 0)
(-3.82858 1.75639e-05 0)
(-3.82211 1.95414e-05 0)
(-3.81675 2.08732e-05 0)
(-3.81137 2.26236e-05 0)
(-3.80581 2.43133e-05 0)
(-3.80022 2.57982e-05 0)
(-3.79455 2.74659e-05 0)
(-3.78888 2.88663e-05 0)
(-3.78317 3.06382e-05 0)
(-3.77751 3.19296e-05 0)
(-3.77185 3.36964e-05 0)
(-3.76627 3.49864e-05 0)
(-3.76072 3.66418e-05 0)
(-3.7553 3.79145e-05 0)
(-3.74992 3.96807e-05 0)
(-3.74466 4.05159e-05 0)
(-3.73955 4.26437e-05 0)
(-3.73447 4.32313e-05 0)
(-3.72958 4.57011e-05 0)
(-3.72482 4.53015e-05 0)
(-3.72006 4.86935e-05 0)
(-3.71585 4.68753e-05 0)
(-3.71087 5.12671e-05 0)
(-3.70788 5.10111e-05 0)
(-3.70136 5.0902e-05 0)
(-3.70164 9.84867e-05 0)
(-3.69361 0.000129213 -1.55279e-20)
(-3.68848 0.000136391 0)
(-3.68268 0.00013814 1.54201e-20)
(-3.67903 0.000144765 -1.53656e-20)
(-3.67252 0.00014291 0)
(-3.66889 0.000141733 -1.52544e-20)
(-3.66243 0.000141256 0)
(-3.6588 0.000142055 0)
(-3.65217 0.000141691 0)
(-3.64851 0.000141931 0)
(-3.64175 0.000141566 1.49551e-20)
(-3.63805 0.000142181 0)
(-3.63115 0.000141297 -1.48259e-20)
(-3.62739 0.000142174 0)
(-3.62036 0.000141027 -1.46916e-20)
(-3.61655 0.000141813 1.4621e-20)
(-3.60938 0.000140708 0)
(-3.60551 0.000141081 1.4479e-20)
(-3.59824 0.000140482 0)
(-3.59433 0.000140243 -1.43317e-20)
(-3.58695 0.000140316 0)
(-3.58298 0.000139867 0)
(-3.57548 0.000140098 0)
(-3.57145 0.000139423 0)
(-3.56384 0.00013963 0)
(-3.55976 0.000138754 0)
(-3.55207 0.000138918 0)
(-3.54793 0.000138665 1.36926e-20)
(-3.54014 0.000137992 -1.36086e-20)
(-3.53596 0.00013811 1.35206e-20)
(-3.52807 0.000137295 -1.34343e-20)
(-3.52385 0.000137155 0)
(-3.5159 0.000136304 -1.32554e-20)
(-3.51166 0.000136133 0)
(-3.50364 0.000135367 -1.3072e-20)
(-3.49937 0.000135015 0)
(-3.4913 0.000134729 0)
(-3.48702 0.000133505 -1.27875e-20)
(-3.4789 0.000133753 0)
(-3.47461 0.000132312 -1.25936e-20)
(-3.46645 0.000132652 0)
(-3.46216 0.000131183 -1.23957e-20)
(-3.45396 0.000131672 0)
(-3.44967 0.000130137 -1.21942e-20)
(-3.44144 0.000130455 0)
(-3.43716 0.000129468 0)
(-3.4289 0.000128897 -1.18866e-20)
(-3.42463 0.000128288 0)
(-3.41637 0.000127556 -1.16767e-20)
(-3.41212 0.000126839 0)
(-3.40386 0.000125939 -1.14638e-20)
(-3.39965 0.000125243 0)
(-3.3914 0.00012434 -1.12481e-20)
(-3.38723 0.000123487 0)
(-3.37899 0.000123145 0)
(-3.37487 0.000121456 -1.09188e-20)
(-3.36664 0.000121644 0)
(-3.36257 0.000119758 -1.06973e-20)
(-3.35437 0.000119909 0)
(-3.35037 0.000117999 -1.0474e-20)
(-3.34221 0.000118234 0)
(-3.33828 0.00011639 0)
(-3.33016 0.000116493 -1.01371e-20)
(-3.3263 0.000115242 -1.00227e-20)
(-3.31824 0.000114402 0)
(-3.31446 0.000113613 -9.79535e-21)
(-3.30644 0.000112659 0)
(-3.30275 0.000111778 -9.56715e-21)
(-3.2948 0.000110725 0)
(-3.2912 0.000109893 -9.33838e-21)
(-3.28332 0.000108873 0)
(-3.27983 0.000107834 -9.10927e-21)
(-3.27204 0.00010735 -8.99566e-21)
(-3.26865 0.000105476 0)
(-3.26094 0.00010553 -8.76655e-21)
(-3.25766 0.000103611 0)
(-3.25002 0.000103671 -8.53777e-21)
(-3.24685 0.000101754 0)
(-3.23931 0.000101713 0)
(-3.23625 0.000100247 -8.1948e-21)
(-3.2288 9.9314e-05 8.0821e-21)
(-3.22586 9.83454e-05 -7.9679e-21)
(-3.21852 9.73292e-05 7.85571e-21)
(-3.2157 9.63476e-05 0)
(-3.20847 9.53673e-05 0)
(-3.20577 9.43397e-05 0)
(-3.19865 9.32855e-05 7.40685e-21)
(-3.19607 9.22441e-05 0)
(-3.18906 9.18647e-05 0)
(-3.18663 8.97437e-05 0)
(-3.1797 9.01501e-05 0)
(-3.17744 8.76041e-05 0)
(-3.17054 8.85225e-05 0)
(-3.16855 8.49101e-05 0)
(-3.16156 8.77115e-05 -6.53086e-21)
(-3.16002 8.50198e-05 6.42194e-21)
(-3.15205 6.41989e-05 0)
(-3.15124 6.1775e-05 0)
(-3.14856 6.10177e-05 -1.61928e-21)
(-3.14482 5.73037e-05 1.38809e-21)
(-3.14074 5.70352e-05 2.37294e-21)
(-3.13607 5.82168e-05 2.02148e-21)
(-3.13072 5.84923e-05 3.43054e-21)
(-3.12473 5.89049e-05 2.89737e-21)
(-3.11803 6.01466e-05 2.43366e-21)
(-3.11063 6.14877e-05 0)
(-3.10245 6.30258e-05 3.36305e-21)
(-3.09358 6.63486e-05 0)
(-3.08396 6.92536e-05 -4.47365e-21)
(-3.07385 7.46904e-05 0)
(-3.06309 7.99078e-05 0)
(-3.05214 8.70156e-05 0)
(-3.04119 9.59074e-05 0)
(-3.03028 0.000106537 0)
(-3.02037 0.000116581 0)
(-3.0113 0.000128345 3.92834e-21)
(-3.00378 0.000138063 0)
(-2.99796 0.000146211 -1.43844e-21)
(-2.99481 0.000149152 -5.20959e-22)
(-2.9928 0.000149367 1.74998e-21)
(-2.9949 0.000134777 0)
(-2.99632 0.000121412 5.47378e-21)
(-3.00341 7.23636e-05 0)
(-3.00636 5.89903e-05 0)
(-3.01975 -8.84239e-05 0)
(-3.02039 -2.49598e-05 0)
(-3.04631 -0.000557376 0)
(-3.03537 4.99836e-05 0)
(-3.11223 -0.00287596 -2.89602e-20)
(-2.88926 -0.000922355 0)
)
;
    }
    lowerWall
    {
        type            calculated;
        value           nonuniform List<vector> 
266
(
(-11.0351 -0.00584998 0)
(-6.18583 -0.00121015 0)
(-5.37221 -0.000247311 0)
(-4.93228 -0.000134681 0)
(-4.66177 -8.37856e-05 0)
(-4.48609 -5.67369e-05 0)
(-4.36331 -4.12186e-05 0)
(-4.27306 -3.13841e-05 0)
(-4.20484 -2.46651e-05 0)
(-4.15197 -1.98705e-05 0)
(-4.11021 -1.63275e-05 0)
(-4.07663 -1.36155e-05 0)
(-4.04941 -1.15042e-05 0)
(-4.02697 -9.81359e-06 0)
(-4.00847 -8.45157e-06 0)
(-3.99291 -7.32135e-06 0)
(-3.97997 -6.38169e-06 0)
(-3.96894 -5.60409e-06 0)
(-3.95965 -4.92715e-06 0)
(-3.9517 -4.3807e-06 0)
(-3.94487 -3.88952e-06 0)
(-3.93903 -3.46566e-06 0)
(-3.93398 -3.10438e-06 0)
(-3.92962 -2.79636e-06 0)
(-3.9258 -2.53183e-06 0)
(-3.92249 -2.28339e-06 0)
(-3.91959 -2.07003e-06 0)
(-3.91706 -1.87209e-06 0)
(-3.91485 -1.714e-06 0)
(-3.91287 -1.56685e-06 0)
(-3.91116 -1.42894e-06 0)
(-3.90963 -1.31619e-06 0)
(-3.90829 -1.19541e-06 0)
(-3.90711 -1.09834e-06 0)
(-3.90606 -1.02122e-06 0)
(-3.90512 -9.45101e-07 0)
(-3.90429 -8.6601e-07 0)
(-3.90357 -7.92153e-07 0)
(-3.90294 -7.11839e-07 0)
(-3.90241 -6.22454e-07 0)
(-3.90198 -5.32643e-07 0)
(-3.90165 -4.29088e-07 0)
(-3.90143 -3.1636e-07 0)
(-3.90131 -1.85409e-07 0)
(-3.90132 -2.84917e-08 0)
(-3.90147 1.76221e-07 0)
(-3.90179 4.04029e-07 0)
(-3.90227 6.69777e-07 0)
(-3.90296 1.00389e-06 0)
(-3.90388 1.42875e-06 0)
(-3.9051 1.91448e-06 0)
(-3.9066 2.5119e-06 0)
(-3.90848 3.24158e-06 0)
(-3.91076 4.04307e-06 0)
(-3.9135 5.0815e-06 0)
(-3.91678 6.23015e-06 0)
(-3.92063 7.6596e-06 0)
(-3.92518 9.27687e-06 0)
(-3.93045 1.13342e-05 0)
(-3.9366 1.36177e-05 0)
(-3.94365 1.65512e-05 0)
(-3.9518 1.9782e-05 0)
(-3.96112 2.42038e-05 0)
(-3.97014 2.77238e-05 0)
(-3.97785 3.12781e-05 0)
(-3.98603 3.47748e-05 0)
(-3.99456 4.01609e-05 0)
(-4.00376 4.45245e-05 0)
(-4.01331 5.12528e-05 0)
(-4.02353 5.64191e-05 0)
(-4.03418 6.48402e-05 0)
(-4.04548 7.08349e-05 0)
(-4.05733 8.16811e-05 0)
(-4.06987 8.91307e-05 0)
(-4.08316 0.000103408 0)
(-4.09705 0.000113117 0)
(-4.11218 0.000134039 0)
(-4.12736 0.000146827 0)
(-4.14499 0.000182931 0)
(-4.16132 0.000196694 0)
(-4.18319 0.000263521 0)
(-4.19992 0.000268305 0)
(-4.23186 0.000378894 0)
(-4.24366 0.000325933 0)
(-4.29849 0.000739789 0)
(-4.31881 0.000298898 0)
(-4.39632 0.00124871 0)
(-4.3379 0.0660189 0)
(1139.82 -33198.7 0)
(-0.00860688 -0.00120836 0)
(-0.00736839 -4.63685e-05 1.18132e-23)
(-0.00547109 0.000531021 -9.94867e-24)
(-0.00348095 0.000749456 -0)
(-0.00417192 0.000925006 0)
(-0.00438373 0.00108816 0)
(-0.0041979 0.00122048 0)
(-0.00397904 0.00132145 0)
(-0.00379382 0.00140287 -1.62307e-22)
(-0.00358554 0.00147256 1.73859e-22)
(-0.00332169 0.00153234 -3.78771e-22)
(-0.00300036 0.00158161 4.55941e-22)
(-0.0026287 0.00161927 -0)
(-0.00221563 0.00164396 1.46728e-21)
(-0.00177294 0.0016542 -2.01252e-21)
(-0.00131548 0.00164887 -0)
(-0.000856177 0.00162722 0)
(-0.000392196 0.00158558 -0)
(0.00011973 0.00150331 4.07685e-20)
(0.000792848 0.00130242 -6.82055e-20)
(0.0018279 0.000775539 2.40926e-19)
(0.00347967 -0.000592301 -4.53345e-19)
(0.00569788 -0.0038413 0)
(0.00751706 -0.00898194 2.52301e-18)
(0.00889165 -0.0137195 -2.05899e-18)
(0.00970307 -0.0185828 0)
(0.00999621 -0.0227837 0)
(0.00924854 -0.0263263 0)
(0.00730413 -0.0293888 0)
(0.00399418 -0.0316186 0)
(-0.000505773 -0.0329566 0)
(-0.00617042 -0.0330012 -1.47066e-18)
(-0.0115255 -0.0292942 -6.05282e-23)
(-0.0137432 -0.0271257 1.5381e-18)
(-0.0165079 -0.0286909 0)
(-0.0207475 -0.0301866 0)
(-0.0261556 -0.0300603 0)
(-0.0308979 -0.0275656 0)
(-0.0331275 -0.0228038 -0)
(-0.0337935 -0.0189578 2.68449e-19)
(-0.0345663 -0.0187301 -1.73054e-19)
(-0.0354003 -0.0284609 -0)
(-0.0402883 -0.0767512 0)
(-0.0630142 -0.246421 0)
(-0.120641 -0.510697 -8.2929e-20)
(-0.194192 -0.750759 8.22552e-20)
(-0.266484 -0.976325 0)
(-0.268317 -0.0466445 0)
(0.0379274 0.000983982 -1.10966e-22)
(-0.0181763 0.000749883 0)
(0.00108637 -3.86983e-05 -4.45176e-22)
(-0.00856263 -3.50698e-05 -0)
(-0.0128321 2.13861e-05 0)
(-0.00667998 7.05205e-05 0)
(0.00293251 7.86557e-05 0)
(0.0132446 9.35563e-05 0)
(0.0254112 0.000113113 -3.46895e-22)
(0.039791 0.000134398 0)
(0.0563688 0.000143957 0)
(0.0197373 4.41108e-05 0)
(0.0976836 0.00018133 0)
(0.119864 -0.00125601 0)
(3.01668 -0.0443008 0)
(0.177664 -0.000846096 0)
(0.209856 -0.000176475 0)
(0.246787 -0.000201756 0)
(0.28833 -0.000228555 0)
(0.334633 -0.000259294 2.38298e-22)
(0.386115 -0.000288356 0)
(0.442518 -0.000314766 2.38518e-22)
(0.503876 -0.000338087 0)
(0.570184 -0.000364191 2.38728e-22)
(0.641544 -0.000392403 0)
(0.717885 -0.000424722 2.38808e-22)
(0.798923 -0.000456228 0)
(0.884121 -0.000485705 0)
(0.972814 -0.000509496 0)
(1.06432 -0.000529982 2.37785e-22)
(1.15797 -0.000546571 2.37118e-22)
(1.25316 -0.000562431 2.36238e-22)
(1.34924 -0.000576546 2.35123e-22)
(1.44551 -0.000589323 2.33751e-22)
(1.54121 -0.00059906 0)
(1.63558 -0.00060582 0)
(1.72786 -0.000608997 2.27906e-22)
(1.81732 -0.000610078 2.25331e-22)
(1.90331 -0.000608862 2.22426e-22)
(1.98516 -0.0006061 2.19185e-22)
(2.06212 -0.000599226 2.1561e-22)
(2.13314 -0.000588463 2.11704e-22)
(2.19751 -0.000576691 0)
(2.25546 -0.000564335 2.02919e-22)
(2.30648 -0.000548191 1.98057e-22)
(2.35024 -0.000529362 1.92903e-22)
(2.38645 -0.00050853 1.87475e-22)
(2.41493 -0.000486279 1.81796e-22)
(2.43551 -0.00046425 1.75887e-22)
(2.44807 -0.000441854 0)
(2.45251 -0.000420884 1.63465e-22)
(2.4487 -0.000399511 1.56994e-22)
(2.43652 -0.000378929 1.50376e-22)
(2.41585 -0.000356967 1.43633e-22)
(2.38656 -0.000333589 1.36783e-22)
(2.34849 -0.000307276 1.29852e-22)
(2.30155 -0.000277567 0)
(2.24561 -0.00024334 1.15836e-22)
(2.18057 -0.000203952 0)
(2.10636 -0.000158971 0)
(2.02292 -0.000107577 0)
(1.93023 -4.92295e-05 -8.79409e-23)
(1.82815 1.70139e-05 -0)
(1.71679 9.28467e-05 0)
(1.59555 0.000180632 0)
(1.46485 0.00028109 0)
(1.32312 0.000399952 0)
(1.17214 0.000539063 0)
(1.0058 0.000719297 -4.3759e-23)
(0.829416 0.00432487 -0)
(0.803168 0.00811817 0)
(0.566555 -0.00642114 0)
(4.52573 -0.108242 -7.36176e-22)
(0.0495297 -0.00389763 -0)
(-0.186744 0.00134737 0)
(-0.377542 0.0012245 0)
(-0.558014 0.00102781 0)
(-0.726277 0.000857688 0)
(-0.884542 0.000713759 0)
(-1.03276 0.000592874 -2.55353e-25)
(-1.17221 0.000492631 -0)
(-1.30313 0.000409442 -0)
(-1.42654 0.000341763 8.28769e-24)
(-1.54247 0.000285593 -0)
(-1.6521 0.000241124 1.33476e-23)
(-1.75478 0.000202762 0)
(-1.85255 0.000175286 0)
(-1.94322 0.000146918 -1.98647e-23)
(-2.03101 0.000133481 -0)
(-2.11022 0.000106909 2.35033e-23)
(-2.19024 0.000109712 0)
(-2.25754 7.34437e-05 -0)
(-2.33294 0.00010163 0)
(-2.38617 3.98675e-05 0)
(-2.46176 0.000100892 -0)
(-2.49867 5.81098e-06 3.11185e-23)
(-2.54986 0.00021059 0)
(-2.60849 8.18526e-05 -0)
(-2.64753 0.000134553 4.02357e-21)
(-2.70679 9.38223e-05 7.12443e-21)
(-2.75769 9.30782e-05 0)
(-2.81761 7.74629e-05 0)
(-2.87536 6.86794e-05 0)
(-2.93602 5.84871e-05 -0)
(-2.99485 5.0404e-05 0)
(-3.05234 4.42232e-05 -1.36939e-20)
(-3.1055 4.0749e-05 0)
(-3.15349 4.06512e-05 -2.05352e-20)
(-3.19347 4.45644e-05 1.75465e-20)
(-3.22528 5.24163e-05 0)
(-3.24564 6.44441e-05 0)
(-3.25702 7.90739e-05 -0)
(-3.25481 9.58346e-05 3.34811e-20)
(-3.24641 0.000112239 -2.70232e-20)
(-3.22413 0.000127288 0)
(-3.20318 0.000139716 3.39857e-20)
(-3.16903 0.00014774 0)
(-3.14807 0.000155783 4.14722e-20)
(-3.11346 0.000156395 0)
(-3.10615 0.00016773 0)
(-3.08068 0.000162215 0)
(-3.09469 0.00019156 0)
(-3.08094 0.000176526 0)
(-3.11435 0.00024564 8.1692e-20)
(-3.10741 0.000201633 -4.11222e-20)
(-3.14733 0.000342132 0)
(-3.14951 0.00022901 9.14541e-21)
(-3.15161 0.00045738 0)
(-3.22431 8.91808e-05 0)
)
;
    }
    front
    {
        type            empty;
    }
    back
    {
        type            empty;
    }
}


// ************************************************************************* //
