/*--------------------------------*- C++ -*----------------------------------*\
| =========                 |                                                 |
| \\      /  F ield         | OpenFOAM: The Open Source CFD Toolbox           |
|  \\    /   O peration     | Version:  2306                                  |
|   \\  /    A nd           | Website:  www.openfoam.com                      |
|    \\/     M anipulation  |                                                 |
\*---------------------------------------------------------------------------*/
FoamFile
{
    version     2.0;
    format      ascii;
    arch        "LSB;label=32;scalar=64";
    class       volScalarField;
    location    "2000";
    object      yPlus;
}
// * * * * * * * * * * * * * * * * * * * * * * * * * * * * * * * * * * * * * //

dimensions      [0 0 0 0 0 0 0];

internalField   uniform 0;

boundaryField
{
    inlet
    {
        type            calculated;
        value           uniform 0;
    }
    outlet
    {
        type            calculated;
        value           uniform 0;
    }
    lowerWallStartup
    {
        type            symmetryPlane;
    }
    upperWallStartup
    {
        type            symmetryPlane;
    }
    upperWall
    {
        type            calculated;
        value           nonuniform List<scalar> 
218
(
2.72148
2.04151
1.90291
1.82286
1.77209
1.73854
1.71485
1.69734
1.68403
1.67368
1.66548
1.65888
1.6535
1.6491
1.64542
1.64238
1.63981
1.63766
1.63582
1.63426
1.63293
1.63179
1.63079
1.62995
1.62921
1.62857
1.62801
1.62752
1.62709
1.62672
1.62639
1.6261
1.62584
1.62561
1.62541
1.62522
1.62506
1.6249
1.62476
1.62462
1.62449
1.62437
1.62423
1.62409
1.62394
1.62378
1.6236
1.62339
1.62315
1.62288
1.62255
1.62217
1.62173
1.62122
1.62063
1.61995
1.61917
1.61829
1.61729
1.61618
1.61493
1.61357
1.61204
1.61068
1.60955
1.60841
1.60724
1.60606
1.60486
1.60366
1.60246
1.60126
1.60005
1.59887
1.59769
1.59654
1.5954
1.59428
1.59319
1.59211
1.59107
1.59005
1.58903
1.58813
1.58707
1.58643
1.58503
1.58509
1.58156
1.57683
1.57197
1.56756
1.56256
1.55816
1.55318
1.54879
1.54378
1.53939
1.53436
1.52998
1.52493
1.52054
1.51547
1.51108
1.50599
1.5016
1.4965
1.49211
1.48699
1.48259
1.47747
1.47307
1.46793
1.46352
1.45838
1.45398
1.44882
1.44442
1.43926
1.43485
1.42969
1.42528
1.42012
1.41572
1.41056
1.40616
1.401
1.39661
1.39146
1.38708
1.38192
1.37756
1.37241
1.36805
1.36291
1.35856
1.35343
1.3491
1.34398
1.33967
1.33456
1.33026
1.32517
1.32089
1.31581
1.31155
1.30649
1.30226
1.29722
1.293
1.28798
1.28379
1.27879
1.27462
1.26964
1.2655
1.26055
1.25643
1.2515
1.24741
1.24252
1.23846
1.23358
1.22955
1.22471
1.2207
1.21588
1.21191
1.20712
1.20318
1.19842
1.19451
1.18978
1.18589
1.1812
1.17735
1.17268
1.16886
1.16422
1.16044
1.15581
1.15209
1.14746
1.14382
1.13902
1.13665
1.135
1.13298
1.13071
1.12811
1.12513
1.12174
1.11789
1.11354
1.10861
1.10306
1.0968
1.08981
1.08197
1.07325
1.06357
1.05279
1.04094
1.0278
1.01329
0.997191
0.979398
0.959343
0.937147
0.911644
0.883353
0.850302
0.81399
0.770637
0.724406
0.667058
0.611248
0.519134
)
;
    }
    lowerWall
    {
        type            calculated;
        value           nonuniform List<scalar> 
266
(
2.82245
2.11318
1.96931
1.88695
1.83448
1.79958
1.77478
1.75633
1.74225
1.73127
1.72254
1.71549
1.70975
1.70501
1.70108
1.69778
1.69503
1.69268
1.69069
1.689
1.68754
1.68629
1.68521
1.68427
1.68345
1.68274
1.68212
1.68158
1.6811
1.68068
1.68031
1.67998
1.67969
1.67944
1.67922
1.67901
1.67884
1.67868
1.67854
1.67843
1.67834
1.67827
1.67822
1.67819
1.6782
1.67823
1.6783
1.6784
1.67855
1.67875
1.67901
1.67933
1.67974
1.68022
1.68081
1.68152
1.68234
1.68332
1.68445
1.68577
1.68728
1.68902
1.69101
1.69293
1.69457
1.69632
1.69813
1.70009
1.70211
1.70428
1.70653
1.70892
1.71142
1.71406
1.71686
1.71978
1.72295
1.72613
1.72981
1.73321
1.73776
1.74123
1.74784
1.75028
1.76155
1.76571
1.78152
1.76991
2.52507
0.421955
0.186099
0.451493
0.362214
0.35203
0.429124
0.503466
0.562204
0.620815
0.687053
0.759787
0.835674
0.911839
0.985571
1.05355
1.11127
1.15238
1.16671
1.13394
1.00072
0.53822
1.15735
2.22967
3.27652
4.00851
4.64839
5.11981
5.43794
5.6201
5.67568
5.62052
5.48348
5.24392
5.00695
4.81175
4.68481
4.53368
4.32582
4.12729
3.99031
3.8747
3.7704
3.69652
3.55635
3.0701
2.02306
1.2066
0.192842
0.285727
0.04988
0.0122769
0.0344415
0.0421783
0.0304288
0.020157
0.0428285
0.0593178
0.0742205
0.0883392
0.0522802
0.116301
0.128707
0.162608
0.156823
0.170431
0.184811
0.199752
0.215184
0.231133
0.247428
0.264012
0.280834
0.297875
0.315085
0.332377
0.349634
0.366735
0.383576
0.400077
0.416177
0.431815
0.446933
0.46147
0.475365
0.488567
0.501031
0.512722
0.523607
0.533634
0.542719
0.55082
0.558009
0.564258
0.569558
0.573901
0.577287
0.579714
0.581179
0.581677
0.581197
0.579723
0.57723
0.573693
0.569071
0.563328
0.556413
0.548269
0.538834
0.528028
0.515764
0.501917
0.486366
0.468856
0.44922
0.426915
0.401799
0.372181
0.337961
0.33741
0.279191
0.19795
0.0892875
0.160325
0.227948
0.277111
0.316127
0.348859
0.376936
0.40156
0.423371
0.442943
0.460567
0.476631
0.491195
0.50467
0.516847
0.528368
0.538547
0.548636
0.556974
0.566172
0.572567
0.581537
0.585852
0.593739
0.604714
0.614063
0.626514
0.638883
0.653333
0.668743
0.685913
0.704523
0.724899
0.746994
0.771047
0.797083
0.825492
0.856297
0.890295
0.927378
0.969171
1.01519
1.0686
1.12795
1.19909
1.27852
1.37644
1.48546
1.62212
1.77296
1.96321
2.17134
2.43245
2.72276
3.06347
3.50304
)
;
    }
    front
    {
        type            empty;
    }
    back
    {
        type            empty;
    }
}


// ************************************************************************* //
