0.0508 	-138.415 	48.4648 	-0.23674 	0 	-0.0466747 	-0.938387 	0 	0.0467312 	0 	-5.65102e-05
