0 	41.8089 	0 	0 	0 	-0.000183127 	-3.98475 	-1.01442e-22 	0.000139312 	3.85103e-22 	4.38144e-05
1.37955e-05 	41.8092 	3.11118 	-9.27649e-05 	7.07545e-24 	-0.00041611 	-4.12991 	1.33094e-23 	0.00042065 	5.62129e-21 	-4.53967e-06
2.92331e-05 	41.8088 	5.63385 	-0.000295943 	-8.17747e-21 	-0.000953807 	-3.81491 	-1.33465e-20 	0.000976136 	1.22675e-21 	-2.23295e-05
4.65113e-05 	41.8075 	7.64764 	-0.000666537 	-2.38723e-21 	-0.00240771 	-4.00669 	6.03123e-21 	0.0024212 	-6.08422e-21 	-1.34912e-05
6.58528e-05 	41.8048 	9.08278 	-0.00128807 	-2.80455e-21 	-0.00533283 	-4.07509 	-5.15475e-20 	0.00532373 	-1.17667e-20 	9.1059e-06
8.75077e-05 	41.8002 	10.1278 	-0.00222367 	4.36601e-21 	-0.0100686 	-4.06556 	1.13551e-19 	0.0100471 	-1.21806e-20 	2.15616e-05
0.000111757 	41.7935 	10.9327 	-0.00351777 	2.89331e-21 	-0.0168727 	-4.0519 	-5.18772e-20 	0.0168543 	4.59959e-20 	1.83938e-05
0.000138915 	41.7845 	11.5824 	-0.00520456 	-1.0886e-20 	-0.0260298 	-4.04614 	-2.64206e-19 	0.0260171 	-6.96692e-21 	1.26947e-05
0.000169336 	41.7728 	12.1262 	-0.00732086 	3.58106e-21 	-0.0378737 	-4.04853 	1.73868e-19 	0.0378643 	-8.55443e-20 	9.3851e-06
0.000203417 	41.758 	12.5943 	-0.0099105 	1.0672e-20 	-0.0527793 	-4.05852 	6.35698e-19 	0.0527717 	4.09635e-20 	7.64153e-06
0.000241604 	41.7396 	13.0066 	-0.0130249 	-5.0342e-21 	-0.0711566 	-4.07602 	-5.53289e-19 	0.0711503 	5.37205e-20 	6.35784e-06
0.000284398 	41.7172 	13.3765 	-0.0167236 	8.20239e-22 	-0.093448 	-4.10134 	3.37753e-19 	0.0934428 	-1.52487e-19 	5.21512e-06
0.000332361 	41.6903 	13.7138 	-0.0210746 	2.07655e-20 	-0.120126 	-4.13511 	2.46722e-18 	0.120122 	3.08087e-20 	4.19082e-06
0.000386126 	41.6583 	14.0259 	-0.0261553 	-5.38681e-21 	-0.151689 	-4.17824 	-1.00046e-18 	0.151686 	2.45139e-19 	3.26798e-06
0.000446401 	41.6206 	14.3184 	-0.0320535 	-1.38759e-20 	-0.188653 	-4.23185 	-2.14339e-18 	0.18865 	-1.49835e-19 	2.41195e-06
0.000513985 	41.5766 	14.5958 	-0.0388685 	1.60463e-20 	-0.231538 	-4.2973 	3.39401e-18 	0.231537 	-1.37682e-19 	1.59544e-06
0.000589773 	41.5256 	14.8618 	-0.0467121 	8.01906e-22 	-0.280858 	-4.37616 	-1.75863e-19 	0.280858 	2.06463e-19 	8.07413e-07
0.000674771 	41.4671 	15.1198 	-0.05571 	-8.2372e-21 	-0.337093 	-4.47027 	-1.71176e-18 	0.337093 	7.00295e-20 	5.4208e-08
0.000770111 	41.4003 	15.3725 	-0.0660028 	-6.48903e-21 	-0.400664 	-4.5817 	-2.02519e-18 	0.400665 	-1.20286e-19 	-6.40969e-07
0.000877061 	41.3246 	15.6227 	-0.0777478 	7.05796e-21 	-0.471902 	-4.71282 	2.54379e-18 	0.471903 	-3.36326e-20 	-1.23498e-06
0.000997051 	41.2395 	15.873 	-0.0911201 	-5.82654e-21 	-0.551002 	-4.86629 	-2.347e-18 	0.551004 	2.17151e-19 	-1.6555e-06
0.00113168 	41.1445 	16.1259 	-0.106314 	-1.30003e-20 	-0.637978 	-5.04507 	-4.10375e-18 	0.63798 	-2.60826e-20 	-1.78773e-06
0.00128277 	41.0392 	16.3843 	-0.123543 	2.4036e-22 	-0.732603 	-5.25246 	-1.96364e-19 	0.732604 	1.22685e-19 	-1.48453e-06
0.00145232 	40.9233 	16.6509 	-0.143044 	-2.69636e-20 	-0.834347 	-5.49206 	-1.02834e-17 	0.834348 	-1.10269e-19 	-6.91646e-07
0.00164263 	40.7968 	16.9291 	-0.165072 	2.42844e-20 	-0.94231 	-5.76777 	9.18857e-18 	0.942309 	-5.36235e-19 	3.68573e-07
0.00185625 	40.6597 	17.2224 	-0.189903 	1.37869e-20 	-1.05514 	-6.08374 	5.25355e-18 	1.05514 	3.29228e-19 	2.27838e-06
0.00209606 	40.5122 	17.5351 	-0.217832 	-1.20422e-20 	-1.17098 	-6.44427 	-4.70391e-18 	1.17098 	-1.44907e-19 	8.96531e-06
0.0023653 	40.3547 	17.8719 	-0.249164 	3.87353e-20 	-1.28736 	-6.85364 	1.48626e-17 	1.28734 	-3.88984e-19 	1.76442e-05
0.0026676 	40.1877 	18.2387 	-0.284213 	-5.97869e-22 	-1.4011 	-7.3156 	2.87176e-19 	1.40109 	6.26188e-19 	1.89371e-05
0.00300706 	40.0116 	18.6422 	-0.323283 	-2.70619e-20 	-1.5085 	-7.8336 	-9.92881e-18 	1.50847 	1.82335e-19 	2.20978e-05
0.00338828 	39.8268 	19.0906 	-0.366653 	0 	-1.60503 	-8.40971 	-2.24796e-20 	1.60499 	-8.10796e-19 	3.66698e-05
0.00381642 	39.6333 	19.5936 	-0.414545 	6.85981e-20 	-1.68529 	-9.04338 	2.25313e-17 	1.68523 	-5.68546e-19 	5.64075e-05
0.0042973 	39.4309 	20.1628 	-0.467087 	-3.007e-21 	-1.74314 	-9.7308 	1.31068e-18 	1.74306 	1.52292e-18 	8.25532e-05
0.00483747 	39.2185 	20.812 	-0.524251 	-1.32822e-19 	-1.77174 	-10.4629 	-3.9391e-17 	1.77162 	1.69031e-18 	0.000120897
0.00544427 	39.0033 	21.525 	-0.583184 	-8.84914e-20 	-1.7651 	-11.1896 	-2.82864e-17 	1.76506 	-1.96585e-19 	4.37564e-05
0.00602098 	38.7972 	22.2586 	-0.639426 	-3.63207e-22 	-1.72447 	-11.8462 	-1.13827e-18 	1.72453 	-8.47062e-19 	-5.9621e-05
0.00660124 	38.5993 	23.0044 	-0.691991 	3.08189e-20 	-1.65529 	-12.4164 	9.86087e-18 	1.65533 	-1.06405e-18 	-3.88477e-05
0.00718535 	38.4034 	23.7731 	-0.741401 	1.06621e-19 	-1.56134 	-12.8989 	4.37694e-17 	1.56135 	-1.14583e-18 	-1.06574e-05
0.00777365 	38.2071 	24.5644 	-0.787381 	8.00644e-22 	-1.44659 	-13.2827 	-1.41426e-18 	1.44661 	1.69664e-18 	-1.1156e-05
0.00836651 	38.0078 	25.3773 	-0.829678 	-9.04329e-20 	-1.31521 	-13.5592 	-3.98763e-17 	1.31522 	8.8607e-19 	-8.02412e-06
0.00896431 	37.8033 	26.2103 	-0.868056 	5.11155e-20 	-1.17131 	-13.7199 	2.20342e-17 	1.1713 	-1.82262e-18 	5.95655e-06
0.00956749 	37.5916 	27.0611 	-0.902314 	3.99285e-20 	-1.01897 	-13.7569 	1.77186e-17 	1.01896 	-7.84583e-20 	1.21172e-05
0.0101765 	37.3706 	27.9267 	-0.932289 	-7.74864e-21 	-0.862557 	-13.6648 	-3.15127e-18 	0.862544 	2.85211e-19 	1.27721e-05
0.0107919 	37.1382 	28.8033 	-0.957869 	9.36012e-23 	-0.70662 	-13.44 	-1.8968e-19 	0.706604 	-9.44448e-20 	1.57249e-05
0.0114142 	36.892 	29.6861 	-0.979008 	8.15256e-21 	-0.55584 	-13.0822 	3.06517e-18 	0.555823 	1.06938e-18 	1.76545e-05
0.012044 	36.6297 	30.5695 	-0.995753 	-1.46222e-19 	-0.414925 	-12.5953 	-6.4373e-17 	0.414917 	2.17392e-18 	7.81668e-06
0.0126819 	36.3486 	31.4464 	-1.00827 	3.69454e-21 	-0.288404 	-11.988 	-2.28993e-18 	0.288423 	-3.48135e-18 	-1.89452e-05
0.0133287 	36.046 	32.3087 	-1.01685 	3.84058e-19 	-0.180246 	-11.2767 	1.60233e-16 	0.18027 	-6.49795e-18 	-2.37172e-05
0.0139851 	35.7263 	33.1309 	-1.02188 	2.32356e-19 	-0.0948464 	-10.5006 	1.0044e-16 	0.0948531 	1.10917e-18 	-6.65501e-06
0.0145992 	35.3926 	33.8954 	-1.02413 	-2.40085e-19 	-0.0341259 	-9.69919 	-9.65445e-17 	0.0341525 	6.01606e-18 	-2.65864e-05
0.0152409 	35.0317 	34.6221 	-1.0245 	-2.38255e-19 	0.00451238 	-8.87863 	-9.84667e-17 	-0.00446266 	2.11865e-19 	-4.9716e-05
0.0159119 	34.6304 	35.3217 	-1.0237 	2.24538e-19 	0.0230713 	-8.0534 	8.88912e-17 	-0.0229961 	-5.45948e-18 	-7.51782e-05
0.016614 	34.1852 	35.9846 	-1.0225 	2.20722e-19 	0.0230111 	-7.25988 	8.97224e-17 	-0.0229014 	-2.37149e-19 	-0.000109681
0.0173491 	33.6934 	36.6041 	-1.02166 	-2.29826e-19 	0.007962 	-6.53193 	-8.24832e-17 	-0.0078607 	7.31231e-18 	-0.000101305
0.018119 	33.1539 	37.1776 	-1.02181 	-6.82406e-19 	-0.016785 	-5.89411 	-2.57517e-16 	0.0168385 	7.4398e-18 	-5.34798e-05
0.0189258 	32.5673 	37.7074 	-1.02333 	-2.3391e-19 	-0.0451235 	-5.35763 	-9.23901e-17 	0.0451129 	-2.19171e-18 	1.05909e-05
0.0197718 	31.935 	38.1992 	-1.02629 	2.26705e-19 	-0.0713644 	-4.92037 	8.00271e-17 	0.0713068 	-5.70475e-18 	5.75789e-05
0.0206593 	31.2585 	38.6605 	-1.03052 	4.32349e-19 	-0.0914071 	-4.57023 	1.67954e-16 	0.0913385 	-7.55193e-18 	6.85448e-05
0.0215907 	30.5384 	39.0992 	-1.03567 	8.51347e-19 	-0.103354 	-4.28991 	3.42375e-16 	0.103302 	-5.3946e-18 	5.24652e-05
0.0225687 	29.7738 	39.5217 	-1.04136 	-3.85728e-19 	-0.107341 	-4.06138 	-1.53253e-16 	0.107321 	1.20885e-17 	2.00042e-05
0.023596 	28.9627 	39.9328 	-1.04722 	-8.04857e-19 	-0.104851 	-3.86829 	-3.26772e-16 	0.104862 	7.15095e-18 	-1.10728e-05
0.0246755 	28.0724 	40.3492 	-1.05315 	1.29246e-20 	-0.0970605 	-3.69455 	-5.38291e-19 	0.0971034 	-4.33167e-18 	-4.2908e-05
0.0259626 	27.0631 	40.7857 	-1.05901 	1.81033e-19 	-0.0846318 	-3.52696 	6.38468e-17 	0.0846813 	-3.63955e-18 	-4.95048e-05
0.0273361 	25.9515 	41.2301 	-1.06429 	5.26384e-19 	-0.0687665 	-3.36311 	1.9894e-16 	0.0688033 	-4.21076e-18 	-3.67924e-05
0.0288025 	24.7591 	41.6711 	-1.06859 	-1.35924e-19 	-0.0504411 	-3.20242 	-5.46185e-17 	0.0504763 	4.97353e-18 	-3.52483e-05
0.030369 	23.4825 	42.1079 	-1.07161 	-4.83902e-19 	-0.0300907 	-3.04045 	-1.90998e-16 	0.0301252 	3.68487e-18 	-3.44979e-05
0.0320431 	22.1191 	42.5391 	-1.07312 	2.95954e-19 	-0.00801406 	-2.87381 	1.20162e-16 	0.00804486 	-4.4306e-18 	-3.07987e-05
0.033833 	20.6668 	42.9629 	-1.0728 	-7.8465e-20 	0.0155546 	-2.69994 	-4.95326e-17 	-0.0155314 	2.65137e-18 	-2.31914e-05
0.0357475 	19.1305 	43.3748 	-1.07039 	-1.61826e-19 	0.040386 	-2.5174 	-6.53224e-17 	-0.0403458 	6.64002e-19 	-4.01978e-05
0.0377646 	17.5186 	43.7698 	-1.06563 	2.43327e-19 	0.0661708 	-2.3255 	1.23597e-16 	-0.0661252 	-3.21793e-18 	-4.5596e-05
0.0399122 	15.8298 	44.145 	-1.05821 	-1.69651e-19 	0.0928698 	-2.1227 	-1.05416e-16 	-0.0928324 	3.40038e-18 	-3.74056e-05
0.0422027 	14.0617 	44.4968 	-1.04781 	-1.02387e-19 	0.120687 	-1.907 	-7.16421e-17 	-0.120647 	9.86735e-19 	-3.92135e-05
0.0446494 	12.2163 	44.8199 	-1.03402 	1.16661e-19 	0.149652 	-1.67642 	6.54339e-17 	-0.149631 	-1.82579e-18 	-2.05473e-05
0.0472662 	10.2978 	45.1078 	-1.01643 	-2.2168e-20 	0.179488 	-1.42907 	-3.60173e-17 	-0.17944 	7.37263e-19 	-4.81788e-05
0.0500679 	8.3117 	45.3534 	-0.994619 	1.05344e-19 	0.208553 	-1.15953 	9.22154e-17 	-0.208476 	-2.09459e-18 	-7.65949e-05
0.05307 	6.26634 	45.5484 	-0.968128 	8.79166e-20 	0.235377 	-0.86579 	1.19393e-16 	-0.235353 	-2.26174e-18 	-2.37465e-05
0.0562894 	4.17578 	45.682 	-0.936488 	-5.95144e-20 	0.260282 	-0.551401 	-5.78404e-17 	-0.260275 	1.33719e-18 	-6.72905e-06
0.0597436 	2.05693 	45.7396 	-0.899229 	-8.2621e-21 	0.283444 	-0.216894 	3.60876e-17 	-0.283415 	-6.51219e-19 	-2.93089e-05
0.0634517 	-0.0710942 	45.7035 	-0.855845 	-7.05683e-21 	0.303948 	0.138433 	2.86247e-17 	-0.303909 	-5.23754e-19 	-3.87802e-05
0.0674339 	-2.18469 	45.5515 	-0.805728 	-4.54922e-21 	0.32141 	0.517011 	-6.51505e-17 	-0.321405 	1.18055e-18 	-4.72469e-06
0.0717118 	-4.25354 	45.2526 	-0.74789 	4.64063e-21 	0.335819 	0.924388 	-2.17896e-17 	-0.335804 	3.54138e-19 	-1.51867e-05
0.0763087 	-6.24351 	44.7639 	-0.681528 	3.56024e-22 	0.347591 	1.36887 	-7.43056e-19 	-0.347616 	-5.09548e-21 	2.47281e-05
0.0812495 	-8.11346 	44.0274 	-0.605426 	1.86688e-20 	0.356337 	1.86119 	-7.53753e-18 	-0.356359 	9.02948e-20 	2.21652e-05
0.0865609 	-9.8223 	42.9593 	-0.518671 	1.90498e-20 	0.360066 	2.40858 	-9.31236e-18 	-0.360098 	1.71643e-19 	3.13878e-05
0.0922714 	-11.2056 	41.5838 	-0.428292 	-5.07664e-20 	0.356998 	2.95363 	2.06926e-17 	-0.357003 	-2.05039e-19 	4.97602e-06
0.0960782 	-12.0958 	40.2063 	-0.352468 	-2.73981e-20 	0.346174 	3.41473 	1.20837e-17 	-0.346156 	-1.93191e-19 	-1.82125e-05
0.0992295 	-12.6774 	38.8682 	-0.290191 	6.94345e-22 	0.329131 	3.81753 	-1.4538e-18 	-0.329145 	-1.56274e-20 	1.44318e-05
0.101838 	-13.0877 	37.5157 	-0.236285 	1.20342e-20 	0.308456 	4.16818 	-3.04585e-18 	-0.308439 	-5.35588e-21 	-1.68484e-05
