/*--------------------------------*- C++ -*----------------------------------*\
| =========                 |                                                 |
| \\      /  F ield         | OpenFOAM: The Open Source CFD Toolbox           |
|  \\    /   O peration     | Version:  2306                                  |
|   \\  /    A nd           | Website:  www.openfoam.com                      |
|    \\/     M anipulation  |                                                 |
\*---------------------------------------------------------------------------*/
FoamFile
{
    version     2.0;
    format      ascii;
    arch        "LSB;label=32;scalar=64";
    class       volScalarField;
    location    "1700";
    object      cp;
}
// * * * * * * * * * * * * * * * * * * * * * * * * * * * * * * * * * * * * * //

dimensions      [0 0 0 0 0 0 0];

internalField   nonuniform List<scalar> 
20540
(
0.208706
0.0636518
0.208704
0.0590739
0.2087
0.0556994
0.208695
0.0538582
0.208687
0.0527335
0.208677
0.0518924
0.208664
0.0512143
0.208646
0.0506599
0.208624
0.0502008
0.208596
0.0498156
0.208561
0.0494905
0.208519
0.049217
0.208468
0.0489904
0.208406
0.048808
0.208332
0.048669
0.208246
0.0485734
0.208147
0.0485216
0.208035
0.0485137
0.207908
0.0485493
0.207768
0.0486267
0.207617
0.0487421
0.207461
0.0488889
0.207302
0.04906
0.207127
0.0492617
0.206896
0.049543
0.206549
0.0499964
0.20607
0.0506563
0.205542
0.0514033
0.205052
0.0521163
0.204624
0.052746
0.204329
0.0531593
0.204196
0.0533166
0.204216
0.0532295
0.204391
0.0528978
0.204721
0.0523161
0.205171
0.0515494
0.205678
0.0507253
0.20622
0.0498849
0.206713
0.049144
0.207075
0.0486189
0.207326
0.0482751
0.207521
0.0480192
0.207702
0.0478003
0.20788
0.0476109
0.208051
0.0474565
0.208211
0.0473423
0.208357
0.0472709
0.208489
0.0472428
0.208606
0.0472582
0.208708
0.0473165
0.208795
0.0474168
0.208869
0.0475583
0.208931
0.0477405
0.208982
0.0479646
0.209024
0.0482331
0.209059
0.0485508
0.209087
0.0489261
0.209109
0.0493724
0.209127
0.0499106
0.20914
0.0505684
0.209151
0.0513842
0.209158
0.0524765
0.209164
0.05427
0.209167
0.0575617
0.20917
0.0620278
-0.00365453
0.00562326
-0.000669635
-0.00795449
-0.0136562
-0.0190519
-0.0243978
-0.0294726
-0.0342969
-0.0389136
-0.0433317
-0.047558
-0.0516048
-0.0554821
-0.0591988
-0.062763
-0.0661825
-0.0694644
-0.0726152
-0.0756411
-0.0785481
-0.0813413
-0.084026
-0.0866068
-0.0890883
-0.0914745
-0.0937699
-0.0959779
-0.0981022
-0.100146
-0.102114
-0.104007
-0.10583
-0.107586
-0.109277
-0.110907
-0.112477
-0.113992
-0.115455
-0.116867
-0.118234
-0.119557
-0.120842
-0.122092
-0.123312
-0.124506
-0.125679
-0.126838
-0.127988
-0.129137
-0.130292
-0.13146
-0.13265
-0.133872
-0.135135
-0.13645
-0.137828
-0.139283
-0.140826
-0.142475
-0.144242
-0.146152
-0.148212
-0.15009
-0.151651
-0.153253
-0.154908
-0.156617
-0.15838
-0.160199
-0.162074
-0.164008
-0.166002
-0.168061
-0.170181
-0.172379
-0.174637
-0.176998
-0.17941
-0.181983
-0.184566
-0.187449
-0.190209
-0.193642
-0.196577
-0.201102
-0.204606
-0.211765
-0.00365073
0.00562444
-0.000669187
-0.00795421
-0.013656
-0.0190517
-0.0243977
-0.0294725
-0.0342968
-0.0389136
-0.0433316
-0.047558
-0.0516048
-0.055482
-0.0591988
-0.0627629
-0.0661825
-0.0694644
-0.0726152
-0.0756411
-0.0785481
-0.0813413
-0.0840259
-0.0866068
-0.0890883
-0.0914745
-0.0937699
-0.0959779
-0.0981022
-0.100146
-0.102114
-0.104007
-0.10583
-0.107586
-0.109277
-0.110907
-0.112477
-0.113992
-0.115455
-0.116867
-0.118234
-0.119557
-0.120842
-0.122092
-0.123312
-0.124506
-0.125679
-0.126838
-0.127988
-0.129137
-0.130292
-0.13146
-0.13265
-0.133872
-0.135135
-0.13645
-0.137828
-0.139283
-0.140826
-0.142475
-0.144242
-0.146152
-0.148212
-0.15009
-0.151651
-0.153253
-0.154909
-0.156618
-0.15838
-0.160199
-0.162074
-0.164009
-0.166002
-0.168061
-0.170181
-0.172379
-0.174638
-0.176999
-0.179411
-0.181984
-0.184567
-0.187451
-0.19021
-0.193644
-0.196579
-0.201103
-0.204613
-0.211575
-0.00365117
0.00562654
-0.000668264
-0.00795363
-0.0136556
-0.0190514
-0.0243975
-0.0294723
-0.0342966
-0.0389134
-0.0433315
-0.0475579
-0.0516047
-0.055482
-0.0591987
-0.0627629
-0.0661824
-0.0694643
-0.0726152
-0.0756411
-0.0785481
-0.0813413
-0.0840259
-0.0866068
-0.0890882
-0.0914745
-0.0937699
-0.0959778
-0.0981022
-0.100146
-0.102114
-0.104007
-0.10583
-0.107586
-0.109277
-0.110907
-0.112477
-0.113992
-0.115455
-0.116867
-0.118234
-0.119557
-0.120842
-0.122092
-0.123312
-0.124506
-0.125679
-0.126838
-0.127988
-0.129137
-0.130292
-0.13146
-0.13265
-0.133872
-0.135135
-0.13645
-0.137828
-0.139283
-0.140826
-0.142476
-0.144243
-0.146152
-0.148213
-0.15009
-0.151651
-0.153254
-0.154909
-0.156618
-0.158381
-0.1602
-0.162075
-0.16401
-0.166003
-0.168063
-0.170183
-0.172381
-0.174639
-0.177001
-0.179413
-0.181986
-0.184569
-0.187454
-0.190214
-0.193648
-0.196585
-0.201107
-0.204625
-0.211273
-0.00365417
0.00562921
-0.000666897
-0.0079527
-0.0136549
-0.0190509
-0.0243971
-0.029472
-0.0342964
-0.0389132
-0.0433313
-0.0475577
-0.0516046
-0.0554818
-0.0591986
-0.0627628
-0.0661823
-0.0694642
-0.0726151
-0.075641
-0.078548
-0.0813412
-0.0840259
-0.0866067
-0.0890882
-0.0914745
-0.0937698
-0.0959778
-0.0981021
-0.100146
-0.102114
-0.104007
-0.10583
-0.107586
-0.109277
-0.110907
-0.112477
-0.113992
-0.115454
-0.116867
-0.118234
-0.119557
-0.120842
-0.122092
-0.123312
-0.124506
-0.125679
-0.126838
-0.127988
-0.129137
-0.130292
-0.13146
-0.13265
-0.133872
-0.135135
-0.13645
-0.137828
-0.139283
-0.140827
-0.142476
-0.144243
-0.146153
-0.148213
-0.150091
-0.151652
-0.153255
-0.15491
-0.156619
-0.158382
-0.160201
-0.162077
-0.164012
-0.166005
-0.168065
-0.170185
-0.172383
-0.174642
-0.177004
-0.179417
-0.18199
-0.184573
-0.187459
-0.190219
-0.193655
-0.196595
-0.201111
-0.204636
-0.210994
-0.00366217
0.00563171
-0.000665301
-0.00795153
-0.0136539
-0.0190502
-0.0243965
-0.0294715
-0.034296
-0.0389129
-0.0433311
-0.0475575
-0.0516044
-0.0554817
-0.0591984
-0.0627626
-0.0661822
-0.0694641
-0.072615
-0.0756409
-0.0785479
-0.0813412
-0.0840258
-0.0866066
-0.0890881
-0.0914744
-0.0937698
-0.0959778
-0.0981021
-0.100146
-0.102114
-0.104007
-0.10583
-0.107586
-0.109277
-0.110906
-0.112477
-0.113992
-0.115454
-0.116867
-0.118234
-0.119557
-0.120842
-0.122092
-0.123312
-0.124506
-0.125679
-0.126838
-0.127988
-0.129137
-0.130292
-0.13146
-0.13265
-0.133872
-0.135135
-0.13645
-0.137828
-0.139284
-0.140827
-0.142477
-0.144244
-0.146153
-0.148214
-0.150092
-0.151653
-0.153256
-0.154912
-0.156621
-0.158384
-0.160203
-0.162079
-0.164014
-0.166008
-0.168068
-0.170188
-0.172387
-0.174646
-0.177008
-0.179421
-0.181996
-0.184579
-0.187466
-0.190227
-0.193663
-0.196606
-0.201113
-0.204636
-0.210797
-0.00367847
0.0056336
-0.000663677
-0.00795019
-0.0136528
-0.0190493
-0.0243958
-0.0294709
-0.0342955
-0.0389125
-0.0433307
-0.0475572
-0.0516041
-0.0554814
-0.0591982
-0.0627625
-0.066182
-0.069464
-0.0726148
-0.0756408
-0.0785478
-0.0813411
-0.0840257
-0.0866066
-0.089088
-0.0914743
-0.0937697
-0.0959777
-0.098102
-0.100146
-0.102114
-0.104007
-0.10583
-0.107586
-0.109277
-0.110906
-0.112477
-0.113992
-0.115454
-0.116867
-0.118234
-0.119557
-0.120842
-0.122092
-0.123312
-0.124506
-0.125679
-0.126838
-0.127989
-0.129138
-0.130292
-0.13146
-0.132651
-0.133872
-0.135135
-0.13645
-0.137829
-0.139284
-0.140828
-0.142477
-0.144245
-0.146154
-0.148215
-0.150093
-0.151655
-0.153258
-0.154913
-0.156623
-0.158386
-0.160206
-0.162081
-0.164017
-0.166011
-0.168071
-0.170192
-0.172391
-0.174651
-0.177014
-0.179427
-0.182002
-0.184586
-0.187474
-0.190235
-0.193672
-0.196619
-0.201113
-0.204619
-0.210669
-0.00370626
0.0056345
-0.000662219
-0.00794877
-0.0136515
-0.0190483
-0.024395
-0.0294702
-0.0342949
-0.038912
-0.0433303
-0.0475568
-0.0516038
-0.0554811
-0.059198
-0.0627622
-0.0661818
-0.0694638
-0.0726147
-0.0756406
-0.0785477
-0.0813409
-0.0840256
-0.0866064
-0.0890879
-0.0914742
-0.0937696
-0.0959776
-0.098102
-0.100146
-0.102113
-0.104007
-0.10583
-0.107586
-0.109277
-0.110906
-0.112477
-0.113992
-0.115454
-0.116867
-0.118234
-0.119557
-0.120842
-0.122092
-0.123312
-0.124506
-0.125679
-0.126838
-0.127989
-0.129138
-0.130292
-0.131461
-0.132651
-0.133873
-0.135136
-0.136451
-0.137829
-0.139285
-0.140828
-0.142478
-0.144246
-0.146155
-0.148217
-0.150095
-0.151657
-0.15326
-0.154916
-0.156625
-0.158389
-0.160209
-0.162085
-0.16402
-0.166015
-0.168076
-0.170197
-0.172396
-0.174656
-0.17702
-0.179434
-0.18201
-0.184593
-0.187484
-0.190244
-0.193681
-0.196631
-0.201108
-0.204581
-0.210551
-0.00374886
0.00563385
-0.000661182
-0.00794739
-0.0136501
-0.019047
-0.0243939
-0.0294694
-0.0342942
-0.0389114
-0.0433297
-0.0475563
-0.0516033
-0.0554808
-0.0591976
-0.0627619
-0.0661815
-0.0694635
-0.0726144
-0.0756404
-0.0785475
-0.0813407
-0.0840254
-0.0866063
-0.0890878
-0.0914741
-0.0937695
-0.0959775
-0.0981018
-0.100146
-0.102113
-0.104007
-0.10583
-0.107586
-0.109277
-0.110906
-0.112477
-0.113992
-0.115454
-0.116867
-0.118234
-0.119557
-0.120842
-0.122092
-0.123312
-0.124506
-0.125679
-0.126838
-0.127989
-0.129138
-0.130292
-0.131461
-0.132651
-0.133873
-0.135136
-0.136451
-0.13783
-0.139285
-0.140829
-0.142479
-0.144247
-0.146157
-0.148218
-0.150097
-0.151659
-0.153262
-0.154918
-0.156628
-0.158392
-0.160212
-0.162089
-0.164025
-0.16602
-0.168081
-0.170202
-0.172403
-0.174663
-0.177027
-0.179441
-0.182019
-0.184602
-0.187493
-0.190254
-0.193689
-0.196641
-0.201096
-0.204523
-0.210391
-0.00380987
0.00563092
-0.000660913
-0.00794625
-0.0136486
-0.0190457
-0.0243927
-0.0294683
-0.0342933
-0.0389106
-0.043329
-0.0475557
-0.0516028
-0.0554803
-0.0591972
-0.0627615
-0.0661812
-0.0694632
-0.0726142
-0.0756402
-0.0785472
-0.0813405
-0.0840252
-0.0866061
-0.0890876
-0.0914739
-0.0937693
-0.0959773
-0.0981017
-0.100146
-0.102113
-0.104007
-0.10583
-0.107586
-0.109277
-0.110906
-0.112477
-0.113992
-0.115454
-0.116867
-0.118233
-0.119557
-0.120842
-0.122092
-0.123312
-0.124506
-0.125679
-0.126838
-0.127989
-0.129138
-0.130293
-0.131461
-0.132651
-0.133873
-0.135136
-0.136452
-0.137831
-0.139286
-0.14083
-0.14248
-0.144248
-0.146159
-0.14822
-0.150099
-0.151661
-0.153265
-0.154922
-0.156632
-0.158396
-0.160217
-0.162093
-0.16403
-0.166025
-0.168087
-0.170209
-0.17241
-0.17467
-0.177035
-0.179449
-0.182028
-0.18461
-0.187502
-0.190263
-0.193693
-0.196646
-0.20107
-0.204442
-0.210171
-0.00389321
0.00562473
-0.000661869
-0.00794566
-0.0136472
-0.0190442
-0.0243914
-0.0294671
-0.0342922
-0.0389096
-0.0433282
-0.047555
-0.0516021
-0.0554797
-0.0591967
-0.0627611
-0.0661808
-0.0694628
-0.0726138
-0.0756398
-0.0785469
-0.0813402
-0.0840249
-0.0866059
-0.0890874
-0.0914737
-0.0937691
-0.0959772
-0.0981015
-0.100146
-0.102113
-0.104007
-0.10583
-0.107586
-0.109277
-0.110906
-0.112477
-0.113992
-0.115454
-0.116867
-0.118233
-0.119557
-0.120842
-0.122092
-0.123312
-0.124506
-0.125679
-0.126838
-0.127989
-0.129138
-0.130293
-0.131461
-0.132652
-0.133874
-0.135137
-0.136453
-0.137831
-0.139287
-0.140831
-0.142482
-0.14425
-0.146161
-0.148223
-0.150102
-0.151664
-0.153268
-0.154925
-0.156636
-0.1584
-0.160221
-0.162098
-0.164035
-0.166031
-0.168093
-0.170215
-0.172417
-0.174677
-0.177043
-0.179457
-0.182036
-0.184618
-0.187509
-0.190269
-0.193691
-0.196643
-0.201021
-0.204331
-0.209884
-0.00400291
0.00561409
-0.000664623
-0.00794603
-0.0136462
-0.0190428
-0.02439
-0.0294658
-0.034291
-0.0389085
-0.0433272
-0.0475541
-0.0516013
-0.055479
-0.059196
-0.0627605
-0.0661802
-0.0694623
-0.0726133
-0.0756394
-0.0785465
-0.0813399
-0.0840246
-0.0866055
-0.0890871
-0.0914735
-0.0937689
-0.0959769
-0.0981013
-0.100146
-0.102113
-0.104007
-0.10583
-0.107585
-0.109276
-0.110906
-0.112477
-0.113992
-0.115454
-0.116867
-0.118233
-0.119557
-0.120842
-0.122092
-0.123312
-0.124506
-0.125679
-0.126838
-0.127989
-0.129138
-0.130293
-0.131461
-0.132652
-0.133874
-0.135137
-0.136453
-0.137832
-0.139288
-0.140833
-0.142483
-0.144252
-0.146163
-0.148225
-0.150105
-0.151668
-0.153272
-0.154929
-0.15664
-0.158405
-0.160226
-0.162104
-0.164041
-0.166037
-0.168099
-0.170222
-0.172424
-0.174684
-0.17705
-0.179464
-0.182042
-0.184623
-0.187512
-0.190269
-0.193677
-0.196625
-0.20094
-0.204174
-0.209518
-0.00414286
0.00559762
-0.000669854
-0.00794789
-0.0136458
-0.0190417
-0.0243886
-0.0294644
-0.0342897
-0.0389073
-0.0433261
-0.0475531
-0.0516004
-0.0554781
-0.0591952
-0.0627597
-0.0661796
-0.0694617
-0.0726128
-0.0756389
-0.0785461
-0.0813394
-0.0840242
-0.0866052
-0.0890867
-0.0914731
-0.0937686
-0.0959766
-0.098101
-0.100145
-0.102113
-0.104006
-0.10583
-0.107585
-0.109276
-0.110906
-0.112476
-0.113991
-0.115454
-0.116867
-0.118233
-0.119557
-0.120842
-0.122092
-0.123312
-0.124505
-0.125679
-0.126838
-0.127989
-0.129138
-0.130293
-0.131462
-0.132652
-0.133875
-0.135138
-0.136454
-0.137833
-0.139289
-0.140834
-0.142485
-0.144254
-0.146165
-0.148228
-0.150108
-0.151671
-0.153275
-0.154933
-0.156644
-0.158409
-0.160231
-0.162109
-0.164046
-0.166042
-0.168105
-0.170228
-0.172429
-0.174689
-0.177055
-0.179467
-0.182044
-0.184622
-0.187506
-0.190259
-0.193645
-0.196585
-0.200812
-0.203955
-0.209056
-0.00431633
0.0055737
-0.000678325
-0.00795194
-0.0136467
-0.0190411
-0.0243875
-0.0294631
-0.0342883
-0.038906
-0.0433248
-0.0475519
-0.0515993
-0.0554771
-0.0591943
-0.0627589
-0.0661788
-0.069461
-0.0726121
-0.0756383
-0.0785455
-0.0813389
-0.0840237
-0.0866047
-0.0890863
-0.0914727
-0.0937682
-0.0959762
-0.0981007
-0.100145
-0.102112
-0.104006
-0.105829
-0.107585
-0.109276
-0.110906
-0.112476
-0.113991
-0.115454
-0.116866
-0.118233
-0.119557
-0.120841
-0.122092
-0.123311
-0.124505
-0.125679
-0.126838
-0.127989
-0.129138
-0.130293
-0.131462
-0.132653
-0.133875
-0.135139
-0.136455
-0.137834
-0.13929
-0.140835
-0.142486
-0.144255
-0.146167
-0.14823
-0.15011
-0.151674
-0.153278
-0.154936
-0.156648
-0.158413
-0.160235
-0.162112
-0.16405
-0.166046
-0.168108
-0.170231
-0.172432
-0.174691
-0.177055
-0.179465
-0.182038
-0.184613
-0.187486
-0.190234
-0.193584
-0.196511
-0.200621
-0.203656
-0.208478
-0.00452534
0.00554048
-0.000690824
-0.00795897
-0.0136493
-0.0190416
-0.024387
-0.029462
-0.034287
-0.0389047
-0.0433235
-0.0475506
-0.0515981
-0.055476
-0.0591932
-0.0627579
-0.0661778
-0.0694601
-0.0726113
-0.0756375
-0.0785448
-0.0813382
-0.0840231
-0.0866041
-0.0890857
-0.0914722
-0.0937677
-0.0959758
-0.0981002
-0.100145
-0.102112
-0.104006
-0.105829
-0.107585
-0.109276
-0.110905
-0.112476
-0.113991
-0.115453
-0.116866
-0.118233
-0.119556
-0.120841
-0.122092
-0.123311
-0.124505
-0.125679
-0.126838
-0.127989
-0.129138
-0.130293
-0.131462
-0.132653
-0.133875
-0.135139
-0.136455
-0.137835
-0.139291
-0.140836
-0.142487
-0.144257
-0.146169
-0.148232
-0.150112
-0.151676
-0.153281
-0.154938
-0.15665
-0.158415
-0.160236
-0.162114
-0.164051
-0.166046
-0.168108
-0.170229
-0.172428
-0.174686
-0.177047
-0.179453
-0.182019
-0.184588
-0.187443
-0.190182
-0.193481
-0.196385
-0.200346
-0.203254
-0.207765
-0.00476946
0.00549577
-0.000708107
-0.00796985
-0.0136544
-0.0190436
-0.0243875
-0.0294616
-0.0342861
-0.0389035
-0.0433223
-0.0475493
-0.0515968
-0.0554747
-0.0591921
-0.0627568
-0.0661768
-0.0694591
-0.0726103
-0.0756366
-0.0785439
-0.0813374
-0.0840223
-0.0866034
-0.0890851
-0.0914715
-0.0937671
-0.0959752
-0.0980997
-0.100144
-0.102111
-0.104005
-0.105828
-0.107584
-0.109275
-0.110905
-0.112476
-0.11399
-0.115453
-0.116866
-0.118232
-0.119556
-0.120841
-0.122091
-0.123311
-0.124505
-0.125679
-0.126838
-0.127989
-0.129138
-0.130293
-0.131462
-0.132653
-0.133875
-0.135139
-0.136455
-0.137835
-0.139291
-0.140837
-0.142488
-0.144257
-0.146169
-0.148232
-0.150112
-0.151676
-0.153281
-0.154938
-0.156649
-0.158414
-0.160234
-0.162111
-0.164047
-0.166041
-0.168101
-0.170219
-0.172416
-0.174669
-0.177024
-0.179424
-0.181979
-0.184538
-0.187366
-0.190089
-0.193318
-0.196184
-0.199961
-0.202726
-0.206899
-0.00504435
0.00543702
-0.000730847
-0.00798545
-0.0136629
-0.019048
-0.0243896
-0.0294623
-0.0342859
-0.0389028
-0.0433213
-0.0475482
-0.0515956
-0.0554735
-0.0591908
-0.0627556
-0.0661756
-0.069458
-0.0726093
-0.0756356
-0.0785429
-0.0813365
-0.0840214
-0.0866025
-0.0890843
-0.0914708
-0.0937663
-0.0959745
-0.098099
-0.100143
-0.102111
-0.104005
-0.105828
-0.107584
-0.109275
-0.110904
-0.112475
-0.11399
-0.115453
-0.116865
-0.118232
-0.119556
-0.120841
-0.122091
-0.123311
-0.124505
-0.125678
-0.126838
-0.127988
-0.129138
-0.130293
-0.131462
-0.132652
-0.133875
-0.135139
-0.136455
-0.137834
-0.139291
-0.140836
-0.142487
-0.144256
-0.146167
-0.14823
-0.15011
-0.151673
-0.153277
-0.154933
-0.156643
-0.158407
-0.160226
-0.162101
-0.164035
-0.166026
-0.168082
-0.170196
-0.172387
-0.174634
-0.176979
-0.179369
-0.181906
-0.184449
-0.187237
-0.189936
-0.19307
-0.195879
-0.199438
-0.202043
-0.205858
-0.00533987
0.00536128
-0.000759631
-0.00800654
-0.0136756
-0.0190554
-0.0243939
-0.0294646
-0.0342869
-0.038903
-0.0433209
-0.0475475
-0.0515947
-0.0554724
-0.0591897
-0.0627544
-0.0661744
-0.0694568
-0.0726081
-0.0756345
-0.0785419
-0.0813355
-0.0840204
-0.0866016
-0.0890833
-0.0914699
-0.0937655
-0.0959737
-0.0980982
-0.100143
-0.10211
-0.104004
-0.105827
-0.107583
-0.109274
-0.110904
-0.112474
-0.113989
-0.115452
-0.116865
-0.118231
-0.119555
-0.12084
-0.12209
-0.12331
-0.124504
-0.125678
-0.126837
-0.127988
-0.129137
-0.130292
-0.131461
-0.132651
-0.133874
-0.135137
-0.136453
-0.137833
-0.139289
-0.140833
-0.142484
-0.144252
-0.146163
-0.148225
-0.150102
-0.151664
-0.153267
-0.154922
-0.15663
-0.158391
-0.160207
-0.162079
-0.164008
-0.165995
-0.168045
-0.170152
-0.172334
-0.17457
-0.1769
-0.179275
-0.181783
-0.184303
-0.187034
-0.189693
-0.192706
-0.195432
-0.198741
-0.201171
-0.204621
-0.00563891
0.00526551
-0.000795022
-0.00803369
-0.0136931
-0.0190666
-0.0244012
-0.0294693
-0.0342897
-0.0389045
-0.0433215
-0.0475475
-0.0515943
-0.0554718
-0.0591889
-0.0627534
-0.0661734
-0.0694558
-0.072607
-0.0756334
-0.0785408
-0.0813344
-0.0840194
-0.0866006
-0.0890823
-0.0914689
-0.0937645
-0.0959728
-0.0980974
-0.100142
-0.102109
-0.104003
-0.105826
-0.107582
-0.109273
-0.110903
-0.112474
-0.113989
-0.115451
-0.116864
-0.118231
-0.119554
-0.120839
-0.12209
-0.123309
-0.124503
-0.125677
-0.126836
-0.127987
-0.129136
-0.130291
-0.131459
-0.13265
-0.133872
-0.135135
-0.13645
-0.137829
-0.139284
-0.140828
-0.142477
-0.144244
-0.146153
-0.148212
-0.150087
-0.151647
-0.153248
-0.154899
-0.156603
-0.158361
-0.160172
-0.162038
-0.163961
-0.165939
-0.16798
-0.170076
-0.172243
-0.174463
-0.176769
-0.17912
-0.181587
-0.18407
-0.186725
-0.189322
-0.192186
-0.194797
-0.197833
-0.200075
-0.203167
-0.00591781
0.00514743
-0.000837431
-0.00806723
-0.013716
-0.0190822
-0.0244122
-0.0294769
-0.0342949
-0.0389079
-0.0433238
-0.0475488
-0.051595
-0.0554719
-0.0591887
-0.062753
-0.0661727
-0.069455
-0.0726062
-0.0756324
-0.0785398
-0.0813334
-0.0840184
-0.0865995
-0.0890813
-0.0914679
-0.0937636
-0.0959718
-0.0980964
-0.100141
-0.102108
-0.104002
-0.105826
-0.107581
-0.109273
-0.110902
-0.112473
-0.113988
-0.115451
-0.116863
-0.11823
-0.119554
-0.120838
-0.122089
-0.123308
-0.124502
-0.125676
-0.126835
-0.127985
-0.129134
-0.130288
-0.131456
-0.132646
-0.133868
-0.13513
-0.136444
-0.137822
-0.139276
-0.140818
-0.142465
-0.144229
-0.146135
-0.14819
-0.150061
-0.151617
-0.153213
-0.154859
-0.156558
-0.158309
-0.160112
-0.161969
-0.163881
-0.165847
-0.167872
-0.169951
-0.172095
-0.174291
-0.176563
-0.178876
-0.181286
-0.183714
-0.186269
-0.188776
-0.191461
-0.193923
-0.196672
-0.198714
-0.201464
-0.00614714
0.00500623
-0.000886749
-0.00810714
-0.0137442
-0.0191023
-0.0244273
-0.0294882
-0.0343032
-0.038914
-0.0433281
-0.0475519
-0.0515971
-0.0554733
-0.0591895
-0.0627534
-0.0661728
-0.0694548
-0.0726058
-0.0756319
-0.0785391
-0.0813326
-0.0840176
-0.0865987
-0.0890805
-0.091467
-0.0937626
-0.0959709
-0.0980955
-0.10014
-0.102107
-0.104001
-0.105825
-0.10758
-0.109272
-0.110901
-0.112472
-0.113987
-0.11545
-0.116862
-0.118229
-0.119553
-0.120837
-0.122087
-0.123307
-0.124501
-0.125674
-0.126832
-0.127982
-0.129131
-0.130285
-0.131452
-0.132641
-0.133861
-0.135122
-0.136435
-0.13781
-0.139261
-0.1408
-0.142444
-0.144204
-0.146104
-0.148153
-0.150017
-0.151566
-0.153157
-0.154794
-0.156484
-0.158223
-0.160015
-0.161857
-0.163753
-0.1657
-0.167702
-0.169754
-0.171865
-0.174023
-0.176245
-0.178505
-0.180837
-0.183183
-0.185611
-0.187993
-0.190475
-0.192754
-0.195208
-0.197043
-0.199473
-0.00629243
0.00484303
-0.000941895
-0.00815308
-0.0137775
-0.0191267
-0.0244463
-0.0295032
-0.0343148
-0.0389231
-0.0433352
-0.0475574
-0.0516013
-0.0554765
-0.0591919
-0.0627551
-0.066174
-0.0694555
-0.0726062
-0.0756321
-0.0785391
-0.0813324
-0.0840172
-0.0865982
-0.0890799
-0.0914664
-0.093762
-0.0959702
-0.0980947
-0.100139
-0.102107
-0.104001
-0.105824
-0.10758
-0.109271
-0.1109
-0.112471
-0.113986
-0.115449
-0.116861
-0.118228
-0.119551
-0.120836
-0.122086
-0.123305
-0.124498
-0.125671
-0.126829
-0.127979
-0.129126
-0.130279
-0.131445
-0.132632
-0.13385
-0.135109
-0.136419
-0.137791
-0.139238
-0.140773
-0.142411
-0.144164
-0.146055
-0.148094
-0.149947
-0.151486
-0.153066
-0.154691
-0.156366
-0.158089
-0.159862
-0.161682
-0.163553
-0.165471
-0.167438
-0.169451
-0.171514
-0.173617
-0.17577
-0.177952
-0.18018
-0.182413
-0.184686
-0.186906
-0.189162
-0.191229
-0.193388
-0.195012
-0.197144
-0.00631571
0.00466091
-0.00100029
-0.0082044
-0.0138149
-0.0191545
-0.0244689
-0.0295216
-0.0343298
-0.0389353
-0.0433452
-0.0475656
-0.051608
-0.0554819
-0.0591963
-0.0627586
-0.0661768
-0.0694578
-0.0726079
-0.0756334
-0.0785401
-0.0813331
-0.0840177
-0.0865985
-0.08908
-0.0914664
-0.0937618
-0.0959699
-0.0980944
-0.100139
-0.102106
-0.104
-0.105823
-0.107579
-0.10927
-0.1109
-0.11247
-0.113985
-0.115448
-0.11686
-0.118226
-0.11955
-0.120834
-0.122084
-0.123302
-0.124495
-0.125667
-0.126825
-0.127973
-0.129119
-0.13027
-0.131434
-0.132618
-0.133834
-0.135089
-0.136394
-0.137761
-0.139203
-0.140729
-0.142358
-0.144101
-0.145979
-0.148002
-0.149837
-0.151362
-0.152925
-0.154531
-0.156183
-0.157882
-0.159627
-0.161415
-0.163248
-0.165123
-0.167041
-0.168997
-0.170991
-0.173016
-0.175074
-0.177148
-0.179243
-0.181327
-0.183414
-0.185437
-0.187446
-0.18928
-0.19115
-0.192563
-0.194412
-0.00617833
0.00446578
-0.00105774
-0.00826014
-0.0138556
-0.0191844
-0.0244938
-0.0295428
-0.0343475
-0.0389503
-0.043358
-0.0475764
-0.0516172
-0.0554898
-0.0592029
-0.0627643
-0.0661816
-0.0694618
-0.0726114
-0.0756363
-0.0785425
-0.0813352
-0.0840194
-0.0865999
-0.0890811
-0.0914673
-0.0937625
-0.0959705
-0.0980948
-0.100139
-0.102106
-0.104
-0.105823
-0.107579
-0.10927
-0.110899
-0.11247
-0.113985
-0.115447
-0.116859
-0.118225
-0.119548
-0.120832
-0.122081
-0.123299
-0.124491
-0.125662
-0.126818
-0.127964
-0.129108
-0.130257
-0.131417
-0.132598
-0.133809
-0.135058
-0.136357
-0.137716
-0.139148
-0.140663
-0.142278
-0.144004
-0.145862
-0.147861
-0.149671
-0.151173
-0.152711
-0.154288
-0.155908
-0.15757
-0.159273
-0.161014
-0.162793
-0.164606
-0.166453
-0.168328
-0.170228
-0.172145
-0.174076
-0.176008
-0.177935
-0.179834
-0.181705
-0.1835
-0.185249
-0.186836
-0.188424
-0.189626
-0.191204
-0.0058459
0.00426981
-0.00110908
-0.00831919
-0.0138983
-0.0192148
-0.0245195
-0.0295651
-0.0343667
-0.0389669
-0.0433726
-0.0475893
-0.0516285
-0.0554997
-0.0592117
-0.062772
-0.0661884
-0.0694678
-0.0726166
-0.0756409
-0.0785466
-0.0813387
-0.0840225
-0.0866026
-0.0890836
-0.0914695
-0.0937644
-0.0959721
-0.0980962
-0.10014
-0.102107
-0.104001
-0.105824
-0.10758
-0.10927
-0.1109
-0.11247
-0.113985
-0.115447
-0.116859
-0.118224
-0.119547
-0.12083
-0.122078
-0.123295
-0.124485
-0.125655
-0.126808
-0.127952
-0.129093
-0.130237
-0.131393
-0.132568
-0.133771
-0.135012
-0.136301
-0.137648
-0.139065
-0.140564
-0.142158
-0.143859
-0.145687
-0.147649
-0.149421
-0.15089
-0.152391
-0.153926
-0.155498
-0.157107
-0.158749
-0.160423
-0.162125
-0.163851
-0.165599
-0.167362
-0.169135
-0.17091
-0.172679
-0.17443
-0.176154
-0.177833
-0.179461
-0.181006
-0.182485
-0.183817
-0.185129
-0.186122
-0.187434
-0.00529633
0.00409274
-0.00114643
-0.00838007
-0.0139418
-0.0192439
-0.0245441
-0.0295868
-0.0343856
-0.0389837
-0.0433878
-0.047603
-0.0516408
-0.0555109
-0.0592218
-0.0627812
-0.0661968
-0.0694753
-0.0726235
-0.0756471
-0.0785522
-0.0813439
-0.0840272
-0.0866069
-0.0890874
-0.091473
-0.0937676
-0.095975
-0.0980989
-0.100143
-0.10211
-0.104003
-0.105826
-0.107581
-0.109272
-0.110901
-0.112471
-0.113985
-0.115447
-0.116858
-0.118223
-0.119545
-0.120827
-0.122074
-0.123289
-0.124478
-0.125644
-0.126795
-0.127935
-0.12907
-0.130208
-0.131357
-0.132523
-0.133716
-0.134945
-0.136218
-0.137547
-0.138943
-0.140415
-0.141979
-0.143643
-0.145426
-0.147335
-0.149053
-0.150472
-0.151919
-0.153393
-0.154898
-0.15643
-0.157988
-0.159566
-0.161161
-0.162769
-0.164384
-0.165999
-0.167607
-0.169199
-0.170768
-0.172301
-0.173789
-0.175219
-0.176583
-0.177861
-0.179065
-0.18014
-0.181182
-0.181965
-0.183014
-0.00453517
0.00395166
-0.00115248
-0.00843931
-0.0139848
-0.0192699
-0.0245658
-0.0296062
-0.0344024
-0.0389987
-0.0434015
-0.0476156
-0.0516525
-0.0555218
-0.0592319
-0.0627906
-0.0662055
-0.0694835
-0.072631
-0.0756542
-0.0785588
-0.08135
-0.0840329
-0.0866122
-0.0890924
-0.0914776
-0.0937719
-0.0959791
-0.0981027
-0.100146
-0.102113
-0.104006
-0.105829
-0.107584
-0.109274
-0.110903
-0.112473
-0.113986
-0.115447
-0.116858
-0.118222
-0.119543
-0.120823
-0.122068
-0.123281
-0.124466
-0.125629
-0.126775
-0.127909
-0.129037
-0.130167
-0.131304
-0.132458
-0.133635
-0.134845
-0.136096
-0.137399
-0.138762
-0.140197
-0.141716
-0.143327
-0.145044
-0.146875
-0.148515
-0.149864
-0.151234
-0.152623
-0.154032
-0.155459
-0.156899
-0.158347
-0.1598
-0.16125
-0.162692
-0.164117
-0.16552
-0.166891
-0.168222
-0.169504
-0.170728
-0.171886
-0.172973
-0.173974
-0.174902
-0.175718
-0.176497
-0.177069
-0.177856
-0.00362318
0.00385282
-0.0010998
-0.00848835
-0.0140244
-0.0192904
-0.0245828
-0.0296216
-0.0344152
-0.0390101
-0.0434121
-0.0476255
-0.0516618
-0.0555305
-0.0592402
-0.0627985
-0.066213
-0.0694907
-0.0726379
-0.0756608
-0.0785651
-0.081356
-0.0840386
-0.0866177
-0.0890976
-0.0914826
-0.0937767
-0.0959836
-0.098107
-0.10015
-0.102117
-0.10401
-0.105832
-0.107587
-0.109277
-0.110905
-0.112475
-0.113988
-0.115448
-0.116858
-0.11822
-0.119539
-0.120818
-0.12206
-0.123269
-0.12445
-0.125607
-0.126746
-0.127871
-0.128989
-0.130105
-0.131227
-0.132362
-0.133516
-0.134699
-0.135918
-0.137182
-0.138499
-0.13988
-0.141333
-0.142867
-0.144492
-0.146213
-0.147743
-0.148994
-0.150256
-0.151526
-0.152805
-0.154089
-0.155373
-0.156652
-0.157919
-0.159169
-0.160395
-0.161591
-0.162749
-0.163862
-0.164924
-0.165929
-0.16687
-0.167742
-0.168543
-0.169266
-0.169919
-0.170481
-0.171003
-0.171365
-0.171894
-0.00268404
0.0037779
-0.000971772
-0.00851095
-0.0140533
-0.019301
-0.024592
-0.0296307
-0.0344224
-0.0390162
-0.0434176
-0.0476307
-0.0516667
-0.0555353
-0.0592449
-0.0628031
-0.0662176
-0.0694951
-0.0726423
-0.0756651
-0.0785694
-0.0813603
-0.0840428
-0.0866218
-0.0891017
-0.0914866
-0.0937806
-0.0959874
-0.0981108
-0.100154
-0.10212
-0.104013
-0.105835
-0.10759
-0.109279
-0.110907
-0.112476
-0.113988
-0.115447
-0.116856
-0.118217
-0.119533
-0.120809
-0.122047
-0.123251
-0.124426
-0.125575
-0.126703
-0.127816
-0.128919
-0.130016
-0.131116
-0.132223
-0.133345
-0.134488
-0.13566
-0.136868
-0.13812
-0.139423
-0.140784
-0.142209
-0.143705
-0.145274
-0.146652
-0.147769
-0.148886
-0.149998
-0.151105
-0.152203
-0.153287
-0.154351
-0.15539
-0.156397
-0.157367
-0.158295
-0.159176
-0.160003
-0.160774
-0.161485
-0.162132
-0.162713
-0.163229
-0.163677
-0.164064
-0.164376
-0.164653
-0.164811
-0.165089
-0.00179653
0.0036764
-0.000808507
-0.0085043
-0.0140642
-0.0192958
-0.0245888
-0.0296303
-0.0344214
-0.0390148
-0.0434165
-0.0476297
-0.0516658
-0.0555346
-0.0592445
-0.0628029
-0.0662176
-0.0694954
-0.0726428
-0.0756658
-0.0785702
-0.0813613
-0.084044
-0.0866231
-0.0891031
-0.0914882
-0.0937822
-0.0959891
-0.0981125
-0.100156
-0.102122
-0.104015
-0.105837
-0.107591
-0.10928
-0.110908
-0.112476
-0.113987
-0.115445
-0.116851
-0.11821
-0.119523
-0.120794
-0.122027
-0.123224
-0.124389
-0.125527
-0.126641
-0.127736
-0.128817
-0.129888
-0.130955
-0.132024
-0.133099
-0.134187
-0.135293
-0.136423
-0.137583
-0.138778
-0.140011
-0.141287
-0.142607
-0.14397
-0.145148
-0.146089
-0.147016
-0.147926
-0.148817
-0.149684
-0.150524
-0.151331
-0.152101
-0.15283
-0.153513
-0.154146
-0.154728
-0.155255
-0.155725
-0.156138
-0.156493
-0.156791
-0.157032
-0.157218
-0.157353
-0.157433
-0.157482
-0.157447
-0.157492
-0.000983537
0.00358251
-0.000666046
-0.00850436
-0.0140759
-0.0192862
-0.024579
-0.0296226
-0.0344136
-0.0390066
-0.0434088
-0.0476224
-0.051659
-0.0555283
-0.0592386
-0.0627975
-0.0662127
-0.0694909
-0.0726387
-0.0756621
-0.0785669
-0.0813583
-0.0840413
-0.0866208
-0.089101
-0.0914863
-0.0937806
-0.0959876
-0.0981111
-0.100154
-0.102121
-0.104014
-0.105835
-0.107589
-0.109279
-0.110905
-0.112472
-0.113983
-0.115438
-0.116842
-0.118198
-0.119506
-0.120771
-0.121996
-0.123183
-0.124336
-0.125458
-0.126552
-0.127622
-0.128672
-0.129706
-0.130729
-0.131743
-0.132753
-0.133764
-0.13478
-0.135803
-0.136837
-0.137885
-0.138947
-0.140023
-0.141112
-0.142208
-0.143129
-0.143848
-0.14454
-0.145202
-0.145833
-0.146429
-0.146986
-0.147502
-0.147973
-0.148398
-0.148774
-0.1491
-0.149376
-0.1496
-0.149774
-0.149898
-0.149973
-0.150002
-0.149987
-0.149929
-0.149834
-0.1497
-0.149541
-0.149331
-0.149161
-0.000430366
0.00355108
-0.000558258
-0.00850193
-0.0140859
-0.0192832
-0.024577
-0.0296215
-0.0344116
-0.0390036
-0.0434051
-0.0476182
-0.051655
-0.0555242
-0.0592344
-0.0627931
-0.0662084
-0.0694867
-0.0726347
-0.0756583
-0.0785632
-0.0813548
-0.084038
-0.0866176
-0.089098
-0.0914834
-0.0937778
-0.095985
-0.0981085
-0.100152
-0.102118
-0.104011
-0.105833
-0.107586
-0.109275
-0.110901
-0.112467
-0.113975
-0.115429
-0.11683
-0.118181
-0.119484
-0.120742
-0.121958
-0.123133
-0.12427
-0.125373
-0.126443
-0.127483
-0.128497
-0.129486
-0.130455
-0.131405
-0.132338
-0.133259
-0.134167
-0.135065
-0.135953
-0.136831
-0.137698
-0.138551
-0.139384
-0.140191
-0.140839
-0.141325
-0.141775
-0.142187
-0.14256
-0.142892
-0.14318
-0.143423