/*--------------------------------*- C++ -*----------------------------------*\
| =========                 |                                                 |
| \\      /  F ield         | OpenFOAM: The Open Source CFD Toolbox           |
|  \\    /   O peration     | Version:  2306                                  |
|   \\  /    A nd           | Website:  www.openfoam.com                      |
|    \\/     M anipulation  |                                                 |
\*---------------------------------------------------------------------------*/
FoamFile
{
    version     2.0;
    format      ascii;
    arch        "LSB;label=32;scalar=64";
    class       volScalarField;
    location    "1700";
    object      epsilon;
}
// * * * * * * * * * * * * * * * * * * * * * * * * * * * * * * * * * * * * * //

dimensions      [0 2 -3 0 0 0 0];

internalField   nonuniform List<scalar> 
20540
(
20389.7
48049.3
20381.1
48040.5
20344.5
48005.4
20277.7
47942.1
20175.2
47845.3
20030.2
47708.4
19834.9
47523.8
19579.9
47282.4
19254.3
46973.3
18845.3
46584.1
18338.6
46100
17717.8
45504.1
16965.2
44777
16062.3
43896.9
14991.8
42832
13740.1
41539.9
12303.5
39964.3
10697.2
38029.6
8967.78
35647.4
7171.17
32745.5
5392.84
29264.6
3748.53
25180.7
2373.55
20539.2
1383.6
15496.2
798.546
10338.4
512.663
5612.18
386.488
2237.85
327.863
772.952
289.608
365.811
267.403
268.536
263.774
238.116
264.039
229.852
264.108
230.099
264.165
239.128
268.759
271.249
291.612
372.381
330.481
789.324
392.506
2267.87
527.79
5661.33
835.621
10440.2
1466.28
15682.3
2533.5
20833.7
4020.13
25598.6
5810.78
29807.5
7767.41
33404
9767.83
36405.5
11717.8
38868.9
13534.3
40885.3
15165.8
42542
16595.9
43907.7
17828.4
45039.2
18876.7
45979.6
19758.9
46762.5
20494.1
47412
21101.4
47946.5
21598
48382.5
21999.9
48734.6
22320.8
49015.4
22572.9
49235.6
22766.6
49404.7
22910.7
49530.6
23013.1
49620
23079.9
49678.6
23116.8
49711.3
23128.3
49721.9
6.44654e+06
3.42156e+06
2.91057e+06
2.65421e+06
2.49177e+06
2.3825e+06
2.30486e+06
2.24658e+06
2.20144e+06
2.1657e+06
2.1368e+06
2.11308e+06
2.09333e+06
2.07675e+06
2.06267e+06
2.05067e+06
2.04031e+06
2.03138e+06
2.0236e+06
2.01681e+06
2.01085e+06
2.0056e+06
2.00096e+06
1.99684e+06
1.99317e+06
1.98989e+06
1.98696e+06
1.98433e+06
1.98195e+06
1.97982e+06
1.97787e+06
1.97613e+06
1.97453e+06
1.9731e+06
1.97176e+06
1.97056e+06
1.96947e+06
1.96849e+06
1.9676e+06
1.96681e+06
1.96614e+06
1.96557e+06
1.9651e+06
1.96474e+06
1.96452e+06
1.96445e+06
1.96453e+06
1.96479e+06
1.96527e+06
1.96598e+06
1.96696e+06
1.96824e+06
1.96989e+06
1.97192e+06
1.97443e+06
1.97743e+06
1.98104e+06
1.98525e+06
1.99024e+06
1.99599e+06
2.00274e+06
2.01043e+06
2.01939e+06
2.02792e+06
2.03531e+06
2.04312e+06
2.05147e+06
2.06032e+06
2.06969e+06
2.07958e+06
2.09004e+06
2.10111e+06
2.11278e+06
2.1251e+06
2.13815e+06
2.15184e+06
2.1666e+06
2.18177e+06
2.19894e+06
2.21552e+06
2.23672e+06
2.25381e+06
2.28365e+06
2.29858e+06
2.34423e+06
2.36535e+06
2.42426e+06
2.48403e+06
2.02729e+06
1.08257e+06
915257
831928
779199
743706
718505
699614
684990
673418
664067
656394
650010
644653
640105
636227
632883
629999
627488
625298
623375
621680
620183
618853
617671
616614
615668
614818
614053
613363
612737
612174
611658
611197
610767
610379
610027
609710
609422
609166
608947
608761
608605
608485
608407
608374
608390
608463
608599
608807
609099
609483
609980
610592
611350
612258
613349
614624
616138
617880
619923
622252
624961
627538
629773
632133
634648
637310
640126
643095
646228
649537
653014
656680
660549
664601
668942
673396
678392
683212
689284
694182
702551
706757
718995
724389
738723
767437
1.02887e+06
590034
503933
460053
431696
412373
398570
388182
380119
373727
368554
364306
360768
357797
355274
353122
351265
349663
348268
347051
345981
345039
344207
343467
342809
342221
341695
341222
340795
340412
340063
339750
339462
339205
338966
338749
338553
338377
338216
338073
337950
337846
337758
337689
337644
337624
337629
337666
337737
337848
338003
338209
338475
338804
339212
339700
340288
340974
341789
342726
343824
345075
346530
347910
349107
350371
351714
353134
354633
356210
357872
359622
361458
363385
365417
367529
369794
372089
374672
377114
380210
382635
386777
388858
394534
396779
403593
409179
627960
376118
325130
298715
281218
269096
260359
253747
248593
244495
241173
238440
236161
234246
232618
231228
230028
228992
228090
227303
226611
226000
225462
224982
224556
224175
223833
223527
223250
223001
222775
222572
222385
222218
222063
221922
221795
221680
221575
221482
221401
221333
221275
221229
221198
221182
221183
221203
221245
221311
221405
221531
221694
221895
222146
222447
222808
223231
223732
224309
224984
225753
226646
227490
228222
228996
229815
230679
231589
232544
233549
234603
235706
236858
238070
239321
240659
242001
243508
244910
246684
248042
250339
251481
254521
255254
260014
251674
425619
259097
226079
209101
197583
189444
183509
178984
175438
172607
170305
168407
166822
165488
164353
163382
162545
161820
161189
160638
160154
159726
159348
159012
158713
158446
158206
157991
157797
157622
157463
157320
157189
157072
156962
156863
156774
156692
156619
156553
156495
156446
156404
156371
156347
156334
156332
156342
156367
156408
156467
156547
156652
156782
156945
157139
157374
157649
157975
158349
158787
159285
159864
160409
160881
161380
161907
162460
163042
163651
164290
164957
165653
166376
167133
167911
168736
169559
170472
171319
172365
173165
174479
175112
176847
176849
180258
170286
308355
187334
164212
152872
145050
139399
135219
132002
129462
127424
125760
124384
123233
122261
121433
120725
120112
119582
119120
118716
118361
118047
117769
117522
117303
117106
116930
116771
116628
116500
116383
116277
116181
116094
116013
115940
115874
115814
115759
115710
115667
115630
115598
115572
115553
115541
115537
115541
115555
115580
115618
115669
115738
115823
115930
116059
116215
116397
116613
116861
117152
117481
117864
118224
118534
118862
119208
119569
119949
120344
120757
121187
121632
122094
122572
123064
123576
124091
124642
125166
125777
126257
127003
127343
128322
128060
130234
123066
233753
140229
122689
114866
109474
105495
102503
100173
98316.7
96816.2
95585.1
94563
93704.5
92978.4
92358.5
91826.6
91366.5
90967.6
90619.5
90314.6
90046.4
89809.2
89599.6
89412.6
89246.3
89097.3
88963.7
88843.5
88735.1
88637.4
88548.5
88468.3
88394.8
88328.9
88267.4
88211.5
88160.9
88115
88073
88035.4
88002.2
87973.5
87948.4
87927.7
87911.6
87900.5
87894.9
87895.5
87902.3
87916.8
87940.2
87972.9
88017.2
88072.8
88143.3
88228.3
88331.5
88451.9
88595.8
88760.2
88953.2
89171.2
89424.4
89661.5
89865.4
90081.4
90307.8
90544
90790.3
91046.3
91311.8
91588.5
91871
92165.5
92463.8
92774.1
93085
93407.3
93729.4
94053.6
94394.2
94680.8
95086.3
95256.5
95768.4
95490.3
96576.1
93032.1
183043
107911
93523.7
87900.7
84149.1
81339.6
79190
77494
76127.1
75012.3
74091.4
73322.7
72674.3
72123.9
71652.6
71247.3
70895.9
70590.7
70323.9
70090
69883.8
69701.4
69540
69395.8
69267.5
69152.4
69049.2
68956.3
68872.4
68796.8
68727.9
68665.8
68608.8
68557.6
68509.8
68466.2
68426.9
68391
68358.1
68328.7
68302.5
68279.6
68259.4
68242.3
68228.6
68218.4
68211.9
68209.9
68212.2
68219.5
68233
68252.8
68280.5
68315.8
68361.2
68416
68483.2
68561.5
68655.6
68762.7
68888.8
69030.6
69195.4
69349.4
69481
69620.5
69766.2
69917.6
70074.4
70237
70403.8
70578
70752.3
70935.8
71115.3
71306.8
71486.7
71684.2
71860
72056.3
72229.8
72394.9
72592.4
72666.7
72886.4
72688
72997.4
72512.6
146851
85035.1
72426.6
68141.6
65492.3
63512.4
61976.5
60747.7
59744.2
58916.7
58227.2
57647.6
57156
56736.7
56376.4
56065.3
55795
55559.5
55353.3
55172.1
55012.2
54870.4
54744.9
54632.6
54532.5
54442.7
54362
54289.4
54223.6
54164.4
54110.4
54061.7
54016.9
53976.7
53939
53904.6
53873.6
53845.2
53819
53795.6
53774.6
53756.1
53739.6
53725.4
53713.6
53704.2
53697.3
53693.5
53692.9
53695.5
53702.1
53713
53729.2
53750.3
53778.2
53812.1
53854.1
53903.1
53962.5
54029.8
54109.3
54198.3
54301.8
54398.5
54480.5
54567.2
54657.6
54751
54846.7
54945.8
55045.7
55150.7
55252.4
55361.7
55462.5
55575.2
55670.2
55785
55869.8
55980.6
56053.9
56140.9
56212.5
56234.4
56282
56173.6
56037.6
56896.5
120053
68450.5
56871.4
53352.2
51419.7
50022.9
48936.1
48056.7
47328.6
46720.3
46208.2
45774
45403
45084.6
44809.6
44571.1
44363.1
44181.4
44021.8
43881.2
43756.8
43646.3
43548.3
43460.5
43382.1
43311.7
43248.3
43191.2
43139.4
43092.8
43050.1
43011.7
42976.3
42944.5
42914.6
42887.2
42862.6
42839.9
42819
42800.2
42783.3
42768.2
42754.6
42742.6
42732.4
42723.9
42717
42712.2
42709.5
42709.1
42711.1
42715.9
42724.1
42735.4
42751.1
42770.4
42794.9
42823.5
42858.7
42898.3
42945.4
42997.8
43058.8
43115.8
43163.6
43214.1
43266.3
43320.1
43374.2
43430.4
43485.1
43543.7
43597.1
43656.7
43706.3
43766.2
43808.1
43867.2
43898.3
43950
43967.4
44001.9
44002
43995.8
43960.7
43881.6
43595.3
44676.4
99635.8
56186
45257.1
42133.6
40636.6
39635
38871.4
38252.5
37734.2
37295.4
36921.5
36601
36324.7
36085.7
35878
35696.8
35538.1
35398.8
35276
35167.4
35071.1
34985.3
34909.1
34840.5
34779.3
34724.2
34674.5
34629.6
34588.9
34552.2
34518.5
34488.2
34460.1
34435
34411.2
34389.5
34369.8
34351.7
34334.9
34319.9
34306.1
34293.9
34282.6
34272.6
34263.8
34256.1
34249.5
34244.2
34240.3
34237.9
34237
34237.8
34240.5
34245.2
34252.4
34261.8
34274.2
34288.7
34307.2
34327.7
34352.6
34379.8
34411.7
34441.6
34466.2
34492.1
34518.6
34545.7
34571.9
34599.3
34624.2
34651.9
34674.1
34700.7
34718.3
34742.7
34753.6
34774.8
34776.8
34786.8
34777.7
34774.2
34746
34719.9
34643.2
34574.3
34284.6
35183.5
83725.7
46955.8
36509.5
33557.6
32294.3
31541.6
31000.8
30571.5
30211.2
29902.9
29636.9
29406.3
29205.3
29029.7
28875.9
28740.7
28621.6
28516.4
28423.3
28340.6
28267
28201.2
28142.5
28089.6
28042.2
27999.4
27960.8
27925.8
27894
27865.3
27838.9
27815.2
27793.1
27773.3
27754.5
27737.3
27721.7
27707.4
27693.9
27681.9
27670.8
27660.9
27651.7
27643.3
27635.7
27629
27622.8
27617.5
27613.1
27609.4
27606.7
27604.9
27604.3
27604.5
27606.2
27608.8
27613.2
27618.3
27625.5
27633.3
27643.2
27653.7
27666.1
27677.7
27687.1
27696.8
27706.3
27715.9
27724
27732.8
27738.6
27746.5
27749.2
27754.3
27753.2
27754.2
27748.7
27745.1
27731.3
27720.8
27693.5
27674.2
27626.4
27592.1
27503.2
27436
27187.9
27854.9
71095.3
39893.5
29877.8
26976.3
25809
25193.1
24793.4
24494.6
24249.3
24039.5
23856.9
23696.8
23555.6
23431
23320.7
23222.8
23135.9
23058.7
22989.8
22928.4
22873.4
22823.9
22779.7
22739.7
22703.7
22671.1
22641.6
22614.9
22590.4
22568.3
22548
22529.6
22512.5
22497.2
22482.5
22469
22456.9
22445.6
22435
22425.5
22416.7
22408.8
22401.3
22394.3
22388
22382.2
22376.7
22371.7
22367.1
22362.9
22359.3
22356
22353.3
22350.8
22349
22347.4
22346.6
22345.7
22345.6
22345.2
22345.4
22345.3
22345.2
22345.2
22344.8
22344.5
22343.4
22342
22338.9
22336.2
22330.6
22326.3
22317.5
22311
22297.8
22288.3
22269.6
22256.5
22230.2
22212
22174.3
22148.9
22093.9
22056.2
21970.2
21904.2
21702.5
22181.9
60905
34400.8
24822.1
21918.2
20761.4
20199.9
19876
19658.1
19490.8
19351.7
19231.4
19125.5
19031.2
18947
18871.7
18804.1
18743.5
18689.2
18640.4
18596.5
18557
18521.2
18489.1
18459.8
18433.4
18409.3
18387.5
18367.6
18349.4
18332.9
18317.6
18303.8
18290.9
18279.3
18268.2
18257.9
18248.6
18240
18231.8
18224.4
18217.5
18211.4
18205.5
18199.9
18194.7
18189.8
18185.1
18180.6
18176.2
18172
18168
18164
18160.2
18156.2
18152.5
18148.5
18144.7
18140.2
18135.8
18130.6
18125.1
18118.6
18111.1
18104.4
18098.2
18092
18084.4
18077
18067.2
18058.5
18046
18035.8
18020
18008
17987.9
17973.8
17948.4
17931.7
17899.5
17878.5
17837.3
17810.3
17755.7
17717.9
17640.8
17578.4
17417.8
17760.4
52594.6
30053.8
20947.2
18029.9
16838.2
16275.8
15977.4
15799.6
15678.3
15585.4
15508.6
15442.2
15383.3
15330.4
15282.6
15239.2
15199.9
15164.3
15132
15102.6
15075.9
15051.6
15029.6
15009.4
14991
14974.3
14958.9
14944.9
14932
14920.2
14909.3
14899.4
14890.1
14881.7
14873.6
14866.1
14859.3
14852.9
14846.8
14841.4
14836.3
14831.7
14827.2
14822.8
14818.7
14814.8
14810.9
14807
14803.1
14799.2
14795.3
14791.1
14787
14782.4
14777.9
14772.6
14767.3
14761.1
14754.5
14746.8
14738.3
14728.6
14717.2
14707.1
14697.8
14688.7
14677.8
14667.5
14654.4
14642.9
14627.2
14614.3
14595.5
14581.3
14558.6
14542.9
14515.5
14497.8
14464.5
14443.6
14403.2
14377
14326.5
14291.1
14224.3
14167.4
14042
14286.6
45765.3
26543.4
17960.4
15041.4
13797.6
13201.8
12893.9
12724.3
12622.1
12553.8
12503.4
12463.1
12428.9
12398.7
12371.6
12346.9
12324.3
12303.5
12284.5
12267
12251
12236.1
12222.6
12209.9
12198.4
12187.8
12178
12169
12160.6
12153
12145.8
12139.3
12133.1
12127.5
12122.1
12117
12112.4
12108
12103.8
12100
12096.4
12093.2
12090
12086.8
12083.7
12080.7
12077.7
12074.5
12071.3
12067.9
12064.3
12060.5
12056.5
12052
12047.2
12041.8
12036
12029.2
12021.8
12013.3
12003.6
11992.7
11979.9
11968.5
11958.1
11948
11936
11924.8
11910.7
11898.4
11882
11868.5
11849.3
11834.8
11812.3
11796.6
11770
11752.8
11721.5
11701.9
11664.6
11640.8
11595.8
11564.5
11507.4
11457.8
11360.9
11534.9
40122.9
23634.3
15643.5
12744.7
11449.3
10805.7
10467
10282.8
10178.6
10116.7
10077.6
10051
10031.5
10016
10003
9991.54
9981.17
9971.64
9962.91
9954.72
9947.11
9939.9
9933.29
9926.95
9921.12
9915.66
9910.51
9905.77
9901.24
9897.14
9893.16
9889.6
9886.08
9882.94
9879.78
9876.76
9874.08
9871.47
9868.89
9866.63
9864.38
9862.4
9860.36
9858.25
9856.2
9854.1
9851.92
9849.57
9847.06
9844.29
9841.37
9838.05
9834.54
9830.43
9826.05
9820.87
9815.29
9808.73
9801.47
9793.14
9783.53
9772.84
9760.11
9748.91
9738.62
9728.7
9716.9
9705.99
9692.4
9680.51
9664.86
9651.99
9634.01
9620.17
9599.48
9584.61
9560.7
9544.6
9516.75
9498.91
9466.09
9445.29
9405.97
9379.44
9331.16
9290.58
9215.17
9338.77
35448.1
21134.9
13832
10979.1
9641.89
8948.54
8569.27
8356.74
8235.72
8165.98
8125.39
8101.65
8087.56
8079.07
8073.77
8070.39
8067.88
8065.95
8064.43
8063
8061.68
8060.29
8059.03
8057.64
8056.33
8055.03
8053.69
8052.44
8051.13
8049.96
8048.69
8047.61
8046.39
8045.34
8044.16
8042.97
8041.95
8040.88
8039.75
8038.81
8037.77
8036.87
8035.91
8034.8
8033.7
8032.47
8031.11
8029.55
8027.79
8025.76
8023.53
8020.89
8018.02
8014.57
8010.81
8006.3
8001.33
7995.49
7988.89
7981.37
7972.56
7962.82
7951.13
7940.86
7931.4
7922.32
7911.55
7901.58
7889.29
7878.42
7864.44
7852.67
7836.8
7824.14
7806.11
7792.51
7771.93
7757.24
7733.53
7717.44
7689.69
7671.47
7638.3
7616.26
7575.96
7544.08
7485.47
7573.18
31479.8
18993.6
12402.1
9619.97
8254.75
7517.02
7095.89
6849.14
6702.64
6615.39
6563.77
6533.93
6517.34
6508.91
6505.36
6504.93
6505.92
6507.94
6510.5
6513.19
6515.92
6518.42
6520.88
6523.02
6525.01
6526.81
6528.36
6529.81
6531
6532.17
6533.07
6533.99
6534.65
6535.32
6535.77
6536.12
6536.49
6536.73
6536.84
6537.06
6537.04
6537.1
6537.08
6536.86
6536.62
6536.18
6535.55
6534.76
6533.74
6532.45
6530.91
6529.01
6526.85
6524.17
6521.16
6517.48
6513.32
6508.42
6502.77
6496.35
6488.71
6480.29
6470.11
6461.14
6452.89
6444.93
6435.58
6426.81
6416.22
6406.62
6394.66
6384.23
6370.78
6359.5
6344.37
6332.19
6315.08
6301.92
6282.34
6267.99
6245.2
6229.25
6202.1
6183.66
6150.97
6126.36
6081.24
6143.24
27988.7
17162.8
11257.7
8569.39
7191.53
6418.62
5959.76
5678.74
5503.62
5393.77
5325.06
5282.78
5257.53
5243.39
5236.39
5234.16
5234.74
5237.06
5240.58
5244.71
5249.14
5253.51
5257.92
5262.06
5266.02
5269.76
5273.19
5276.45
5279.37
5282.17
5284.64
5287.02
5289.08
5291.04
5292.75
5294.29
5295.76
5297.03
5298.13
5299.28
5300.18
5301.07
5301.76
5302.3
5302.75
5303
5302.95
5302.88
5302.48
5301.91
5301.02
5299.83
5298.35
5296.44
5294.19
5291.37
5288.08
5284.17
5279.56
5274.3
5267.96
5260.95
5252.43
5244.85
5237.93
5231.16
5223.34
5215.83
5207
5198.73
5188.82
5179.77
5168.69
5158.85
5146.46
5135.78
5121.86
5110.27
5094.44
5081.83
5063.49
5049.67
5027.96
5012.54
4986.62
4967.91
4933.49
4977.1
24767.1
15586.5
10319.9
7748.33
6374.44
5577.5
5088.09
4776.67
4573.99
4440.46
4352.07
4293.86
4255.99
4232.05
4217.61
4209.76
4206.3
4206.01
4207.38
4210.4
4214.19
4218.37
4222.95
4227.47
4231.97
4236.39
4240.59
4244.65
4248.43
4252.07
4255.41
4258.63
4261.54
4264.29
4266.79
4269.09
4271.31
4273.3
4275.08
4276.87
4278.41
4279.92
4281.18
4282.26
4283.26
4284.06
4284.61
4285.04
4285.09
4285.06
4284.67
4284.16
4283.26
4282.04
4280.48
4278.46
4275.98
4273
4269.38
4265.22
4260.14
4254.46
4247.53
4241.27
4235.63
4229.99
4223.62
4217.32
4210.13
4203.14
4195.09
4187.4
4178.42
4170
4160
4150.82
4139.62
4129.65
4116.98
4106.14
4091.57
4079.83
4062.75
4050.07
4029.86
4015.81
3989.83
4020.29
21624.4
14190.2
9517.15
7089.1
5738.63
4930.63
4419.73
4084.19
3857.9
3702.63
3594.96
3520.04
3467.96
3432.09
3407.75
3391.74
3381.67
3375.99
3373.21
3372.85
3373.8
3375.91
3378.93
3382.23
3385.83
3389.65
3393.45
3397.25
3400.92
3404.55
3407.98
3411.33
3414.46
3417.42
3420.23
3422.77
3425.28
3427.59
3429.7
3431.8
3433.68
3435.5
3437.08
3438.49
3439.81
3440.97
3441.88
3442.66
3443.15
3443.48
3443.41
3443.31
3442.88
3442.23
3441.22
3439.84
3438.05
3435.86
3433.11
3429.9
3425.93
3421.4
3415.9
3410.81
3406.29
3401.67
3396.55
3391.36
3385.58
3379.78
3373.31
3366.89
3359.67
3352.61
3344.59
3336.87
3327.92
3319.51
3309.45
3300.36
3288.9
3279.15
3265.9
3255.7
3240.21
3229.78
3210.37
3231.45
18397.9
12864.7
8775.25
6528.02
5226.31
4423.41
3902.16
3550.61
3306.61
3133.74
3009.47
2919.32
2853.56
2805.56
2770.6
2745.35
2727.31
2714.73
2706.17
2700.74
2697.57
2696.07
2696.02
2696.67
2698.12
2700.17
2702.44
2704.95
2707.57
2710.32
2713.04
2715.77
2718.44
2720.99
2723.52
2725.83
2728.12
2730.31
2732.32
2734.31
2736.15
2737.94
2739.54
2741.03
2742.41
2743.64
2744.71
2745.62
2746.3
2746.85
2747.06
2747.13
2746.89
2746.63
2746.01
2745.1
2743.84
2742.25
2740.18
2737.72
2734.65
2731.07
2726.73
2722.64
2719.04
2715.3
2711.22
2706.99
2702.37
2697.62
2692.45
2687.17
2681.4
2675.58
2669.17
2662.81
2655.69
2648.77
2640.84
2633.39
2624.49
2616.6
2606.49
2598.46
2586.8
2579.14
2564.8
2579.21
14987.7
11445.2
8007.14
5997.78
4780.44
4004.67
3487.68
3130.56
2876.63
2692.07
2555.62
2453.51
2376.37
2317.75
2273.05
2238.91
2212.89
2193.1
2178.16
2167
2158.8
2152.84
2148.78
2146.04
2144.39
2143.68
2143.51
2143.87
2144.67
2145.79
2147.08
2148.54
2150.05
2151.6
2153.24
2154.85
2156.46
2158.07
2159.57
2161.08
2162.5
2163.9
2165.21
2166.42
2167.58
2168.61
2169.55
2170.36
2171
2171.56
2171.78
2171.9
2171.69
2171.58
2171.15
2170.52
2169.59
2168.37
2166.77
2164.84
2162.42
2159.56
2156.11
2152.83
2149.97
2146.95
2143.69
2140.26
2136.58
2132.73
2128.6
2124.32
2119.72
2115
2109.92
2104.77
2099.16
2093.59
2087.42
2081.46
2074.65
2068.44
2060.87
2054.69
2046.08
2040.54
2030.06
2039.75
11473.4
9658.56
7106.64
5420.46
4338.33
3621.09
3128.88
2780.45
2527.04
2338.72
2196.27
2087.04
2002.33
1936.06
1883.88
1842.57
1809.77
1783.63
1762.82
1746.21
1733.02
1722.51
1714.24
1707.72
1702.63
1698.74
1695.76
1693.55
1691.97
1690.91
1690.25
1689.98
1689.71
1689.84
1690.17
1690.66
1691.2
1691.83
1692.46
1693.14
1693.83
1694.54
1695.23
1695.89
1696.53
1697.11
1697.66
1698.11
1698.5
1698.77
1698.74
1698.77
1698.53
1698.38
1697.97
1697.38
1696.56
1695.51
1694.16
1692.54
1690.54
1688.19
1685.38
1682.72
1680.41
1677.96
1675.34
1672.57
1669.62
1666.52
1663.22
1659.79
1656.14
1652.37
1648.37
1644.29
1639.93
1635.54
1630.82
1626.19
1621.09
1616.33
1610.78
1606.13
1599.93
1595.93
1588.44
1594.8
7901.2
7376.72
5975.85
4704.73
3826.63
3212.15
2774
2454.46
2216.15
2035
1895.03
1785.39
1698.49
1628.96
1572.88
1527.32
1490.12
1459.56
1434.41
1413.59
1396.36
1382.02
1370.11
1360.19
1351.9
1345.01
1339.26
1334.46
1330.47
1327.16
1324.42
1322.17
1320.29
1318.75
1317.51
1316.52
1315.73
1315.13
1314.64
1314.28
1314.01
1313.81
1313.67
1313.57
1313.51
1313.45
1313.39
1313.32
1313.22
1313.09
1312.86
1312.57
1312.17
1311.7
1311.1
1310.38
1309.49
1308.43
1307.15
1305.67
1303.9
1301.87
1299.48
1297.28
1295.39
1293.38
1291.25
1289
1286.62
1284.13
1281.51
1278.78
1275.91
1272.94
1269.84
1266.66
1263.33
1259.97
1256.43
1252.94
1249.2
1245.66
1241.69
1238.27
1233.95
1231.05
1225.85
1229.9
4349.59
4814.97
4461.04
3752.19
3164.86
2709.8
2365.02
2102.04
1898.9
1739.99
1614.11
1513.23
1431.56
1364.8
1309.83
1264.19
1226.12
1194.13
1167.16
1144.28
1124.83
1108.21
1093.98
1081.74
1071.2
1062.1
1054.21
1047.37
1041.42
1036.24
1031.72
1027.76
1024.31
1021.27
1018.61
1016.27
1014.21
1012.4
1010.79
1009.37
1008.11
1006.99
1005.98
1005.07
1004.24
1003.48
1002.76
1002.08
1001.42
1000.78
1000.11
999.431
998.704
997.93
997.078
996.15
995.11
993.96
992.655
991.203
989.552
987.705
985.607
983.73
982.148
980.484
978.735
976.906
974.992
973.001
970.926
968.78
966.552
964.263
961.898
959.487
957.001
954.496
951.91
949.352
946.681
944.133
941.366
938.944
935.982
933.968
930.394
932.889
1598.43
2444.71
2629.93
2531.85
2302.84
2057.03
1848.19
1673.57
1529.85
1411.98
1314.96
1234.65
1167.76
1111.66
1064.35
1024.2
989.955
960.578
935.284
913.384
894.369
877.778
863.263
850.516
839.29
829.374
820.592
812.79
805.85
799.652
794.114
789.147
784.69
780.679
777.064
773.8
770.845
768.17
765.737
763.524
761.504
759.657
757.96
756.398
754.95
753.604
752.341
751.152
750.016
748.927
747.863
746.818
745.771
744.717
743.63
742.509
741.324
740.078
738.732
737.295
735.725
734.025
732.152
730.545
729.215
727.837
726.41
724.936
723.414
721.848
720.237
718.588
716.899
715.18
713.427
711.656
709.856
708.056
706.226
704.425
702.577
700.816
698.943
697.298
695.32
693.997
691.573
693.053
520.836
866.487
1141.42
1288.32
1300.61
1276.64
1222.06
1152.29
1085.51
1024.76
970.379
922.316
880.11
843.129
810.744
782.326
757.355
735.336
715.884
698.637
683.315
669.656
657.452
646.517
636.697
627.856
619.88
612.666
606.132
600.197
594.799
589.88
585.39
581.284
577.524
574.076
570.907
567.993
565.307
562.829
560.537
558.414
556.442
554.607
552.893
551.288
549.777
548.35
546.993
545.697
544.447
543.235
542.045
540.873
539.698
538.518
537.309
536.075
534.785
533.447
532.027
530.531
528.926
527.604
526.531
525.436
524.32
523.185
522.029
520.856
519.665
518.462
517.246
516.023
514.792
513.563
512.33
511.108
509.884
508.688
507.48
506.332
505.132
504.077
502.83
501.999
500.428
501.255
281.979
330.128
420.313
507.824
569.109
605.659
627.57
628.505
625.086
616.72
603.989
589.811
575.294
561.088
547.485
534.629
522.591
511.379
500.988
491.379
482.516
474.34
466.805
459.857
453.45
447.538
442.081
437.039
432.378
428.063
424.068
420.364
416.928
413.738
410.773
408.015
405.448
403.057
400.827
398.747
396.801
394.982
393.277
391.677
390.17
388.752
387.409
386.136
384.924
383.765
382.65
381.573
380.523
379.496
378.478
377.469
376.45
375.426
374.374
373.301
372.183
371.028
369.81
368.848
368.081
367.31
366.535
365.757
364.975
364.193
363.41
362.627
361.847
361.071
360.3
359.538
358.784
358.044
357.312
356.601
355.894
355.223
354.537
353.926
353.228
352.767
351.803
352.245
227.197
228.86
238.406
259.03
283.174
304.151
322.613
335.838
345.273
351.523
355.493
356.499
356.057
355.295
353.349
350.922
347.981
344.774
341.452
338.07
334.714
331.408
328.176
325.039
322.016
319.115
316.342
313.696
311.178
308.783
306.511
304.356
302.316
300.385
298.559
296.832
295.201
293.659
292.204
290.828
289.529
288.301
287.139
286.04
284.997
284.008
283.068
282.173
281.318
280.499
279.711
278.951
278.213
277.494
276.786
276.09
275.394
274.702
274.001
273.296
272.576
271.839
271.083
270.516
270.076
269.643
269.218
268.794
268.381
267.974
267.571
267.18
266.796
266.42
266.06
265.707
265.364
265.035
264.714
264.409
264.112
263.832
263.557
263.302
263.048
262.798
262.396
262.587
214.579
204.733
199.55
200.734
204.714
212.498
221.655
230.718
238.959
246.104
252.062
256.888
260.32
263.103
264.644
266.08
266.138
265.912
265.749
265.095
264.27
263.264
262.102
260.84
259.52
258.166
256.796
255.422
254.058
252.712
251.395
250.11
248.864
247.657
246.494
245.373
244.299
243.268
242.283
241.341
240.443
239.587
238.773
237.998
237.261
236.561
235.897
235.267
234.671
234.104
233.569
233.06
232.579
232.123
231.688
231.28
230.887
230.515
230.164
229.822
229.504
229.225
228.702
228.583
228.103
227.978
228
227.624
227.537
227.59
227.291
227.236
227.305
227.109
227.276
227.133
227.19
227.254
227.111
227.198
227.129
227.223
227.219
227.309
227.231
227.346
227.534
227.552
214.991
205.192
200.476
202.005
206.636
215.225
225.074
234.718
243.494
251.002
257.298
262.325
265.903
268.798
270.353
271.819
271.821
271.59
271.356
270.673
269.746
268.637
267.384
266.034
264.624
263.179
261.719
260.257
258.808
257.38
255.985
254.624
253.307
252.03
250.802
249.618
248.485
247.396
246.358
245.365
244.421
243.52
242.666
241.854
241.087
240.36
239.678
239.03
238.431
237.858
237.341
236.84
236.4
235.976
235.599
235.267
234.944
234.689
234.451
234.262
234.086
233.947
233.822
233.83
233.636
233.592
233.548
233.529
233.517
233.603
233.733
233.89
234.072
234.273
234.493
234.721
234.954
235.192
235.431
235.671
235.912
236.149
236.39
236.618
236.865
237.064
237.353
237.434
228.964
231.338
242.672
266.428
293.646
317.417
338.191
353.035
363.668
370.578
374.997
376.03
375.517
374.6
372.34
369.574
366.239
362.627
358.894
355.118
351.36
347.661
344.051
340.552
337.181
333.946
330.853
327.901
325.092
322.42
319.887
317.483
315.21
313.055
311.02
309.093
307.276
305.557
303.938
302.408
300.97
299.612
298.338
297.137
296.014
294.957
293.975
293.051
292.204
291.407
290.69
290.02
289.427
288.887
288.409
288.01
287.651
287.376
287.168
286.996
286.993
286.648
286.792
286.708
286.839
287.003
287.188
287.411
287.675
287.981
288.321
288.688
289.073
289.47
289.875
290.283
290.694
291.105
291.515
291.921
292.327
292.72
293.121
293.492
293.901
294.213
294.7
294.785
286.751
340.163
440.429
536.748
604.636
644.934
668.637
669.251
665.282
655.68
641.405
625.645
609.535
593.844
578.838
564.671
551.408
539.06
527.616
517.033
507.267
498.257
489.946
482.278
475.202
468.666
462.626
457.039
451.868
447.076
442.633
438.508
434.679
431.116
427.805
424.719
421.847
419.168
416.672
414.343
412.172
410.146
408.259
406.498
404.864
403.339
401.933
400.624
399.428
398.32
397.325
396.41
395.61
394.884
394.28
393.743
393.343
392.987
392.805
392.64
392.406
392.286
392.375
392.652
393.01
393.39
393.794
394.222
394.672
395.145
395.639
396.154
396.688
397.237
397.799
398.371
398.948
399.527
400.107
400.679
401.253
401.809
402.376
402.899
403.475
403.917
404.595
404.74
534.919
899.87
1195.48
1350.81
1364.91
1339.17
1280.77
1206.35
1135.44
1070.93
1013.15
962.053
917.132
877.723
843.171
812.8
786.067
762.448
741.541
722.963
706.419
691.638
678.399
666.507
655.799
646.133
637.388
629.457
622.251
615.687
609.7
604.227
599.218
594.623
590.406
586.526
582.955
579.663
576.628
573.824
571.236
568.844
566.637
564.596
562.719
560.986
559.4
557.946
556.623
555.428
554.354
553.406
552.574
551.869
551.283
550.813
550.494
550.252
550.128
549.926
550.018
550.275
550.691
551.263
551.795
552.378
553.003
553.66
554.343
555.048
555.771
556.511
557.266
558.032
558.808
559.588
560.372
561.151
561.93
562.695
563.463
564.2
564.957
565.641
566.417
566.972
567.914
568.007
1635.5
2519.63
2718.4
2618.74
2383.5
2129.1
1912.42
1730.68
1580.83
1457.68
1356.12
1271.82
1201.45
1142.26
1092.21
1049.58
1013.12
981.728
954.599
931.016
910.455
892.44
876.608
862.64
850.28
839.307
829.539
820.817
813.012
806.007
799.709
794.032
788.905
784.267
780.063
776.246
772.776
769.616
766.737
764.11
761.715
759.528
757.536
755.718
754.07
752.569
751.226
750.012
748.936
747.993
747.175
746.494
745.932
745.521
745.178
745.079
744.877
744.872
745.094
745.52
746.059
746.759
747.609
748.573
749.42
750.318
751.255
752.222
753.212
754.221
755.244
756.278
757.321
758.368
759.418
760.464
761.507
762.538
763.563
764.564
765.563
766.521
767.497
768.385
769.366
770.119
771.196
771.227
4418.24
4922.22
4568.69
3853.12
3251.86
2784.03
2428.47
2156.35
1945.52
1780.05
1648.55
1542.76
1456.81
1386.24
1327.88
1279.19
1238.36
1203.85
1174.58
1149.59
1128.21
1109.79
1093.9
1080.13
1068.16
1057.73
1048.61
1040.61
1033.58
1027.39
1021.92
1017.09
1012.8
1009
1005.61
1002.6
999.92
997.517
995.374
993.459
991.753
990.232
988.882
987.684
986.636
985.709
984.937
984.236
983.678
983.24
982.933
982.724
982.733
982.561
982.72
983.064
983.575
984.219
985.004
985.943
987.038
988.32
989.772
991.238
992.476
993.758
995.076
996.42
997.786
999.165
1000.56
1001.95
1003.35
1004.74
1006.13
1007.5
1008.86
1010.2
1011.53
1012.81
1014.1
1015.32
1016.57
1017.69
1018.94
1019.88
1021.3
1021.28
8011.01
7501.52
6100.32
4809.25
3912.52
3281.91
2830.41
2499.74
2252.13
2063.05
1916.29
1800.7
1708.61
1634.41
1574.2
1524.86
1484.29
1450.62
1422.66
1399.24
1379.63
1363.11
1349.18
1337.38
1327.39
1318.89
1311.67
1305.5
1300.25
1295.76
1291.91
1288.64
1285.83
1283.44
1281.39
1279.64
1278.19
1276.88
1275.81
1274.91
1274.18
1273.58
1273.11
1272.74
1272.47
1272.31
1272.24
1272.03
1272.16
1272.39
1272.73
1273.16
1273.73
1274.38
1275.13
1276.04
1277.1
1278.33
1279.74
1281.34
1283.1
1285.07
1287.22
1289.26
1290.95
1292.68
1294.44
1296.22
1298.02
1299.83
1301.65
1303.46
1305.26
1307.05
1308.83
1310.59
1312.32
1314.02
1315.7
1317.32
1318.95
1320.46
1322.05
1323.42
1325.03
1326.13
1328
1327.93
11616.6
9795.39
7228.48
5518.44
4413.96
3677.64
3169.67
2808.12
2543.73
2345.99
2195.46
2079.09
1988.13
1916.25
1859.09
1813.24
1776.39
1746.53
1722.39
1702.71
1686.73
1673.7
1663.1
1654.46
1647.46
1641.76
1637.19
1633.48
1630.58
1628.23
1626.4
1625.01
1623.97
1623.25
1622.72
1622.42
1622.34
1622.11
1622.23
1622.45
1622.77
1623.14
1623.57
1624.05
1624.58
1625.16
1625.82
1626.46
1627.22
1628.03
1628.94
1629.95
1631.08
1632.32
1633.69
1635.22
1636.91
1638.78
1640.82
1643.07
1645.52
1648.19
1651.07
1653.72
1655.91
1658.13
1660.38
1662.65
1664.94
1667.22
1669.51
1671.79
1674.06
1676.3
1678.52
1680.7
1682.87
1684.97
1687.06
1689.05
1691.08
1692.93
1694.92
1696.57
1698.62
1699.88
1702.29
1702.14
15155.9
11564.5
8111
6076.52
4834.09
4036.58
3501.5
3129.21
2862.48
2666.88
2520.88
2410.33
2325.8
2260.55
2210.02
2170.59
2139.92
2115.88
2097.22
2082.66
2071.41
2062.78
2056.22
2051.31
2047.73
2045.17
2043.48
2042.41
2041.97
2041.73
2041.95
2042.45
2043.15
2044
2044.91
2045.94
2047.04
2048.08
2049.21
2050.33
2051.51
2052.67
2053.83
2055.02
2056.19
2057.4
2058.66
2059.9
2061.22
2062.55
2063.97
2065.5
2067.14
2068.92
2070.83
2072.91
2075.16
2077.61
2080.27