/*--------------------------------*- C++ -*----------------------------------*\
| =========                 |                                                 |
| \\      /  F ield         | OpenFOAM: The Open Source CFD Toolbox           |
|  \\    /   O peration     | Version:  2306                                  |
|   \\  /    A nd           | Website:  www.openfoam.com                      |
|    \\/     M anipulation  |                                                 |
\*---------------------------------------------------------------------------*/
FoamFile
{
    version     2.0;
    format      ascii;
    arch        "LSB;label=32;scalar=64";
    class       volScalarField;
    location    "1700";
    object      k;
}
// * * * * * * * * * * * * * * * * * * * * * * * * * * * * * * * * * * * * * //

dimensions      [0 2 -2 0 0 0 0];

internalField   nonuniform List<scalar> 
20540
(
56.1352
145.466
56.1186
145.451
56.0482
145.386
55.92
145.269
55.7229
145.088
55.4434
144.83
55.0656
144.478
54.5704
144.014
53.9349
143.412
53.1326
142.644
52.1322
141.672
50.8973
140.452
49.3872
138.925
47.5569
137.021
45.3599
134.648
42.7536
131.687
39.7101
127.985
36.2216
123.348
32.3021
117.559
28.0111
110.366
23.4793
101.503
18.9399
90.7285
14.7557
77.9047
11.3883
63.1267
9.17702
46.8615
8.02859
30.3572
7.50153
16.719
7.17108
9.66983
6.87651
7.2845
6.6877
6.50605
6.6224
6.24479
6.60404
6.16309
6.6023
6.16878
6.61947
6.26165
6.68878
6.53273
6.88175
7.30852
7.17484
9.69984
7.5122
16.7141
8.07088
30.2558
9.29483
46.7743
11.6423
63.1439
15.2049
78.0558
19.6349
91.0335
24.4668
101.961
29.3308
110.96
33.9813
118.266
38.2729
124.142
42.1305
128.843
45.5147
132.608
48.4228
135.637
50.8868
138.082
52.9528
140.059
54.6705
141.656
56.0875
142.946
57.2475
143.983
58.1893
144.814
58.9464
145.474
59.5477
145.994
60.0177
146.397
60.3774
146.703
60.6443
146.93
60.8331
147.089
60.9564
147.193
61.0243
147.25
61.0456
147.268
35.6876
23.3939
21.0023
19.7504
18.9362
18.3785
17.9771
17.6728
17.4353
17.2461
17.0923
16.9656
16.8597
16.7706
16.6947
16.6299
16.5738
16.5254
16.4832
16.4463
16.4139
16.3853
16.36
16.3375
16.3175
16.2996
16.2836
16.2692
16.2562
16.2445
16.2339
16.2243
16.2155
16.2077
16.2004
16.1938
16.1878
16.1825
16.1776
16.1733
16.1696
16.1665
16.1639
16.1619
16.1607
16.1603
16.1607
16.1622
16.1648
16.1687
16.1741
16.1811
16.1902
16.2013
16.215
16.2315
16.2512
16.2742
16.3015
16.3329
16.3696
16.4115
16.4602
16.5066
16.5467
16.589
16.6342
16.6819
16.7325
16.7858
16.842
16.9014
16.9639
17.0298
17.0995
17.1724
17.2509
17.3313
17.4221
17.5095
17.6211
17.7107
17.8667
17.9444
18.1813
18.2903
18.5928
18.8971
32.0089
18.727
16.4478
15.3028
14.5784
14.0858
13.7332
13.4675
13.2608
13.0964
12.9631
12.8534
12.7618
12.6849
12.6194
12.5635
12.5152
12.4735
12.4372
12.4054
12.3776
12.353
12.3313
12.3119
12.2948
12.2794
12.2656
12.2533
12.2421
12.2321
12.223
12.2148
12.2073
12.2006
12.1943
12.1886
12.1835
12.1788
12.1746
12.1708
12.1676
12.1648
12.1624
12.1605
12.1592
12.1585
12.1584
12.1591
12.1606
12.1631
12.1666
12.1714
12.1776
12.1853
12.1949
12.2064
12.2203
12.2365
12.2558
12.2779
12.3039
12.3334
12.3677
12.4002
12.4284
12.4581
12.4896
12.5228
12.5578
12.5946
12.6333
12.674
12.7164
12.7611
12.8076
12.8567
12.9078
12.9614
13.0186
13.0764
13.1433
13.2021
13.2917
13.3386
13.4723
13.5118
13.7068
13.7664
36.587
21.2674
18.7151
17.4555
16.6661
16.1295
15.7453
15.4558
15.2305
15.0512
14.9057
14.786
14.686
14.6019
14.5304
14.4693
14.4165
14.3709
14.3312
14.2965
14.266
14.2391
14.2154
14.1943
14.1755
14.1587
14.1436
14.1301
14.1179
14.107
14.097
14.088
14.0798
14.0725
14.0656
14.0593
14.0537
14.0486
14.044
14.0398
14.0362
14.0331
14.0304
14.0282
14.0267
14.0257
14.0254
14.0259
14.0272
14.0295
14.0329
14.0375
14.0435
14.0511
14.0606
14.072
14.0857
14.1018
14.121
14.1429
14.1687
14.1979
14.2319
14.264
14.2918
14.3211
14.3522
14.3848
14.419
14.455
14.4925
14.5321
14.573
14.6163
14.6607
14.7078
14.7559
14.807
14.8596
14.9146
14.9739
15.0299
15.1071
15.1491
15.266
15.2792
15.4994
15.2117
40.2017
22.8299
20.0407
18.7097
17.8907
17.3366
16.9407
16.643
16.4114
16.2272
16.0778
15.9548
15.8521
15.7658
15.6923
15.6295
15.5753
15.5285
15.4877
15.4521
15.4208
15.3932
15.3688
15.3471
15.3278
15.3106
15.2951
15.2812
15.2687
15.2575
15.2472
15.238
15.2296
15.222
15.2149
15.2085
15.2027
15.1975
15.1927
15.1884
15.1846
15.1814
15.1786
15.1762
15.1745
15.1733
15.1728
15.173
15.1741
15.176
15.1789
15.183
15.1886
15.1954
15.2041
15.2146
15.2273
15.2421
15.2598
15.2801
15.3039
15.3308
15.3622
15.3917
15.4172
15.4442
15.4726
15.5024
15.5336
15.5663
15.6003
15.6362
15.6729
15.7119
15.7513
15.7935
15.8354
15.8811
15.9257
15.975
16.0232
16.0734
16.1348
16.1694
16.2667
16.2518
16.5037
15.9151
43.3853
23.9198
20.841
19.4326
18.5882
18.0223
17.6198
17.3182
17.0839
16.8978
16.7468
16.6227
16.5191
16.432
16.3579
16.2946
16.2399
16.1927
16.1516
16.1157
16.0841
16.0563
16.0318
16.0099
15.9904
15.9731
15.9575
15.9435
15.9309
15.9196
15.9093
15.9
15.8915
15.8839
15.8768
15.8703
15.8644
15.8591
15.8543
15.8499
15.8461
15.8428
15.8398
15.8374
15.8355
15.8341
15.8333
15.8333
15.8339
15.8354
15.8379
15.8413
15.8461
15.852
15.8597
15.8689
15.8801
15.8932
15.909
15.9269
15.948
15.9719
15.9996
16.0257
16.0482
16.072
16.097
16.1232
16.1504
16.1789
16.2084
16.2396
16.271
16.3048
16.3381
16.3744
16.4091
16.4484
16.4839
16.5266
16.5628
16.6064
16.6519
16.6783
16.7559
16.7187
16.9761
16.2649
46.3681
24.8462
21.4012
19.8934
19.0184
18.4406
18.0327
17.7286
17.4932
17.3064
17.1552
17.0309
16.9273
16.8401
16.7661
16.7028
16.6482
16.6011
16.5601
16.5242
16.4927
16.465
16.4405
16.4186
16.3993
16.3819
16.3664
16.3525
16.3399
16.3286
16.3183
16.3091
16.3006
16.2931
16.2859
16.2794
16.2736
16.2683
16.2634
16.259
16.2552
16.2518
16.2488
16.2463
16.2442
16.2427
16.2417
16.2413
16.2416
16.2426
16.2444
16.2472
16.2511
16.256
16.2625
16.2703
16.2799
16.291
16.3045
16.3198
16.3379
16.3583
16.3821
16.4044
16.4235
16.4438
16.465
16.4872
16.5102
16.5341
16.5587
16.5849
16.6108
16.6389
16.6658
16.6961
16.7232
16.756
16.7824
16.8182
16.8433
16.8798
16.9107
16.9295
16.9878
16.9406
17.1592
16.5202
49.2341
25.7505
21.8562
20.2166
19.2995
18.7062
18.292
17.9857
17.7497
17.563
17.4122
17.2884
17.1853
17.0987
17.0251
16.9623
16.9082
16.8614
16.8207
16.7852
16.754
16.7265
16.7022
16.6806
16.6615
16.6443
16.629
16.6152
16.6028
16.5916
16.5814
16.5723
16.5639
16.5565
16.5494
16.543
16.5372
16.5319
16.527
16.5227
16.5188
16.5155
16.5124
16.5098
16.5076
16.5059
16.5046
16.5039
16.5038
16.5043
16.5056
16.5076
16.5106
16.5145
16.5197
16.5261
16.5339
16.543
16.5542
16.5668
16.5817
16.5984
16.618
16.6364
16.6521
16.6687
16.6861
16.7041
16.7227
16.742
16.7617
16.7828
16.8031
16.8257
16.8463
16.8705
16.8904
16.9167
16.9348
16.9635
16.9791
17.0079
17.0263
17.0387
17.0778
17.0333
17.1813
16.711
52.0181
26.7039
22.2804
20.469
19.4925
18.8769
18.4537
18.1442
17.9075
17.7211
17.571
17.4481
17.346
17.2603
17.1876
17.1256
17.0722
17.0261
16.986
16.9511
16.9204
16.8933
16.8695
16.8482
16.8294
16.8126
16.7975
16.784
16.7718
16.7609
16.7509
16.742
16.7337
16.7264
16.7194
16.7131
16.7075
16.7023
16.6975
16.6932
16.6894
16.686
16.6829
16.6802
16.678
16.6761
16.6746
16.6736
16.6731
16.6732
16.6738
16.6751
16.6772
16.6801
16.684
16.6888
16.6949
16.702
16.7108
16.7206
16.7324
16.7454
16.7608
16.7753
16.7875
16.8005
16.814
16.828
16.8423
16.8571
16.872
16.8881
16.903
16.9203
16.9349
16.9533
16.9666
16.9865
16.9976
17.0189
17.0273
17.0476
17.0558
17.0635
17.084
17.0504
17.1206
16.8128
54.7345
27.7441
22.7213
20.693
19.6342
18.9857
18.5487
18.2338
17.9955
17.8092
17.66
17.5382
17.4374
17.3529
17.2814
17.2205
17.1681
17.123
17.0837
17.0496
17.0196
16.9931
16.9699
16.9492
16.9308
16.9144
16.8998
16.8866
16.8748
16.8641
16.8544
16.8458
16.8378
16.8307
16.8239
16.8177
16.8122
16.8072
16.8025
16.7983
16.7945
16.7912
16.7882
16.7854
16.7831
16.7811
16.7795
16.7782
16.7773
16.7769
16.777
16.7776
16.7788
16.7806
16.7833
16.7867
16.7911
16.7961
16.8026
16.8097
16.8184
16.8279
16.8392
16.8498
16.8588
16.8683
16.8781
16.8882
16.8983
16.9088
16.9192
16.9307
16.9406
16.9528
16.9621
16.9749
16.9826
16.9962
17.0018
17.0154
17.0184
17.0307
17.031
17.0351
17.0387
17.0179
17.0275
16.8343
57.3865
28.891
23.2115
20.9198
19.7508
19.0548
18.5966
18.2726
18.0309
17.8438
17.6951
17.5745
17.475
17.392
17.3219
17.2624
17.2113
17.1673
17.1292
17.096
17.067
17.0414
17.0189
16.9989
16.9812
16.9654
16.9512
16.9386
16.9271
16.9169
16.9076
16.8993
16.8916
16.8848
16.8782
16.8723
16.867
16.8622
16.8576
16.8536
16.8499
16.8468
16.8437
16.841
16.8387
16.8366
16.8348
16.8333
16.8321
16.8313
16.8308
16.8307
16.8312
16.832
16.8336
16.8355
16.8383
16.8414
16.8457
16.8503
16.856
16.8622
16.8696
16.8766
16.8825
16.8887
16.8951
16.9015
16.9078
16.9144
16.9207
16.9278
16.9334
16.9409
16.9456
16.9531
16.9563
16.9637
16.965
16.9714
16.9703
16.9753
16.97
16.9707
16.9626
16.9507
16.9277
16.8003
59.9693
30.1536
23.7744
21.1746
19.8637
19.1017
18.6117
18.2729
18.0245
17.835
17.6859
17.566
17.4678
17.3863
17.3179
17.2599
17.2103
17.1678
17.131
17.0991
17.0712
17.0466
17.0251
17.0059
16.9891
16.974
16.9605
16.9485
16.9376
16.928
16.9191
16.9113
16.9039
16.8975
16.8913
16.8857
16.8807
16.8761
16.8717
16.8679
16.8644
16.8614
16.8585
16.8558
16.8535
16.8514
16.8495
16.8478
16.8463
16.8451
16.8442
16.8436
16.8433
16.8432
16.8437
16.8444
16.8457
16.8471
16.8494
16.8515
16.8546
16.8577
16.8616
16.8653
16.8684
16.8716
16.8749
16.878
16.8809
16.884
16.8867
16.8899
16.8917
16.895
16.8959
16.8984
16.8981
16.8999
16.8977
16.8986
16.8936
16.8934
16.8836
16.8809
16.8631
16.854
16.8222
16.7249
62.4703
31.5341
24.4256
21.4784
19.9921
19.1417
18.6064
18.2444
17.9845
17.7897
17.6386
17.5185
17.4211
17.341
17.2741
17.2178
17.1699
17.129
17.0937
17.0632
17.0367
17.0133
16.993
16.9749
16.959
16.9449
16.9322
16.921
16.9108
16.9018
16.8936
16.8863
16.8795
16.8736
16.8677
16.8625
16.8579
16.8536
16.8495
16.8459
16.8427
16.8399
16.8372
16.8347
16.8324
16.8303
16.8284
16.8265
16.8249
16.8234
16.8221
16.8209
16.8201
16.8192
16.8188
16.8184
16.8183
16.8182
16.8187
16.8188
16.8195
16.8198
16.8206
16.8215
16.8221
16.8227
16.8233
16.8235
16.8235
16.8235
16.8232
16.823
16.8217
16.8212
16.819
16.8178
16.8141
16.8122
16.8063
16.8036
16.7945
16.791
16.7767
16.7712
16.7474
16.7368
16.7035
16.6233
64.8686
33.0299
25.1748
21.8479
20.1539
19.1902
18.5927
18.1964
17.9181
17.7135
17.5576
17.4357
17.3381
17.2587
17.1931
17.1383
17.0921
17.0529
17.0193
16.9904
16.9654
16.9435
16.9246
16.9077
16.893
16.8799
16.8683
16.858
16.8487
16.8405
16.8329
16.8264
16.8202
16.8148
16.8095
16.8047
16.8006
16.7967
16.7929
16.7898
16.7868
16.7843
16.7819
16.7795
16.7774
16.7754
16.7735
16.7716
16.7699
16.7682
16.7666
16.7651
16.7638
16.7622
16.7611
16.7597
16.7586
16.7571
16.7561
16.7545
16.7532
16.7512
16.7493
16.7477
16.7463
16.7448
16.743
16.7411
16.7385
16.7363
16.733
16.7306
16.7261
16.7233
16.7177
16.7143
16.7072
16.703
16.6936
16.6886
16.676
16.6699
16.6523
16.6441
16.6172
16.6033
16.5694
16.502
67.1332
34.6333
26.0263
22.2956
20.3651
19.2624
18.5832
18.1389
17.8326
17.612
17.4471
17.3206
17.2209
17.141
17.076
17.0223
16.9775
16.9399
16.9081
16.8808
16.8575
16.8371
16.8197
16.8043
16.7909
16.7791
16.7686
16.7594
16.7511
16.7438
16.7372
16.7314
16.726
16.7213
16.7166
16.7124
16.7089
16.7054
16.7022
16.6994
16.6969
16.6948
16.6926
16.6905
16.6887
16.6868
16.685
16.6832
16.6815
16.6797
16.678
16.6761
16.6745
16.6725
16.6708
16.6686
16.6668
16.6642
16.6621
16.659
16.6561
16.6523
16.6483
16.6447
16.6416
16.6384
16.6348
16.6311
16.6266
16.6225
16.6169
16.6127
16.6058
16.6013
16.593
16.5879
16.5781
16.5722
16.5602
16.5534
16.5382
16.5302
16.5102
16.4997
16.4711
16.4541
16.4162
16.3638
69.2209
36.331
26.9796
22.8293
20.6388
19.3729
18.5912
18.0829
17.7369
17.4917
17.3119
17.1764
17.0717
16.9894
16.9235
16.87
16.826
16.7896
16.7592
16.7335
16.7118
16.693
16.6772
16.6633
16.6513
16.6409
16.6317
16.6237
16.6166
16.6105
16.6048
16.6
16.5954
16.5916
16.5876
16.5841
16.5812
16.5784
16.5756
16.5734
16.5714
16.5697
16.568
16.5663
16.5647
16.5631
16.5616
16.5599
16.5582
16.5564
16.5547
16.5527
16.5509
16.5486
16.5466
16.5439
16.5415
16.5382
16.5352
16.5311
16.527
16.5218
16.5162
16.5111
16.5068
16.5023
16.4973
16.4924
16.4863
16.4809
16.4737
16.4681
16.4595
16.4535
16.4433
16.4371
16.4251
16.4181
16.4041
16.396
16.379
16.3694
16.3479
16.3354
16.3057
16.2865
16.2432
16.2057
71.0733
38.1015
28.0299
23.4518
20.9843
19.5344
18.6301
18.0405
17.6409
17.3605
17.1578
17.0076
16.8936
16.8056
16.7365
16.6814
16.6371
16.601
16.5715
16.5469
16.5265
16.5092
16.4949
16.4824
16.472
16.463
16.4552
16.4485
16.4426
16.4377
16.4331
16.4294
16.4257
16.4228
16.4197
16.417
16.4149
16.4127
16.4106
16.4091
16.4076
16.4065
16.4053
16.404
16.4028
16.4016
16.4003
16.3989
16.3974
16.3958
16.3941
16.3922
16.3903
16.3879
16.3857
16.3828
16.38
16.3763
16.3727
16.368
16.3631
16.357
16.3503
16.3441
16.339
16.3337
16.3277
16.3219
16.3148
16.3085
16.3002
16.2935
16.2838
16.2768
16.2654
16.2581
16.2449
16.2369
16.2216
16.2125
16.1942
16.1834
16.1608
16.1467
16.1164
16.0958
16.0484
16.0233
72.6122
39.9113
29.1664
24.1606
21.4061
19.7563
18.7118
18.0239
17.5559
17.2282
16.9928
16.8202
16.6909
16.5927
16.517
16.4576
16.4109
16.3735
16.3437
16.3194
16.2997
16.2834
16.2702
16.2589
16.2498
16.2421
16.2356
16.2303
16.2256
16.2219
16.2185
16.2159
16.2133
16.2114
16.2091
16.2073
16.206
16.2046
16.2032
16.2024
16.2016
16.2012
16.2005
16.1998
16.199
16.1983
16.1974
16.1963
16.1952
16.1938
16.1923
16.1905
16.1888
16.1865
16.1843
16.1813
16.1785
16.1746
16.1707
16.1657
16.1604
16.1537
16.1464
16.1396
16.1339
16.128
16.1216
16.1151
16.1075
16.1005
16.0917
16.0842
16.0739
16.066
16.0541
16.0458
16.032
16.0232
16.007
15.9971
15.978
15.9662
15.9427
15.9276
15.8968
15.8755
15.8258
15.8107
73.7322
41.7089
30.3708
24.9474
21.9027
20.0432
18.8448
18.0439
17.4931
17.1051
16.826
16.6219
16.4699
16.3555
16.2682
16.2008
16.1486
16.1076
16.0755
16.0499
16.0297
16.0134
16.0006
15.99
15.9817
15.975
15.9695
15.9653
15.9617
15.9591
15.9568
15.9553
15.9537
15.9527
15.9512
15.9505
15.95
15.9493
15.9486
15.9487
15.9486
15.949
15.9488
15.9487
15.9485
15.9482
15.9478
15.9471
15.9464
15.9453
15.9442
15.9427
15.9412
15.9391
15.9371
15.9342
15.9315
15.9277
15.9239
15.9188
15.9134
15.9065
15.8988
15.8917
15.8858
15.8797
15.873
15.8662
15.8584
15.8509
15.8419
15.8338
15.8233
15.8148
15.8027
15.7936
15.7795
15.7698
15.7533
15.7426
15.7229
15.7103
15.6862
15.6704
15.6395
15.6179
15.5678
15.5609
74.2889
43.4205
31.6135
25.7964
22.4659
20.3931
19.0326
18.1076
17.4618
17.0015
16.6675
16.4218
16.2386
16.1005
15.9956
15.9151
15.8532
15.805
15.7679
15.7386
15.716
15.698
15.6843
15.6733
15.6649
15.6585
15.6534
15.6498
15.6469
15.6451
15.6435
15.6429
15.642
15.6419
15.6411
15.6413
15.6415
15.6415
15.6417
15.6427
15.6433
15.6445
15.6448
15.6452
15.6456
15.6457
15.6458
15.6453
15.6452
15.6445
15.6437
15.6427
15.6414
15.6397
15.6381
15.6355
15.633
15.6294
15.6257
15.6209
15.6155
15.6087
15.601
15.5938
15.5878
15.5816
15.5748
15.5679
15.56
15.5523
15.5433
15.5348
15.5244
15.5152
15.5032
15.4932
15.4793
15.4686
15.4522
15.4404
15.4207
15.4072
15.3828
15.3666
15.3359
15.3142
15.2656
15.265
74.0861
44.9493
32.8478
26.6807
23.0787
20.7963
19.2715
18.2162
17.467
16.9247
16.5258
16.2289
16.0055
15.8359
15.7063
15.6065
15.5296
15.4698
15.4236
15.3874
15.3595
15.3376
15.3208
15.3077
15.2978
15.2903
15.2846
15.2807
15.2777
15.276
15.2747
15.2744
15.2738
15.2742
15.2739
15.2744
15.2756
15.276
15.2768
15.2785
15.2797
15.2814
15.2822
15.283
15.2841
15.2848
15.2852
15.2849
15.285
15.2846
15.2843
15.2836
15.2828
15.2815
15.2802
15.278
15.2758
15.2725
15.2692
15.2646
15.2594
15.2527
15.2451
15.238
15.2321
15.2258
15.2191
15.2121
15.2043
15.1964
15.1875
15.1787
15.1683
15.1586
15.1467
15.136
15.1224
15.1106
15.0945
15.0814
15.0621
15.0473
15.0236
15.0064
14.9771
14.9547
14.9113
14.9129
72.8571
46.1667
34.0018
27.5564
23.7115
21.2323
19.548
18.3625
17.5063
16.8761
16.4052
16.0494
15.7779
15.5691
15.4077
15.2821
15.1842
15.1073
15.0475
15.0002
14.9633
14.9342
14.9117
14.8939
14.8803
14.8699
14.8619
14.8562
14.8519
14.8491
14.8471
14.8462
14.8456
14.8456
14.8453
14.8454
14.8468
14.8476
14.8486
14.8504
14.8518
14.8539
14.8548
14.8559
14.8574
14.8587
14.8592
14.8594
14.8592
14.8592
14.859
14.8583
14.8581
14.8573
14.8561
14.8545
14.8525
14.8496
14.8465
14.8422
14.8372
14.8307
14.8231
14.816
14.8102
14.8039
14.7972
14.7902
14.7825
14.7744
14.7655
14.7564
14.7461
14.7359
14.7242
14.7128
14.6992
14.6865
14.6707
14.6565
14.6378
14.6217
14.599
14.5811
14.5534
14.5321
14.4925
14.4963
70.2546
46.8978
34.9645
28.3524
24.3149
21.6649
19.8354
18.5271
17.5667
16.8482
16.3024
15.8832
15.5582
15.3043
15.105
14.9475
14.823
14.7236
14.6451
14.5819
14.5319
14.4918
14.46
14.4344
14.4144
14.3985
14.3859
14.3764
14.3689
14.3634
14.3592
14.3564
14.3544
14.3531
14.3524
14.351
14.3516
14.3519
14.3525
14.3538
14.3547
14.3565
14.3571
14.3583
14.3599
14.3613
14.3618
14.3616
14.3619
14.3618
14.3616
14.3614
14.3603
14.3602
14.3587
14.3578
14.3558
14.3531
14.3501
14.346
14.341
14.3346
14.3269
14.3198
14.3139
14.3075
14.3008
14.2937
14.2859
14.2777
14.2687
14.2593
14.249
14.2383
14.2265
14.2145
14.201
14.1876
14.172
14.1569
14.1386
14.1219
14.1002
14.0821
14.0561
14.0366
14.0005
14.0059
65.8481
46.913
35.564
28.9546
24.8089
22.0344
20.0875
18.6739
17.6202
16.8196
16.2018
15.7197
15.3398
15.0382
14.7974
14.604
14.4484
14.3221
14.2202
14.137
14.0696
14.0144
13.9696
13.9329
13.9031
13.8788
13.8589
13.843
13.83
13.8197
13.8113
13.8047
13.7997
13.7955
13.7928
13.7899
13.7882
13.7872
13.7861
13.7856
13.7847
13.7856
13.7852
13.7862
13.7872
13.788
13.7877
13.7875
13.7874
13.7873
13.7868
13.7865
13.7854
13.7848
13.7832
13.782
13.7796
13.7769
13.7735
13.7692
13.7638
13.7572
13.7492
13.742
13.7358
13.7293
13.7224
13.715
13.707
13.6985
13.6893
13.6796
13.6691
13.6581
13.6461
13.6336
13.62
13.6061
13.5906
13.5751
13.5573
13.5404
13.5198
13.5021
13.478
13.4604
13.4277
13.4341
59.138
45.9262
35.5436
29.184
25.0647
22.2434
20.2279
18.7413
17.6166
16.7492
16.0701
15.5319
15.1014
14.7541
14.4724
14.2424
14.0541
13.8987
13.7708
13.6646
13.5767
13.5033
13.4423
13.3912
13.3487
13.313
13.283
13.2581
13.2371
13.2195
13.2048
13.1924
13.1823
13.1735
13.1666
13.1605
13.1554
13.1514
13.1477
13.1449
13.1423
13.1408
13.139
13.1379
13.1371
13.1364
13.1356
13.1347
13.1337
13.1326
13.1313
13.1301
13.1286
13.1268
13.1248
13.1222
13.1192
13.1156
13.1114
13.1064
13.1003
13.0931
13.0845
13.0769
13.0704
13.0635
13.0561
13.0483
13.04
13.0311
13.0216
13.0115
13.0006
12.9892
12.977
12.9643
12.9506
12.9364
12.9211
12.9056
12.8885
12.8718
12.8526
12.8357
12.8137
12.798
12.7686
12.7753
50.181
43.0076
34.5028
28.7663
24.882
22.1382
20.1342
18.6295
17.4728
16.5673
15.8479
15.2696
14.8003
14.4161
14.0997
13.8373
13.619
13.436
13.2827
13.1532
13.0439
12.9511
12.8724
12.8051
12.7478
12.6988
12.6565
12.6205
12.5893
12.5624
12.5393
12.5191
12.502
12.4869
12.474
12.4627
12.4528
12.4443
12.4366
12.4301
12.4242
12.4193
12.4148
12.4109
12.4074
12.4043
12.4014
12.3987
12.396
12.3933
12.3907
12.388
12.3851
12.382
12.3786
12.3748
12.3705
12.3657
12.3602
12.354
12.3468
12.3386
12.329
12.3207
12.3137
12.3062
12.2984
12.29
12.2812
12.2718
12.2618
12.2513
12.2402
12.2285
12.2161
12.2032
12.1896
12.1755
12.1606
12.1455
12.1292
12.1134
12.0957
12.0799
12.0601
12.0468
12.0198
12.0267
39.3419
37.147
31.926
27.3037
23.9613
21.4845
19.6182
18.1833
17.0581
16.162
15.4389
14.8489
14.3631
13.9597
13.6226
13.3389
13.0994
12.8956
12.7221
12.5732
12.4455
12.3353
12.2401
12.1574
12.0855
12.0229
11.968
11.9201
11.878
11.8409
11.8083
11.7793
11.7538
11.7311
11.711
11.6931
11.6771
11.6629
11.65
11.6386
11.6282
11.619
11.6105
11.6029
11.5959
11.5895
11.5836
11.578
11.5728
11.5677
11.5627
11.5578
11.5529
11.5479
11.5426
11.537
11.5311
11.5246
11.5175
11.5097
11.5011
11.4915
11.4806
11.4714
11.4637
11.4556
11.4471
11.4382
11.4288
11.4189
11.4085
11.3977
11.3864
11.3745
11.3622
11.3494
11.3361
11.3224
11.3083
11.2939
11.2789
11.2641
11.2483
11.2339
11.2165
11.2047
11.1815
11.1877
26.5691
28.5836
27.1285
24.2878
21.9025
19.956
18.4115
17.1775
16.1802
15.367
14.6975
14.1413
13.6756
13.2828
12.9495
12.6648
12.4207
12.2101
12.0279
11.8694
11.7313
11.6102
11.504
11.4104
11.3277
11.2545
11.1894
11.1316
11.0799
11.0337
10.9923
10.9551
10.9216
10.8914
10.8642
10.8396
10.8173
10.797
10.7786
10.7618
10.7464
10.7324
10.7195
10.7076
10.6966
10.6865
10.677
10.6681
10.6597
10.6516
10.6439
10.6363
10.6289
10.6215
10.6139
10.6062
10.5982
10.5898
10.5809
10.5713
10.561
10.5498
10.5374
10.5273
10.5189
10.5102
10.5011
10.4917
10.4819
10.4717
10.4611
10.4502
10.4389
10.4273
10.4153
10.4029
10.3903
10.3775
10.3644
10.3512
10.3377
10.3245
10.3106
10.2979
10.2831
10.2727
10.2532
10.2585
14.3855
18.7438
19.7616
19.3353
18.3238
17.1932
16.2006
15.3362
14.5955
13.9666
13.4313
12.9741
12.582
12.2441
11.9516
11.697
11.475
11.2801
11.1088
10.9573
10.8233
10.704
10.5976
10.5026
10.4173
10.3407
10.2716
10.2093
10.1529
10.1017
10.0552
10.0129
9.97434
9.9391
9.90687
9.87735
9.85026
9.82539
9.80248
9.78138
9.76189
9.74387
9.72717
9.71164
9.69719
9.68367
9.671
9.65904
9.64773
9.63694
9.62658
9.61655
9.60676
9.59709
9.58745
9.57774
9.56784
9.55765
9.54705
9.53593
9.52415
9.5116
9.4981
9.48725
9.47845
9.4694
9.46009
9.45053
9.4407
9.43062
9.4203
9.40973
9.39895
9.38797
9.37681
9.36551
9.35408
9.34258
9.33099
9.31945
9.30782
9.29647
9.28481
9.27407
9.26187
9.25337
9.23707
9.24159
8.28979
10.4907
12.2046
13.0814
13.232
13.1207
12.8537
12.4892
12.1244
11.7846
11.4714
11.1874
10.9317
10.7022
10.4965
10.312
10.1466
9.99788
9.86402
9.7431
9.63376
9.53462
9.44457
9.36259
9.28783
9.21956
9.15708
9.09981
9.04724
8.99888
8.95437
8.9133
8.87541
8.84037
8.80795
8.77791
8.75006
8.72421
8.70018
8.67782
8.657
8.63756
8.61941
8.6024
8.58646
8.57146
8.55732
8.54393
8.53122
8.51907
8.50741
8.49614
8.48517
8.47438
8.46372
8.45304
8.44229
8.43132
8.42007
8.4084
8.39623
8.38341
8.36986
8.35925
8.35077
8.34214
8.33337
8.32446
8.31543
8.30627
8.297
8.28763
8.27819
8.26869
8.25916
8.24962
8.24009
8.23062
8.22119
8.21189
8.20264
8.19366
8.18459
8.1762
8.16692
8.16023
8.14764
8.15113
6.57134
6.89298
7.53389
8.14608
8.58644
8.86143
9.0214
9.06498
9.05266
9.01657
8.94728
8.86672
8.77953
8.69072
8.60358
8.51941
8.43889
8.36231
8.28985
8.22147
8.15709
8.09672
8.04008
7.98695
7.93722
7.8907
7.84719
7.80645
7.76832
7.73257
7.6991
7.6677
7.6383
7.61071
7.58487
7.56059
7.53783
7.51643
7.49636
7.47748
7.45976
7.44305
7.42733
7.41249
7.39849
7.38522
7.37266
7.36069
7.34931
7.33839
7.32791
7.31775
7.30789
7.29819
7.28863
7.27909
7.26954
7.25983
7.24995
7.23975
7.22922
7.21821
7.20671
7.19807
7.19126
7.18441
7.17753
7.17062
7.16368
7.15673
7.14978
7.14285
7.13594
7.12908
7.12227
7.11554
7.10889
7.10236
7.09593
7.08964
7.08346
7.07748
7.07154
7.06598
7.0601
7.05547
7.04694
7.04943
6.07399
6.02814
6.0779
6.20503
6.3781
6.53898
6.67377
6.78465
6.85984
6.92062
6.95451
6.98156
6.9849
6.98161
6.97706
6.96609
6.95005
6.93092
6.90889
6.88585
6.86186
6.8379
6.81371
6.78958
6.76597
6.74305
6.72083
6.69927
6.67842
6.65828
6.63893
6.62034
6.60257
6.58555
6.56935
6.55384
6.53912
6.52505
6.51172
6.49901
6.48697
6.4755
6.46463
6.45426
6.44444
6.43506
6.42616
6.41762
6.40952
6.4017
6.39424
6.38695
6.37996
6.37303
6.36629
6.35953
6.35283
6.34604
6.3392
6.33218
6.32503
6.31761
6.31
6.3048
6.30086
6.29695
6.29308
6.28924
6.2854
6.28154
6.27769
6.27382
6.26999
6.26622
6.26255
6.25902
6.25564
6.25238
6.24931
6.24642
6.24372
6.2412
6.2389
6.23667
6.23483
6.23283
6.22845
6.23037
5.94278
5.79412
5.69248
5.67219
5.69013
5.73576
5.8013
5.8752
5.94118
6.00287
6.05406
6.09717
6.13246
6.15709
6.17634
6.18982
6.19605
6.19933
6.19434
6.19379
6.18959
6.18369
6.17613
6.16692
6.15717
6.14707
6.1366
6.12577
6.1147
6.10351
6.09236
6.08129
6.07046
6.05981
6.04949
6.03939
6.02969
6.02024
6.01121
6.00247
5.99415
5.98613
5.97853
5.97123
5.96432
5.95772
5.95152
5.94558
5.94008
5.93475
5.92992
5.92515
5.92091
5.91668
5.91288
5.90918
5.90575
5.90249
5.89937
5.89638
5.89352
5.89081
5.88813
5.88728
5.88681
5.88641
5.8861
5.88581
5.88526
5.88461
5.8838
5.88238
5.88076
5.87907
5.87754
5.8759
5.8749
5.87274
5.87303
5.87359
5.87459
5.87597
5.87765
5.87946
5.88145
5.88331
5.8856
5.88667
5.94612
5.80069
5.69989
5.68648
5.70803
5.76103
5.83352
5.91363
5.98627
6.05175
6.10828
6.15336
6.19262
6.21895
6.23956
6.25387
6.26114
6.26372
6.26266
6.2593
6.25621
6.2498
6.24157
6.23206
6.22183
6.21114
6.20001
6.18853
6.17683
6.16501
6.15325
6.14158
6.13017
6.11893
6.10806
6.09741
6.08719
6.07722
6.06771
6.0585
6.04975
6.04134
6.03336
6.02575
6.01857
6.01178
6.00542
5.99943
5.99393
5.98871
5.98413
5.97963
5.97597
5.97227
5.96936
5.96661
5.96449
5.96253
5.96097
5.95956
5.95862
5.95771
5.95745
5.95487
5.95362
5.95322
5.95458
5.9567
5.9592
5.96204
5.96516
5.96846
5.97191
5.97546
5.9791
5.98277
5.98648
5.99018
5.9939
5.99762
6.00135
6.00507
6.00881
6.01249
6.01622
6.01967
6.02367
6.02575
6.08632
6.05494
6.11588
6.26595
6.4656
6.65366
6.80936
6.93893
7.02942
7.09826
7.14299
7.17122
7.18527
7.1787
7.17501
7.16434
7.14816
7.12781
7.10476
7.08001
7.05448
7.02847
7.00222
6.97611
6.95041
6.92533
6.90088
6.87712
6.85409
6.83184
6.81044
6.78986
6.77019
6.7513
6.73334
6.71611
6.69977
6.68413
6.66934
6.65524
6.64193
6.6293
6.61739
6.60617
6.59559
6.58572
6.57645
6.56789
6.55993
6.55266
6.54602
6.54008
6.53471
6.53016
6.5261
6.52287
6.52026
6.51863
6.51689
6.51747
6.51361
6.51569
6.51277
6.51377
6.51598
6.51893
6.5223
6.52619
6.53056
6.53535
6.54049
6.54586
6.55138
6.55698
6.5626
6.56822
6.57381
6.57937
6.5849
6.59038
6.59581
6.60117
6.60648
6.61164
6.61683
6.62152
6.6271
6.62955
6.60656
6.96209
7.67499
8.34716
8.84321
9.15377
9.33212
9.39073
9.37979
9.34362
9.27414
9.18836
9.09741
9.00307
8.91021
8.82026
8.73413
8.6519
8.57394
8.50021
8.43074
8.3654
8.30397
8.2463
8.19217
8.14143
8.09382
8.04915
8.00721
7.96783
7.93087
7.89615
7.86358
7.83295
7.80422
7.77717
7.75181
7.72792
7.70553
7.68445
7.6647
7.64615
7.62878
7.61253
7.59731
7.5832
7.56997
7.55786
7.54653
7.53633
7.5269
7.5185
7.51104
7.50435
7.499
7.49387
7.49077
7.48798
7.48424
7.48172
7.47988
7.47732
7.47698
7.47951
7.48418
7.48918
7.49426
7.49938
7.50466
7.51016
7.51595
7.522
7.52826
7.53467
7.54115
7.54766
7.55415
7.5606
7.56699
7.5733
7.57954
7.58567
7.59172
7.59758
7.60349
7.60881
7.61513
7.61803
8.35189
10.6575
12.5057
13.4352
13.633
13.5244
13.2579
12.8861
12.5114
12.1602
11.8363
11.541
11.2747
11.0348
10.8192
10.6252
10.4509
10.2936
10.1516
10.023
9.9063
9.80021
9.70355
9.6153
9.53456
9.4606
9.39268
9.33021
9.27268
9.21957
9.17054
9.12516
9.08316
9.0442
9.00808
8.97449
8.9433
8.91425
8.88724
8.86207
8.83865
8.81686
8.79656
8.77772
8.76017
8.74399
8.72893
8.71518
8.70243
8.69094
8.68042
8.67106
8.66279
8.65546
8.64946
8.6443
8.6402
8.63786
8.63581
8.63419
8.63415
8.63047
8.63026
8.63281
8.63743
8.64257
8.64804
8.65369
8.65948
8.6654
8.67147
8.6777
8.68407
8.69058
8.69718
8.70385
8.71053
8.7172
8.72383
8.7304
8.73688
8.74324
8.74952
8.75557
8.7617
8.7671
8.7738
8.77639
14.4878
19.0468
20.1855
19.7847
18.7998
17.6577
16.6494
15.7663
15.007
14.3593
13.8068
13.333
12.9255
12.5729
12.2669
11.9996
11.7655
11.5593
11.3774
11.2159
11.0723
10.9441
10.8293
10.7261
10.6333
10.5494
10.4735
10.4047
10.3421
10.285
10.2329
10.1853
10.1417
10.1016
10.0649
10.031
9.99984
9.9711
9.94458
9.92009
9.89746
9.87658
9.85727
9.83948
9.82303
9.80798
9.79406
9.78146
9.76989
9.75957
9.75015
9.74209
9.73463
9.72891
9.7234
9.71982
9.71674
9.71493
9.71389
9.71338
9.71061
9.71098
9.71312
9.71757
9.72298
9.72876
9.73475
9.74085
9.74701
9.75325
9.75956
9.76599
9.77252
9.77915
9.78585
9.7926
9.79935
9.80608
9.81276
9.81935
9.82586
9.83222
9.83852
9.84452
9.85071
9.85597
9.86289
9.86498
26.7184
29.001
27.6273
24.8524
22.4502
20.4743
18.8992
17.6349
16.6095
15.7698
15.0762
14.4975
14.0114
13.5994
13.2486
12.9474
12.6882
12.4632
12.2678
12.0967
11.9468
11.8147
11.6981
11.5948
11.5029
11.421
11.3477
11.2821
11.2231
11.17
11.1221
11.0787
11.0394
11.0037
10.9713
10.9417
10.9148
10.8902
10.8677
10.8471
10.8283
10.811
10.7953
10.7808
10.7677
10.7557
10.7448
10.7351
10.7263
10.7185
10.7116
10.7059
10.7008
10.6969
10.6939
10.691
10.6909
10.687
10.6871
10.6878
10.6899
10.6933
10.6981
10.7044
10.7101
10.7162
10.7225
10.7289
10.7354
10.742
10.7486
10.7553
10.7621
10.7689
10.7758
10.7826
10.7894
10.7962
10.8029
10.8095
10.816
10.8224
10.8286
10.8346
10.8407
10.8459
10.8528
10.8549
39.6349
37.6601
32.6042
27.9644
24.5785
22.0518
20.1387
18.6609
17.4973
16.5664
15.8121
15.1936
14.6821
14.2549
13.8964
13.5926
13.3348
13.1138
12.9245
12.7608
12.6195
12.4964
12.3892
12.2954
12.2131
12.1408
12.0768
12.0203
11.9701
11.9255
11.8858
11.8502
11.8185
11.79
11.7644
11.7413
11.7205
11.7018
11.6849
11.6696
11.6558
11.6433
11.632
11.6218
11.6127
11.6044
11.5972
11.5908
11.5853
11.5804
11.5763
11.573
11.5708
11.5681
11.5675
11.5641
11.5641
11.566
11.5696
11.5733
11.5775
11.5825
11.5885
11.5955
11.6016
11.608
11.6145
11.6212
11.628
11.6348
11.6417
11.6486
11.6556
11.6626
11.6695
11.6764
11.6833
11.6901
11.6968
11.7034
11.7098
11.7161
11.7224
11.7282
11.7344
11.7394
11.7463
11.7485
50.6113
43.7361
35.3078
29.5142
25.5558
22.7409
20.6741
19.1142
17.9094
16.9611
16.2039
15.5915
15.0917
14.6796
14.3382
14.0526
13.8134
13.6109
13.4401
13.294
13.1699
13.0631
12.9715
12.8924
12.824
12.7648
12.7132
12.6683
12.629
12.5945
12.5644
12.5378
12.5145
12.4937
12.4755
12.4592
12.4449
12.4322
12.421
12.4108
12.402
12.394
12.3869
12.3808
12.3753
12.3705
12.3666
12.3631
12.3605
12.358
12.3562
12.3555
12.3545
12.3535
12.3547
12.3566
12.3591
12.3624
12.3666
12.3715
12.3771
12.3834
12.3906
12.3981
12.4045
12.4112
12.418
12.4248
12.4318
12.4388
12.4458
12.4529
12.4599
12.467
12.474
12.4809
12.4877
12.4945
12.5012
12.5077
12.5141
12.5203
12.5265
12.5322
12.5383
12.5432
12.5501
12.5523
59.7024
46.8974
36.4651
29.9988
25.7752
22.8629
20.7703
19.2176
18.0363
17.1192
16.3965
15.8195
15.3545
14.976
14.6667
14.4112
14.2004
14.0242
13.8779
13.7543
13.6512
13.5636
13.4898
13.427
13.3736
13.3281
13.2891
13.2559
13.2272
13.2026
13.1815
13.1632
13.1475
13.1338
13.1221
13.1118