/*--------------------------------*- C++ -*----------------------------------*\
| =========                 |                                                 |
| \\      /  F ield         | OpenFOAM: The Open Source CFD Toolbox           |
|  \\    /   O peration     | Version:  2306                                  |
|   \\  /    A nd           | Website:  www.openfoam.com                      |
|    \\/     M anipulation  |                                                 |
\*---------------------------------------------------------------------------*/
FoamFile
{
    version     2.0;
    format      ascii;
    arch        "LSB;label=32;scalar=64";
    class       volScalarField;
    location    "1700";
    object      nut;
}
// * * * * * * * * * * * * * * * * * * * * * * * * * * * * * * * * * * * * * //

dimensions      [0 2 -1 0 0 0 0];

internalField   nonuniform List<scalar> 
20540
(
0.0139093
0.0396352
0.0139068
0.039634
0.013897
0.0396278
0.013879
0.0396161
0.0138514
0.0395973
0.013812
0.0395696
0.0137586
0.0395308
0.0136882
0.0394777
0.0135974
0.0394062
0.0134822
0.0393109
0.0133379
0.0391843
0.013159
0.0390163
0.0129394
0.0387926
0.0126725
0.038493
0.0123519
0.0380954
0.0119728
0.0375721
0.011535
0.036888
0.0110385
0.0360069
0.0104718
0.0348919
0.00984718
0.0334779
0.00920013
0.0316851
0.00861261
0.0294213
0.00825591
0.0265942
0.00843621
0.0231443
0.00949174
0.0191171
0.0113159
0.0147786
0.0131041
0.0112417
0.0141162
0.0108875
0.0146949
0.0130553
0.0150533
0.0141865
0.0149638
0.0147397
0.014866
0.0148727
0.0148542
0.0148842
0.0149284
0.0147567
0.0149821
0.01416
0.0146162
0.0129096
0.0140191
0.0107279
0.0129399
0.0110865
0.0111077
0.0145526
0.009305
0.0188602
0.00831963
0.0228821
0.00821274
0.02632
0.00863096
0.0291359
0.00927179
0.0313895
0.00996814
0.0331727
0.0106395
0.0345776
0.0112507
0.0356844
0.0118032
0.0365425
0.0122937
0.0372016
0.0127157
0.0377102
0.0130719
0.0381002
0.0133689
0.038397
0.013614
0.0386203
0.0138148
0.038788
0.013978
0.0389144
0.0141096
0.03901
0.0142147
0.0390821
0.0142976
0.0391363
0.014362
0.0391767
0.014411
0.0392062
0.0144472
0.0392272
0.0144727
0.0392415
0.0144892
0.0392504
0.0144984
0.0392551
0.0145013
0.0392563
1.77808e-05
1.43954e-05
1.36395e-05
1.32269e-05
1.29515e-05
1.27595e-05
1.26194e-05
1.25121e-05
1.24278e-05
1.23602e-05
1.2305e-05
1.22593e-05
1.22209e-05
1.21886e-05
1.2161e-05
1.21373e-05
1.21169e-05
1.20992e-05
1.20837e-05
1.20702e-05
1.20582e-05
1.20477e-05
1.20384e-05
1.20301e-05
1.20228e-05
1.20162e-05
1.20103e-05
1.20049e-05
1.20001e-05
1.19958e-05
1.19919e-05
1.19884e-05
1.19851e-05
1.19822e-05
1.19795e-05
1.19771e-05
1.19749e-05
1.19729e-05
1.19711e-05
1.19695e-05
1.19681e-05
1.1967e-05
1.1966e-05
1.19653e-05
1.19649e-05
1.19647e-05
1.19649e-05
1.19654e-05
1.19664e-05
1.19678e-05
1.19698e-05
1.19724e-05
1.19757e-05
1.19799e-05
1.19849e-05
1.1991e-05
1.19983e-05
1.20068e-05
1.20168e-05
1.20284e-05
1.20419e-05
1.20573e-05
1.20752e-05
1.20922e-05
1.21069e-05
1.21224e-05
1.21389e-05
1.21563e-05
1.21747e-05
1.21941e-05
1.22145e-05
1.2236e-05
1.22586e-05
1.22824e-05
1.23075e-05
1.23337e-05
1.23619e-05
1.23906e-05
1.24231e-05
1.24542e-05
1.24938e-05
1.25255e-05
1.25806e-05
1.26079e-05
1.26908e-05
1.27288e-05
1.28337e-05
1.29383e-05
4.54849e-05
2.91556e-05
2.66021e-05
2.53337e-05
2.45477e-05
2.40106e-05
2.36243e-05
2.33325e-05
2.31045e-05
2.29225e-05
2.27744e-05
2.26523e-05
2.25501e-05
2.2464e-05
2.23907e-05
2.2328e-05
2.22738e-05
2.22269e-05
2.2186e-05
2.21503e-05
2.21189e-05
2.20911e-05
2.20667e-05
2.20449e-05
2.20255e-05
2.20081e-05
2.19926e-05
2.19786e-05
2.19661e-05
2.19547e-05
2.19444e-05
2.19352e-05
2.19267e-05
2.19191e-05
2.19119e-05
2.19055e-05
2.18996e-05
2.18943e-05
2.18894e-05
2.1885e-05
2.18812e-05
2.18779e-05
2.18749e-05
2.18724e-05
2.18705e-05
2.1869e-05
2.18682e-05
2.18681e-05
2.18686e-05
2.187e-05
2.18722e-05
2.18755e-05
2.18801e-05
2.18858e-05
2.18931e-05
2.1902e-05
2.19128e-05
2.19254e-05
2.19405e-05
2.19577e-05
2.1978e-05
2.2001e-05
2.20277e-05
2.20526e-05
2.20743e-05
2.20972e-05
2.21211e-05
2.21461e-05
2.21721e-05
2.21993e-05
2.22273e-05
2.22569e-05
2.22867e-05
2.23186e-05
2.23499e-05
2.2384e-05
2.24162e-05
2.24529e-05
2.2485e-05
2.25248e-05
2.25556e-05
2.25971e-05
2.26322e-05
2.26564e-05
2.27197e-05
2.26827e-05
2.28893e-05
2.22249e-05
0.000117094
6.89911e-05
6.25539e-05
5.96073e-05
5.79075e-05
5.678e-05
5.59811e-05
5.5385e-05
5.49223e-05
5.45544e-05
5.42559e-05
5.40102e-05
5.3805e-05
5.36322e-05
5.34852e-05
5.33596e-05
5.3251e-05
5.31573e-05
5.30756e-05
5.30042e-05
5.29415e-05
5.28862e-05
5.28374e-05
5.27939e-05
5.27553e-05
5.27207e-05
5.26898e-05
5.2662e-05
5.2637e-05
5.26145e-05
5.2594e-05
5.25756e-05
5.25586e-05
5.25436e-05
5.25293e-05
5.25163e-05
5.25046e-05
5.2494e-05
5.24841e-05
5.24752e-05
5.24673e-05
5.24603e-05
5.24538e-05
5.24482e-05
5.24435e-05
5.24395e-05
5.24363e-05
5.24344e-05
5.24331e-05
5.2433e-05
5.24342e-05
5.24366e-05
5.24407e-05
5.24462e-05
5.24539e-05
5.24634e-05
5.24754e-05
5.24893e-05
5.25066e-05
5.2526e-05
5.25491e-05
5.25749e-05
5.26052e-05
5.26331e-05
5.26572e-05
5.26828e-05
5.27092e-05
5.27363e-05
5.27638e-05
5.27922e-05
5.28206e-05
5.28512e-05
5.2879e-05
5.29113e-05
5.29373e-05
5.29718e-05
5.29924e-05
5.30311e-05
5.30402e-05
5.30879e-05
5.30748e-05
5.31338e-05
5.31058e-05
5.3116e-05
5.31627e-05
5.29533e-05
5.35706e-05
5.08964e-05
0.000231633
0.000124717
0.000111177
0.000105468
0.000102436
0.000100523
9.92054e-05
9.82442e-05
9.75092e-05
9.69303e-05
9.64642e-05
9.60826e-05
9.57654e-05
9.54993e-05
9.52736e-05
9.50811e-05
9.49152e-05
9.47723e-05
9.46479e-05
9.45395e-05
9.44444e-05
9.43605e-05
9.42867e-05
9.42209e-05
9.41626e-05
9.41105e-05
9.40639e-05
9.40221e-05
9.39844e-05
9.39507e-05
9.39198e-05
9.38923e-05
9.38668e-05
9.38443e-05
9.38226e-05
9.38031e-05
9.37854e-05
9.37693e-05
9.37542e-05
9.37406e-05
9.37284e-05
9.37175e-05
9.3707e-05
9.36976e-05
9.36893e-05
9.36817e-05
9.36746e-05
9.36692e-05
9.3664e-05
9.36597e-05
9.36564e-05
9.3654e-05
9.36531e-05
9.36527e-05
9.36543e-05
9.36567e-05
9.36608e-05
9.36655e-05
9.36728e-05
9.36803e-05
9.36902e-05
9.37005e-05
9.37133e-05
9.37246e-05
9.3734e-05
9.37444e-05
9.37545e-05
9.37638e-05
9.37716e-05
9.37796e-05
9.37848e-05
9.37934e-05
9.3793e-05
9.38016e-05
9.37926e-05
9.38035e-05
9.37776e-05
9.37972e-05
9.37401e-05
9.37816e-05
9.36693e-05
9.3742e-05
9.35926e-05
9.35676e-05
9.35662e-05
9.31265e-05
9.42772e-05
9.05775e-05
0.000398022
0.000198745
0.00017291
0.000162536
0.000157386
0.000154306
0.000152261
0.000150811
0.000149725
0.000148882
0.000148212
0.000147667
0.000147218
0.000146844
0.000146527
0.000146259
0.000146028
0.000145831
0.000145659
0.00014551
0.000145379
0.000145264
0.000145163
0.000145073
0.000144994
0.000144923
0.00014486
0.000144803
0.000144752
0.000144707
0.000144665
0.000144628
0.000144594
0.000144564
0.000144534
0.000144508
0.000144484
0.000144462
0.000144441
0.000144423
0.000144406
0.000144391
0.000144376
0.000144362
0.000144349
0.000144337
0.000144325
0.000144314
0.000144303
0.000144292
0.000144282
0.000144271
0.000144261
0.00014425
0.00014424
0.000144229
0.000144217
0.000144204
0.000144191
0.000144175
0.000144158
0.000144138
0.000144116
0.000144095
0.000144076
0.000144056
0.000144035
0.000144011
0.000143983
0.000143953
0.000143918
0.000143887
0.000143839
0.000143807
0.000143741
0.000143713
0.000143616
0.000143605
0.000143453
0.000143484
0.000143239
0.000143329
0.00014303
0.000142965
0.000142882
0.000142249
0.000143889
0.000139819
0.000627525
0.000296584
0.000251024
0.000232988
0.000224425
0.000219549
0.000216434
0.000214295
0.000212734
0.000211547
0.000210616
0.000209871
0.000209263
0.000208759
0.000208338
0.000207982
0.000207679
0.00020742
0.000207196
0.000207002
0.000206833
0.000206685
0.000206556
0.000206441
0.00020634
0.00020625
0.000206169
0.000206098
0.000206033
0.000205976
0.000205924
0.000205877
0.000205834
0.000205797
0.000205759
0.000205726
0.000205696
0.000205669
0.000205642
0.000205619
0.000205597
0.000205578
0.000205558
0.00020554
0.000205522
0.000205505
0.000205486
0.000205469
0.000205452
0.000205432
0.000205412
0.00020539
0.000205367
0.000205341
0.000205314
0.000205283
0.00020525
0.00020521
0.000205169
0.000205118
0.000205063
0.000204998
0.000204927
0.00020486
0.000204801
0.00020474
0.000204675
0.000204605
0.000204527
0.000204447
0.000204356
0.000204273
0.000204162
0.000204078
0.00020394
0.000203864
0.00020368
0.000203631
0.00020337
0.000203384
0.000203001
0.000203106
0.000202653
0.000202561
0.000202402
0.000201692
0.000203477
0.000199588
0.000933291
0.000425575
0.000350417
0.000320235
0.000306212
0.000298525
0.000293786
0.000290634
0.000288402
0.000286743
0.000285469
0.000284466
0.000283659
0.000282999
0.000282453
0.000281997
0.00028161
0.000281283
0.000281003
0.000280762
0.000280552
0.00028037
0.000280212
0.000280071
0.000279949
0.00027984
0.000279744
0.000279658
0.000279581
0.000279513
0.000279451
0.000279397
0.000279346
0.000279302
0.000279258
0.000279218
0.000279183
0.000279151
0.000279119
0.000279092
0.000279067
0.000279044
0.00027902
0.000278997
0.000278975
0.000278952
0.000278927
0.000278902
0.000278877
0.000278848
0.000278816
0.00027878
0.000278742
0.000278697
0.00027865
0.000278595
0.000278534
0.000278461
0.000278384
0.000278291
0.000278188
0.000278069
0.000277936
0.000277813
0.000277707
0.000277594
0.000277476
0.000277351
0.000277214
0.000277074
0.000276919
0.000276777
0.000276594
0.000276452
0.000276235
0.000276104
0.000275831
0.000275736
0.000275377
0.00027536
0.000274869
0.000274969
0.000274386
0.000274297
0.000274084
0.000273451
0.000275095
0.000270157
0.00133045
0.000594737
0.000477714
0.000428987
0.000406377
0.000394276
0.000387024
0.00038234
0.000379116
0.000376784
0.000375032
0.000373682
0.000372615
0.000371758
0.000371059
0.000370481
0.000369999
0.000369595
0.000369253
0.000368962
0.000368711
0.000368494
0.000368309
0.000368144
0.000368003
0.000367878
0.000367768
0.000367671
0.000367584
0.000367508
0.000367439
0.000367379
0.000367322
0.000367276
0.000367226
0.000367182
0.000367144
0.000367109
0.000367074
0.000367043
0.000367016
0.000366992
0.000366965
0.000366938
0.000366912
0.000366886
0.000366855
0.000366822
0.000366788
0.000366751
0.000366706
0.000366656
0.000366601
0.000366536
0.000366466
0.000366384
0.000366293
0.000366183
0.000366067
0.000365926
0.00036577
0.00036559
0.000365389
0.000365206
0.000365048
0.00036488
0.000364705
0.00036452
0.00036432
0.000364118
0.000363897
0.000363693
0.000363439
0.000363238
0.000362949
0.000362761
0.000362417
0.000362267
0.000361851
0.000361771
0.000361257
0.000361296
0.000360659
0.000360615
0.000360393
0.000359957
0.000361389
0.000350841
0.00183606
0.000814679
0.000641519
0.000565559
0.000529762
0.000510783
0.000499621
0.000492571
0.000487839
0.000484501
0.000482056
0.000480212
0.000478786
0.000477664
0.000476765
0.000476036
0.000475436
0.000474943
0.000474531
0.000474186
0.000473893
0.000473643
0.000473432
0.000473247
0.00047309
0.000472953
0.000472834
0.000472731
0.000472639
0.00047256
0.000472488
0.000472428
0.000472369
0.000472324
0.000472272
0.000472227
0.000472191
0.000472156
0.00047212
0.00047209
0.000472064
0.000472041
0.000472014
0.000471986
0.000471959
0.00047193
0.000471896
0.000471857
0.000471815
0.000471769
0.000471716
0.000471651
0.000471581
0.000471495
0.000471404
0.000471296
0.000471175
0.000471029
0.000470874
0.000470685
0.000470478
0.000470238
0.000469972
0.000469729
0.000469522
0.000469301
0.000469072
0.000468831
0.000468574
0.000468312
0.000468036
0.000467777
0.000467467
0.000467214
0.000466877
0.000466635
0.000466263
0.000466047
0.000465647
0.000465466
0.000465025
0.000464975
0.0004644
0.000464438
0.000464244
0.000464005
0.000465657
0.000448276
0.00246883
0.00109747
0.000852619
0.000738255
0.000682783
0.000653257
0.000636033
0.000625303
0.000618235
0.000613355
0.000609857
0.000607279
0.000605328
0.000603826
0.000602649
0.000601714
0.000600961
0.000600355
0.000599859
0.000599452
0.000599114
0.00059883
0.000598597
0.000598395
0.000598229
0.000598086
0.000597965
0.000597862
0.000597772
0.000597698
0.00059763
0.000597576
0.000597523
0.000597486
0.000597438
0.000597398
0.000597368
0.000597338
0.000597307
0.000597283
0.000597262
0.000597247
0.000597224
0.000597199
0.000597175
0.000597147
0.000597114
0.000597073
0.000597028
0.000596974
0.000596915
0.000596841
0.00059676
0.000596658
0.000596551
0.000596421
0.000596275
0.000596099
0.000595913
0.000595684
0.000595435
0.000595146
0.000594826
0.000594535
0.000594291
0.00059403
0.000593762
0.000593477
0.000593179
0.000592875
0.000592569
0.00059227
0.000591934
0.000591649
0.000591303
0.00059102
0.000590679
0.000590395
0.000590069
0.000589819
0.000589507
0.000589393
0.000589027
0.000589156
0.000589064
0.000589301
0.000591562
0.000568592
0.00324852
0.00145644
0.00112402
0.000957737
0.000873863
0.000828525
0.000802022
0.000785589
0.00077488
0.000767595
0.000762461
0.000758747
0.000755992
0.000753916
0.000752323
0.000751087
0.000750113
0.000749348
0.000748739
0.000748251
0.000747857
0.000747535
0.000747281
0.000747066
0.000746896
0.000746755
0.00074664
0.000746547
0.000746468
0.000746409
0.000746354
0.000746318
0.000746279
0.00074626
0.000746223
0.000746197
0.000746183
0.000746166
0.000746146
0.000746136
0.000746127
0.000746127
0.000746115
0.0007461
0.000746085
0.000746066
0.000746039
0.000746003
0.00074596
0.000745907
0.000745847
0.000745769
0.00074569
0.000745577
0.000745465
0.000745324
0.000745166
0.000744973
0.000744773
0.000744521
0.000744251
0.000743934
0.000743588
0.000743275
0.000743016
0.00074274
0.000742459
0.000742153
0.000741844
0.000741526
0.00074123
0.000740919
0.000740605
0.00074032
0.000740021
0.000739729
0.000739469
0.00073917
0.000738935
0.000738807
0.00073856
0.000738619
0.000738364
0.000738681
0.000738753
0.00073943
0.000742861
0.000715538
0.00419498
0.00190597
0.00147071
0.00123724
0.00111386
0.00104549
0.00100507
0.000979906
0.000963547
0.000952499
0.000944792
0.000939287
0.000935264
0.000932281
0.000930034
0.000928325
0.000927009
0.000925998
0.000925214
0.000924604
0.000924128
0.000923752
0.000923468
0.000923237
0.000923066
0.000922933
0.000922832
0.000922759
0.000922702
0.00092267
0.000922641
0.000922635
0.000922622
0.000922633
0.000922618
0.000922616
0.000922629
0.000922636
0.000922637
0.000922651
0.000922665
0.000922689
0.000922699
0.000922703
0.000922706
0.000922704
0.000922694
0.000922672
0.000922641
0.000922598
0.000922548
0.000922479
0.00092241
0.000922302
0.000922204
0.000922067
0.000921917
0.000921728
0.000921544
0.000921295
0.00092104
0.000920731
0.000920404
0.00092011
0.000919871
0.000919616
0.000919359
0.000919068
0.000918792
0.000918505
0.000918278
0.000917994
0.000917768
0.000917541
0.000917338
0.000917181
0.000916957
0.000916867
0.000916677
0.000916734
0.000916641
0.000916893
0.000916915
0.000917458
0.000917812
0.000918891
0.000923591
0.000892845
0.00532685
0.00246124
0.00190909
0.0015925
0.00141641
0.00131559
0.00125484
0.00121659
0.00119159
0.00117469
0.00116295
0.0011546
0.00114855
0.00114411
0.0011408
0.00113832
0.00113644
0.00113502
0.00113394
0.00113312
0.00113251
0.00113203
0.00113169
0.00113143
0.00113125
0.00113112
0.00113104
0.00113099
0.00113096
0.00113097
0.00113098
0.00113102
0.00113104
0.0011311
0.00113112
0.00113115
0.0011312
0.00113125
0.00113128
0.00113133
0.00113138
0.00113144
0.00113149
0.00113152
0.00113156
0.00113158
0.0011316
0.00113161
0.0011316
0.00113158
0.00113156
0.00113151
0.00113147
0.00113139
0.00113133
0.00113122
0.00113112
0.00113096
0.00113083
0.00113063
0.00113044
0.00113018
0.00112994
0.00112972
0.00112955
0.00112936
0.00112918
0.00112899
0.0011288
0.00112863
0.00112847
0.00112835
0.0011282
0.00112815
0.00112806
0.00112808
0.00112807
0.00112816
0.00112823
0.00112848
0.00112869
0.00112917
0.00112958
0.00113041
0.00113116
0.00113267
0.00113854
0.00110489
0.00665984
0.00313806
0.00245599
0.00204115
0.00179786
0.00165316
0.0015637
0.00150634
0.0014684
0.00144258
0.00142456
0.00141174
0.00140245
0.00139565
0.0013906
0.00138684
0.00138401
0.00138189
0.0013803
0.00137911
0.00137822
0.00137756
0.0013771
0.00137675
0.00137653
0.00137638
0.0013763
0.00137628
0.00137628
0.00137633
0.00137638
0.00137647
0.00137654
0.00137666
0.00137672
0.0013768
0.00137691
0.001377
0.00137708
0.00137719
0.00137728
0.0013774
0.00137749
0.00137757
0.00137765
0.00137772
0.00137778
0.00137783
0.00137787
0.00137789
0.00137791
0.00137791
0.00137793
0.0013779
0.0013779
0.00137785
0.00137783
0.00137775
0.00137772
0.00137762
0.00137755
0.00137741
0.00137732
0.00137724
0.0013772
0.00137715
0.00137712
0.00137708
0.00137707
0.00137707
0.0013771
0.00137717
0.00137724
0.0013774
0.00137756
0.0013778
0.00137811
0.00137842
0.0013789
0.00137938
0.00138004
0.00138079
0.00138169
0.00138287
0.00138411
0.00138616
0.00139249
0.00135693
0.00819928
0.00395273
0.00312744
0.00260157
0.00227674
0.00207535
0.00194693
0.00186266
0.00180591
0.0017668
0.00173923
0.00171948
0.0017051
0.00169452
0.00168665
0.00168077
0.00167634
0.00167302
0.00167052
0.00166865
0.00166726
0.00166622
0.00166549
0.00166495
0.0016646
0.00166437
0.00166424
0.00166421
0.00166421
0.00166429
0.00166437
0.00166452
0.00166464
0.00166481
0.00166492
0.00166506
0.00166524
0.00166538
0.00166551
0.00166569
0.00166585
0.00166604
0.00166619
0.00166633
0.00166648
0.00166661
0.00166673
0.00166683
0.00166693
0.00166701
0.0016671
0.00166717
0.00166727
0.00166732
0.00166743
0.00166748
0.00166759
0.00166764
0.00166777
0.00166782
0.00166795
0.001668
0.00166816
0.00166827
0.00166846
0.00166859
0.00166881
0.00166899
0.00166925
0.00166948
0.0016698
0.00167012
0.00167053
0.00167095
0.00167148
0.00167201
0.00167275
0.00167334
0.00167434
0.00167511
0.00167633
0.00167741
0.00167891
0.00168049
0.00168226
0.00168503
0.00169106
0.00165443
0.00993389
0.00492231
0.00393703
0.00329084
0.00287229
0.00260141
0.00242263
0.00230201
0.00221896
0.00216069
0.00211903
0.00208882
0.0020666
0.0020501
0.00203773
0.00202839
0.00202132
0.00201595
0.00201189
0.0020088
0.00200648
0.00200472
0.00200345
0.00200249
0.00200184
0.00200139
0.00200111
0.00200097
0.00200091
0.00200096
0.00200103
0.0020012
0.00200134
0.00200155
0.00200168
0.00200187
0.00200211
0.00200231
0.00200249
0.00200274
0.00200298
0.00200325
0.00200348
0.0020037
0.00200391
0.00200412
0.00200431
0.00200449
0.00200466
0.00200483
0.002005
0.00200517
0.00200538
0.00200555
0.0020058
0.00200599
0.00200628
0.0020065
0.00200686
0.00200713
0.00200754
0.00200785
0.00200836
0.00200875
0.00200924
0.00200962
0.00201018
0.00201062
0.00201127
0.00201178
0.00201252
0.00201314
0.002014
0.00201474
0.00201577
0.00201663
0.00201789
0.00201887
0.00202044
0.00202155
0.00202345
0.00202487
0.00202706
0.00202902
0.00203142
0.002035
0.00204029
0.00200323
0.0118269
0.00606583
0.00489413
0.00412219
0.00360196
0.00325088
0.00301057
0.00284335
0.00272519
0.00264046
0.00257878
0.00253333
0.00249942
0.00247391
0.00245456
0.00243975
0.00242843
0.0024197
0.002413
0.00240781
0.00240384
0.00240077
0.00239847
0.00239669
0.0023954
0.00239446
0.00239378
0.00239335
0.00239307
0.00239296
0.00239292
0.00239302
0.0023931
0.00239329
0.00239338
0.0023936
0.00239386
0.00239407
0.00239427
0.0023946
0.0023949
0.00239527
0.00239556
0.00239585
0.00239614
0.00239642
0.00239669
0.00239695
0.00239721
0.00239747
0.00239775
0.00239804
0.00239837
0.00239869
0.00239912
0.00239949
0.00240001
0.00240046
0.0024011
0.00240165
0.00240243
0.00240306
0.00240402
0.00240475
0.00240561
0.00240631
0.00240729
0.00240807
0.00240918
0.00241004
0.00241129
0.00241226
0.00241367
0.00241478
0.00241639
0.00241765
0.0024195
0.00242093
0.0024231
0.00242466
0.00242725
0.00242901
0.002432
0.00243425
0.00243739
0.00244148
0.00244609
0.00240911
0.0138027
0.00740801
0.00600166
0.00510182
0.00447791
0.00404039
0.00372977
0.00350643
0.00334405
0.00322468
0.0031359
0.00306922
0.00301862
0.00297993
0.00295016
0.002927
0.00290906
0.00289499
0.00288403
0.00287536
0.00286859
0.00286325
0.00285911
0.00285582
0.00285332
0.0028514
0.00284991
0.00284884
0.00284803
0.00284752
0.00284713
0.00284699
0.00284683
0.00284686
0.00284676
0.0028469
0.0028471
0.00284724
0.00284737
0.00284773
0.00284808
0.00284854
0.0028488
0.00284917
0.00284948
0.00284983
0.00285017
0.00285047
0.00285083
0.00285117
0.00285155
0.00285197
0.00285244
0.00285292
0.00285356
0.00285413
0.00285492
0.00285563
0.00285662
0.0028575
0.0028587
0.00285971
0.00286117
0.00286231
0.00286361
0.00286466
0.00286613
0.00286729
0.00286894
0.0028702
0.00287202
0.0028734
0.00287541
0.00287694
0.00287917
0.00288088
0.00288336
0.00288527
0.00288806
0.00289016
0.00289333
0.00289558
0.00289923
0.00290174
0.00290569
0.00290991
0.00291394
0.00287761
0.0157782
0.00893358
0.00725256
0.00622567
0.00550284
0.00497925
0.00459443
0.0043085
0.00409426
0.00393245
0.00380919
0.00371458
0.00364138
0.00358439
0.00353977
0.00350445
0.00347671
0.00345453
0.00343696
0.00342281
0.00341153
0.00340244
0.0033952
0.00338933
0.00338468
0.00338097
0.00337798
0.00337566
0.0033738
0.00337241
0.00337128
0.00337055
0.00336983
0.00336941
0.00336884
0.00336873
0.00336864
0.00336853
0.00336856
0.00336887
0.00336915
0.00336961
0.00336977
0.00337004
0.00337035
0.0033706
0.00337099
0.00337119
0.00337166
0.00337202
0.00337248
0.003373
0.00337359
0.00337424
0.00337508
0.00337587
0.00337693
0.00337792
0.00337929
0.00338052
0.00338217
0.0033836
0.00338559
0.00338716
0.00338891
0.00339037
0.00339235
0.00339395
0.00339613
0.00339785
0.00340024
0.00340209
0.00340469
0.0034067
0.00340953
0.00341172
0.00341481
0.0034172
0.00342059
0.00342317
0.00342691
0.00342968
0.00343382
0.00343677
0.00344127
0.00344532
0.00344888
0.00341378
0.0176496
0.010595
0.00862591
0.0074763
0.00666569
0.0060642
0.00560844
0.00525903
0.00498919
0.00477959
0.00461577
0.00448704
0.00438528
0.00430443
0.00423994
0.00418801
0.00414638
0.00411265
0.00408542
0.00406305
0.0040449
0.00403001
0.00401785
0.00400779
0.00399961
0.00399288
0.00398729
0.00398278
0.00397902
0.00397602
0.00397349
0.00397155
0.00396969
0.00396842
0.00396701
0.00396611
0.00396561
0.00396488
0.00396448
0.00396449
0.00396441
0.00396467
0.00396457
0.00396456
0.00396479
0.003965
0.00396521
0.00396511
0.00396547
0.00396571
0.00396622
0.00396672
0.0039674
0.00396818
0.00396918
0.00397016
0.00397146
0.00397271
0.00397444
0.00397602
0.0039781
0.00397992
0.00398238
0.00398441
0.00398658
0.00398845
0.00399091
0.00399297
0.00399566
0.00399787
0.00400077
0.00400312
0.00400624
0.00400874
0.00401211
0.00401477
0.00401841
0.00402123
0.00402517
0.00402814
0.00403242
0.0040355
0.00404018
0.00404331
0.0040485
0.00405156
0.00405618
0.00402151
0.019289
0.012307
0.0100826
0.00882022
0.00793812
0.00727438
0.00675914
0.006353
0.00603023
0.00577245
0.0055656
0.00539901
0.00526427
0.00515489
0.00506586
0.00499286
0.00493319
0.00488366
0.00484351
0.00480962
0.00478171
0.0047584
0.00473891
0.00472256
0.00470895
0.00469748
0.00468776
0.00467968
0.00467279
0.00466705
0.00466212
0.00465805
0.00465448
0.00465147
0.00464858
0.00464613
0.00464456
0.0046429
0.00464159
0.00464082
0.00463999
0.00463966
0.0046389
0.00463837
0.00463828
0.00463818
0.00463791
0.00463758
0.0046374
0.00463743
0.00463775
0.00463782
0.00463867
0.00463949
0.00464047
0.00464163
0.00464305
0.00464448
0.00464648
0.00464835
0.00465073
0.00465288
0.00465568
0.00465811
0.00466061
0.00466288
0.00466572
0.00466823
0.00467133
0.00467401
0.00467733
0.00468015
0.00468368
0.00468664
0.00469042
0.00469351
0.00469755
0.00470074
0.00470509
0.00470834
0.00471304
0.00471628
0.00472138
0.00472453
0.00473021
0.00473288
0.0047378
0.00470432
0.0205422
0.0139495
0.0115609
0.0102054
0.00927215
0.00856752
0.00801181
0.007564
0.00719902
0.00689985
0.00665354
0.0064502
0.00628184
0.00614206
0.00602586
0.00592869
0.00584769
0.00577926
0.00572245
0.00567382
0.00563339
0.0055988
0.00556925
0.0055442
0.00552291
0.00550457
0.00548879
0.00547539
0.00546375
0.00545378
0.00544511
0.00543761
0.00543115
0.00542541
0.00542049
0.00541536
0.00541186
0.00540843
0.00540559
0.00540327
0.00540099
0.00539948
0.00539742
0.00539609
0.00539527
0.00539446
0.00539344
0.00539208
0.00539155
0.00539095
0.00539088
0.00539092
0.00539073
0.00539166
0.00539216
0.00539363
0.00539492
0.00539637
0.0053984
0.00540038
0.00540283
0.00540516
0.00540805
0.00541076
0.00541345
0.00541602
0.00541909
0.00542195
0.0054253
0.00542836
0.00543194
0.00543514
0.00543893
0.00544224
0.00544626
0.00544966
0.00545393
0.00545738
0.00546193
0.00546534
0.00547023
0.00547353
0.00547882
0.00548191
0.00548779
0.00549026
0.00549511
0.00546344
0.021211
0.0153967
0.0129719
0.0115584
0.010599
0.00987844
0.0093066
0.00883911
0.00845051
0.00812474
0.0078502
0.00761813
0.00742152
0.00725458
0.00711278
0.00699176
0.00688883
0.0068003
0.0067251
0.00665997
0.0066044
0.00655638
0.00651462
0.00647886
0.00644769
0.00642033
0.00639653
0.00637597
0.00635779
0.00634189
0.00632787
0.00631546
0.0063047
0.00629495
0.00628661
0.00627863
0.00627183
0.00626585
0.00626027
0.00625523
0.00625021
0.00624697
0.00624294
0.00624053
0.00623829
0.00623619
0.00623351
0.00623122
0.00622958
0.00622824
0.00622731
0.00622692
0.00622643
0.00622651
0.00622644
0.00622739
0.00622815
0.00622925
0.0062309
0.00623261
0.00623477
0.00623696
0.00623962
0.00624239
0.00624507
0.00624774
0.00625083
0.00625384
0.00625725
0.00626048
0.00626413
0.00626751
0.00627135
0.00627483
0.00627887
0.0062824
0.00628666
0.00629019
0.00629469
0.00629813
0.00630294
0.00630617
0.0063114
0.00631432
0.00632017
0.00632237
0.00632692
0.00629753
0.021001
0.016586
0.0142
0.0127803
0.0118276
0.0111193
0.0105586
0.0100976
0.00970959
0.00937879
0.00909455
0.00884924
0.00863697
0.00845283
0.0082931
0.00815397
0.00803319
0.00792741
0.00783559
0.00775489
0.0076845
0.00762272
0.00756832
0.0075205
0.00747848
0.00744106
0.00740814
0.00737917
0.007353
0.00732972
0.00730899
0.00729027
0.00727402
0.00725908
0.00724598
0.00723382
0.00722284
0.0072131
0.00720404
0.00719595
0.00718837
0.00718202
0.0071758
0.00717055
0.00716589
0.00716164
0.0071577
0.00715403
0.00715088
0.0071478
0.00714568
0.00714396
0.007143
0.00714146
0.00714066
0.00713993
0.00713969
0.00713979
0.00714046
0.00714139
0.00714276
0.00714437
0.00714638
0.0071489
0.00715132
0.00715382
0.00715667
0.00715954
0.00716272
0.00716585
0.00716928
0.00717257
0.00717619
0.00717957
0.00718338
0.00718679
0.00719077
0.00719416
0.00719835
0.0072016
0.00720608
0.00720907
0.00721398
0.0072166
0.00722214
0.00722402
0.007228
0.00720129
0.0197527
0.0172354
0.015076
0.0137396
0.0128437
0.0121811
0.0116606
0.0112339
0.0108731
0.0105625
0.010292
0.0100547
0.0098457
0.00966092
0.0094975
0.00935233
0.0092238
0.00910915
0.00900755
0.00891676
0.00883601
0.00876385
0.00869941
0.0086416
0.00858999
0.00854354
0.0085017
0.00846437
0.00843043
0.00839984
0.00837222
0.0083466
0.00832512
0.00830432
0.00828564
0.00826823
0.00825235
0.00823808
0.00822485
0.00821293
0.00820183
0.00819195
0.00818268
0.00817432
0.00816667
0.00815977
0.00815333
0.0081476
0.0081422
0.00813737
0.00813406
0.00813033
0.00812771
0.00812433
0.00812189
0.00811967
0.00811798
0.00811668
0.00811593
0.00811559
0.00811571
0.00811622
0.00811712
0.008119
0.00812088
0.0081229
0.00812521
0.0081276
0.00813026
0.00813293
0.00813585
0.00813871
0.00814182
0.00814479
0.00814806
0.00815107
0.00815449
0.00815746
0.00816107
0.00816391
0.00816778
0.00817038
0.00817467
0.00817691
0.00818168
0.00818413
0.00818585
0.00816257
0.0176304
0.0168356
0.0153508
0.0142611
0.0135035
0.0129329
0.0124869
0.0121237
0.0118169
0.0115523
0.0113203
0.0111147
0.0109313
0.0107667
0.0106186
0.0104847
0.0103639
0.0102543
0.0101551
0.010065
0.00998327
0.00990887
0.00984132
0.00977968
0.00972357
0.00967246
0.00962554
0.00958298
0.0095438
0.00950805
0.00947523
0.00944481
0.00941745
0.00939196
0.00936866
0.00934709
0.00932706
0.0093087
0.00929158
0.00927591
0.0092613
0.00924795
0.00923549
0.00922405
0.00921341
0.00920368
0.00919462
0.00918631
0.00917869
0.00917154
0.0091653
0.00915955
0.00915448
0.00914979
0.00914566
0.00914188
0.00913861
0.00913575
0.00913341
0.00913149
0.00913007
0.00912907
0.00912847
0.00912937
0.00913046
0.00913172
0.00913323
0.00913486
0.00913671
0.00913863
0.00914075
0.00914288
0.0091452
0.00914746
0.00914993
0.00915225
0.00915487
0.00915718
0.00915996
0.0091622
0.00916521
0.00916727
0.00917066
0.00917246
0.00917618
0.00917843
0.00917916
0.00915915
0.0146065
0.0152715
0.0148476
0.0141492
0.0136419
0.0132266
0.0128999
0.0126334
0.0124082
0.0122145
0.0120447
0.0118937
0.0117579
0.0116346
0.0115222
0.0114189
0.0113242
0.0112365
0.0111557
0.0110807
0.0110115
0.0109472
0.0108876
0.0108323
0.0107809
0.0107333
0.0106888
0.0106477
0.0106093
0.0105736
0.0105404
0.0105094
0.0104807
0.0104538
0.0104287
0.0104055
0.0103836
0.0103634
0.0103443
0.0103266
0.01031
0.0102946
0.0102802
0.0102667
0.0102542
0.0102425
0.0102316
0.0102214
0.010212
0.0102032
0.0101951
0.0101876
0.0101808
0.0101744
0.0101687
0.0101634
0.0101587
0.0101543
0.0101505
0.010147
0.0101441
0.0101415
0.0101393
0.0101391
0.0101393
0.0101397
0.0101403
0.010141
0.0101419
0.0101429
0.0101441
0.0101454
0.0101468
0.0101481
0.0101497
0.0101512
0.0101529
0.0101544
0.0101563
0.0101577
0.0101598
0.0101612
0.0101637
0.0101648
0.0101676
0.0101691
0.0101693
0.0101528
0.0116519
0.0129339
0.0133641
0.0132894
0.0131222
0.0129335
0.0127808
0.0126483
0.0125324
0.0124336
0.0123471
0.0122703
0.0122009
0.0121373
0.0120783
0.0120229
0.011971
0.0119216
0.011875
0.0118304
0.0117881
0.0117476
0.011709
0.0116721
0.011637
0.0116036
0.0115716
0.0115413
0.0115124
0.011485
0.011459
0.0114342
0.0114107
0.0113884
0.0113673
0.0113474
0.0113285
0.0113106
0.0112937
0.0112777
0.0112626
0.0112483
0.0112349
0.0112222
0.0112103
0.011199
0.0111885
0.0111785
0.0111692
0.0111604
0.0111523
0.0111447
0.0111376
0.0111309
0.0111248
0.011119
0.0111138
0.0111088
0.0111044
0.0111001
0.0110963
0.0110927
0.0110896
0.0110886
0.0110882
0.011088
0.011088
0.011088
0.0110883
0.0110886
0.0110891
0.0110896
0.0110903
0.011091
0.0110918
0.0110927
0.0110936
0.0110945
0.0110957
0.0110966
0.011098
0.0110988
0.0111006
0.0111011
0.0111034
0.0111041
0.0111038
0.011091
0.0118748
0.011431
0.0117448
0.0119543
0.0121157
0.0121363
0.0121675
0.012183
0.0121879
0.0121971
0.0122048
0.012213
0.0122203
0.0122262
0.0122305
0.0122333
0.0122346