/*--------------------------------*- C++ -*----------------------------------*\
| =========                 |                                                 |
| \\      /  F ield         | OpenFOAM: The Open Source CFD Toolbox           |
|  \\    /   O peration     | Version:  2306                                  |
|   \\  /    A nd           | Website:  www.openfoam.com                      |
|    \\/     M anipulation  |                                                 |
\*---------------------------------------------------------------------------*/
FoamFile
{
    version     2.0;
    format      ascii;
    arch        "LSB;label=32;scalar=64";
    class       volScalarField;
    location    "1700";
    object      p;
}
// * * * * * * * * * * * * * * * * * * * * * * * * * * * * * * * * * * * * * //

dimensions      [0 2 -2 0 0 0 0];

internalField   nonuniform List<scalar> 
20540
(
203.868
62.1764
203.866
57.7046
203.862
54.4082
203.857
52.6098
203.85
51.5112
203.84
50.6895
203.827
50.0271
203.81
49.4856
203.788
49.0372
203.761
48.6609
203.727
48.3433
203.686
48.0762
203.635
47.8548
203.575
47.6766
203.503
47.5408
203.419
47.4474
203.322
47.3968
203.212
47.3892
203.089
47.4239
202.952
47.4995
202.805
47.6123
202.652
47.7557
202.497
47.9228
202.326
48.1198
202.1
48.3946
201.761
48.8375
201.294
49.482
200.778
50.2118
200.299
50.9083
199.881
51.5234
199.592
51.9271
199.462
52.0807
199.483
51.9956
199.653
51.6717
199.976
51.1034
200.415
50.3545
200.91
49.5495
201.44
48.7286
201.921
48.0049
202.275
47.4919
202.52
47.1561
202.711
46.9061
202.888
46.6923
203.061
46.5073
203.228
46.3564
203.385
46.2449
203.528
46.1751
203.656
46.1477
203.77
46.1628
203.87
46.2197
203.955
46.3177
204.027
46.4559
204.088
46.6339
204.138
46.8528
204.179
47.115
204.213
47.4254
204.24
47.792
204.262
48.2279
204.279
48.7537
204.292
49.3962
204.303
50.1931
204.31
51.2601
204.315
53.012
204.319
56.2275
204.321
60.59
-3.56982
5.49292
-0.654113
-7.7701
-13.3396
-18.6102
-23.8323
-28.7894
-33.5019
-38.0116
-42.3272
-46.4556
-50.4086
-54.196
-57.8266
-61.3081
-64.6484
-67.8542
-70.932
-73.8878
-76.7274
-79.4558
-82.0782
-84.5993
-87.0232
-89.3542
-91.5963
-93.7531
-95.8282
-97.825
-99.7467
-101.597
-103.377
-105.092
-106.744
-108.336
-109.87
-111.35
-112.778
-114.158
-115.493
-116.786
-118.041
-119.262
-120.453
-121.619
-122.766
-123.898
-125.022
-126.144
-127.272
-128.413
-129.575
-130.769
-132.002
-133.287
-134.633
-136.054
-137.562
-139.173
-140.899
-142.764
-144.777
-146.611
-148.136
-149.701
-151.318
-152.987
-154.709
-156.486
-158.317
-160.207
-162.154
-164.165
-166.236
-168.383
-170.589
-172.895
-175.252
-177.764
-180.287
-183.104
-185.8
-189.153
-192.02
-196.44
-199.863
-206.856
-3.56611
5.49406
-0.653675
-7.76984
-13.3394
-18.6101
-23.8322
-28.7893
-33.5018
-38.0116
-42.3272
-46.4556
-50.4086
-54.196
-57.8265
-61.3081
-64.6484
-67.8542
-70.932
-73.8877
-76.7274
-79.4558
-82.0782
-84.5992
-87.0232
-89.3542
-91.5963
-93.7531
-95.8282
-97.825
-99.7467
-101.596
-103.377
-105.092
-106.744
-108.336
-109.87
-111.35
-112.778
-114.158
-115.493
-116.786
-118.041
-119.262
-120.453
-121.619
-122.766
-123.898
-125.022
-126.144
-127.272
-128.413
-129.575
-130.769
-132.002
-133.287
-134.633
-136.054
-137.562
-139.173
-140.899
-142.764
-144.777
-146.611
-148.136
-149.701
-151.318
-152.987
-154.709
-156.486
-158.317
-160.207
-162.154
-164.166
-166.237
-168.383
-170.59
-172.896
-175.252
-177.765
-180.288
-183.105
-185.801
-189.155
-192.023
-196.442
-199.87
-206.671
-3.56654
5.49612
-0.652774
-7.76926
-13.339
-18.6098
-23.832
-28.7891
-33.5016
-38.0114
-42.3271
-46.4555
-50.4085
-54.1959
-57.8265
-61.308
-64.6483
-67.8541
-70.9319
-73.8877
-76.7273
-79.4558
-82.0782
-84.5992
-87.0232
-89.3541
-91.5963
-93.7531
-95.8282
-97.825
-99.7467
-101.596
-103.377
-105.092
-106.744
-108.336
-109.87
-111.35
-112.778
-114.158
-115.493
-116.786
-118.041
-119.262
-120.453
-121.619
-122.766
-123.898
-125.022
-126.144
-127.272
-128.413
-129.575
-130.769
-132.002
-133.287
-134.633
-136.054
-137.562
-139.173
-140.899
-142.764
-144.777
-146.611
-148.136
-149.702
-151.318
-152.988
-154.71
-156.487
-158.318
-160.208
-162.155
-164.167
-166.238
-168.385
-170.591
-172.898
-175.254
-177.768
-180.291
-183.109
-185.805
-189.159
-192.028
-196.445
-199.882
-206.375
-3.56946
5.49873
-0.651438
-7.76836
-13.3383
-18.6093
-23.8316
-28.7888
-33.5014
-38.0112
-42.3269
-46.4553
-50.4084
-54.1958
-57.8264
-61.3079
-64.6482
-67.8541
-70.9319
-73.8876
-76.7273
-79.4557
-82.0781
-84.5992
-87.0231
-89.3541
-91.5962
-93.753
-95.8281
-97.8249
-99.7466
-101.596
-103.377
-105.092
-106.744
-108.336
-109.87
-111.35
-112.778
-114.158
-115.493
-116.786
-118.041
-119.262
-120.453
-121.619
-122.766
-123.898
-125.022
-126.144
-127.272
-128.413
-129.575
-130.769
-132.002
-133.287
-134.633
-136.055
-137.562
-139.173
-140.9
-142.765
-144.778
-146.612
-148.137
-149.702
-151.319
-152.989
-154.711
-156.488
-158.32
-160.21
-162.157
-164.169
-166.24
-168.387
-170.594
-172.901
-175.258
-177.772
-180.295
-183.114
-185.81
-189.166
-192.038
-196.449
-199.893
-206.104
-3.57728
5.50117
-0.649879
-7.76721
-13.3375
-18.6086
-23.831
-28.7884
-33.501
-38.0109
-42.3266
-46.4551
-50.4082
-54.1956
-57.8262
-61.3078
-64.6481
-67.8539
-70.9318
-73.8876
-76.7272
-79.4557
-82.0781
-84.5991
-87.0231
-89.354
-91.5962
-93.753
-95.8281
-97.8249
-99.7466
-101.596
-103.377
-105.092
-106.744
-108.336
-109.87
-111.35
-112.778
-114.158
-115.493
-116.786
-118.041
-119.262
-120.453
-121.619
-122.766
-123.898
-125.022
-126.144
-127.272
-128.413
-129.576
-130.769
-132.003
-133.287
-134.634
-136.055
-137.563
-139.174
-140.9
-142.765
-144.779
-146.613
-148.138
-149.704
-151.321
-152.99
-154.713
-156.49
-158.322
-160.212
-162.16
-164.172
-166.243
-168.391
-170.598
-172.905
-175.262
-177.777
-180.3
-183.121
-185.817
-189.174
-192.049
-196.451
-199.893
-205.911
-3.5932
5.50302
-0.648293
-7.7659
-13.3364
-18.6078
-23.8303
-28.7878
-33.5006
-38.0105
-42.3263
-46.4548
-50.4079
-54.1954
-57.826
-61.3076
-64.6479
-67.8538
-70.9316
-73.8874
-76.7271
-79.4556
-82.078
-84.599
-87.023
-89.354
-91.5961
-93.7529
-95.828
-97.8248
-99.7465
-101.596
-103.377
-105.092
-106.744
-108.336
-109.87
-111.35
-112.778
-114.158
-115.493
-116.786
-118.041
-119.262
-120.453
-121.62
-122.766
-123.898
-125.022
-126.144
-127.272
-128.413
-129.576
-130.769
-132.003
-133.288
-134.634
-136.056
-137.563
-139.175
-140.901
-142.766
-144.78
-146.614
-148.139
-149.705
-151.323
-152.992
-154.715
-156.492
-158.324
-160.215
-162.163
-164.175
-166.247
-168.395
-170.602
-172.911
-175.268
-177.783
-180.307
-183.129
-185.825
-189.183
-192.061
-196.451
-199.876
-205.785
-3.62035
5.50389
-0.646869
-7.76451
-13.3351
-18.6067
-23.8295
-28.7871
-33.5
-38.01
-42.3259
-46.4544
-50.4076
-54.1951
-57.8258
-61.3074
-64.6477
-67.8536
-70.9315
-73.8873
-76.7269
-79.4554
-82.0779
-84.5989
-87.0229
-89.3539
-91.596
-93.7528
-95.828
-97.8247
-99.7465
-101.596
-103.377
-105.092
-106.744
-108.336
-109.87
-111.35
-112.778
-114.158
-115.493
-116.786
-118.041
-119.262
-120.453
-121.62
-122.766
-123.898
-125.022
-126.144
-127.272
-128.413
-129.576
-130.769
-132.003
-133.288
-134.634
-136.056
-137.564
-139.175
-140.902
-142.768
-144.781
-146.616
-148.141
-149.707
-151.325
-152.995
-154.718
-156.495
-158.328
-160.218
-162.167
-164.18
-166.252
-168.4
-170.608
-172.917
-175.274
-177.791
-180.314
-183.138
-185.835
-189.191
-192.073
-196.447
-199.838
-205.67
-3.66196
5.50326
-0.645856
-7.76317
-13.3337
-18.6055
-23.8285
-28.7863
-33.4992
-38.0094
-42.3253
-46.454
-50.4072
-54.1947
-57.8254
-61.3071
-64.6475
-67.8534
-70.9312
-73.8871
-76.7267
-79.4553
-82.0777
-84.5988
-87.0227
-89.3537
-91.5959
-93.7527
-95.8278
-97.8246
-99.7464
-101.596
-103.377
-105.092
-106.744
-108.336
-109.87
-111.35
-112.778
-114.158
-115.493
-116.786
-118.041
-119.262
-120.453
-121.62
-122.766
-123.898
-125.022
-126.144
-127.272
-128.413
-129.576
-130.77
-132.003
-133.288
-134.635
-136.057
-137.565
-139.176
-140.903
-142.769
-144.783
-146.618
-148.143
-149.71
-151.327
-152.998
-154.721
-156.499
-158.332
-160.223
-162.171
-164.185
-166.257
-168.406
-170.614
-172.924
-175.282
-177.799
-180.323
-183.147
-185.844
-189.199
-192.083
-196.434
-199.782
-205.515
-3.72155
5.5004
-0.645593
-7.76206
-13.3322
-18.6042
-23.8273
-28.7852
-33.4984
-38.0086
-42.3247
-46.4534
-50.4066
-54.1942
-57.825
-61.3067
-64.6471
-67.8531
-70.931
-73.8868
-76.7265
-79.455
-82.0775
-84.5986
-87.0226
-89.3536
-91.5958
-93.7526
-95.8277
-97.8245
-99.7463
-101.596
-103.377
-105.092
-106.744
-108.335
-109.87
-111.349
-112.778
-114.158
-115.493
-116.786
-118.041
-119.262
-120.453
-121.62
-122.766
-123.898
-125.022
-126.144
-127.272
-128.414
-129.576
-130.77
-132.004
-133.289
-134.636
-136.058
-137.566
-139.178
-140.905
-142.771
-144.785
-146.62
-148.146
-149.712
-151.33
-153.001
-154.724
-156.503
-158.336
-160.228
-162.177
-164.19
-166.263
-168.413
-170.621
-172.932
-175.289
-177.808
-180.331
-183.156
-185.852
-189.203
-192.088
-196.409
-199.703
-205.299
-3.80296
5.49434
-0.646527
-7.76148
-13.3309
-18.6028
-23.826
-28.7841
-33.4973
-38.0077
-42.3239
-46.4527
-50.406
-54.1937
-57.8245
-61.3062
-64.6467
-67.8527
-70.9306
-73.8865
-76.7262
-79.4548
-82.0772
-84.5983
-87.0223
-89.3534
-91.5956
-93.7524
-95.8275
-97.8244
-99.7461
-101.596
-103.377
-105.092
-106.744
-108.335
-109.87
-111.349
-112.778
-114.158
-115.493
-116.786
-118.041
-119.262
-120.453
-121.62
-122.766
-123.898
-125.022
-126.145
-127.273
-128.414
-129.577
-130.771
-132.004
-133.29
-134.636
-136.059
-137.567
-139.179
-140.906
-142.773
-144.787
-146.623
-148.149
-149.716
-151.334
-153.005
-154.729
-156.507
-158.341
-160.233
-162.182
-164.197
-166.27
-168.42
-170.628
-172.939
-175.297
-177.816
-180.338
-183.163
-185.858
-189.201
-192.085
-196.362
-199.595
-205.019
-3.91013
5.48395
-0.649217
-7.76184
-13.3299
-18.6014
-23.8246
-28.7828
-33.4961
-38.0066
-42.3229
-46.4518
-50.4052
-54.193
-57.8239
-61.3057
-64.6462
-67.8522
-70.9302
-73.8861
-76.7258
-79.4544
-82.0769
-84.598
-87.0221
-89.3531
-91.5953
-93.7522
-95.8273
-97.8242
-99.7459
-101.596
-103.377
-105.092
-106.743
-108.335
-109.869
-111.349
-112.778
-114.158
-115.493
-116.786
-118.041
-119.262
-120.453
-121.619
-122.766
-123.898
-125.022
-126.145
-127.273
-128.414
-129.577
-130.771
-132.005
-133.29
-134.637
-136.06
-137.568
-139.18
-140.908
-142.775
-144.789
-146.625
-148.152
-149.719
-151.338
-153.009
-154.733
-156.512
-158.346
-160.238
-162.188
-164.203
-166.276
-168.427
-170.635
-172.946
-175.304
-177.823
-180.343
-183.165
-185.858
-189.187
-192.067
-196.282
-199.441
-204.662
-4.04683
5.46786
-0.654327
-7.76366
-13.3295
-18.6003
-23.8233
-28.7814
-33.4948
-38.0054
-42.3218
-46.4508
-50.4043
-54.1921
-57.8231
-61.305
-64.6455
-67.8516
-70.9296
-73.8856
-76.7254
-79.454
-82.0765
-84.5977
-87.0217
-89.3528
-91.595
-93.7519
-95.827
-97.8239
-99.7457
-101.596
-103.376
-105.091
-106.743
-108.335
-109.869
-111.349
-112.778
-114.158
-115.493
-116.785
-118.04
-119.262
-120.453
-121.619
-122.766
-123.898
-125.022
-126.145
-127.273
-128.414
-129.577
-130.771
-132.006
-133.291
-134.638
-136.061
-137.569
-139.182
-140.91
-142.777
-144.792
-146.628
-148.155
-149.722
-151.341
-153.013
-154.737
-156.517
-158.351
-160.244
-162.193
-164.208
-166.282
-168.432
-170.64
-172.951
-175.307
-177.824
-180.343
-183.16
-185.849
-189.156
-192.028
-196.157
-199.227
-204.21
-4.21628
5.44451
-0.662601
-7.76762
-13.3303
-18.5997
-23.8222
-28.7801
-33.4935
-38.0041
-42.3206
-46.4496
-50.4032
-54.1911
-57.8222
-61.3041
-64.6447
-67.8509
-70.9289
-73.885
-76.7248
-79.4534
-82.076
-84.5972
-87.0213
-89.3524
-91.5946
-93.7515
-95.8267
-97.8236
-99.7454
-101.595
-103.376
-105.091
-106.743
-108.335
-109.869
-111.349
-112.777
-114.157
-115.492
-116.785
-118.04
-119.262
-120.453
-121.619
-122.766
-123.898
-125.022
-126.145
-127.273
-128.415
-129.578
-130.772
-132.006
-133.292
-134.639
-136.062
-137.571
-139.183
-140.911
-142.779
-144.794
-146.631
-148.158
-149.725
-151.345
-153.016
-154.741
-156.52
-158.355
-160.247
-162.197
-164.212
-166.285
-168.435
-170.642
-172.951
-175.305
-177.819
-180.333
-183.14
-185.824
-189.097
-191.956
-195.971
-198.935
-203.645
-4.42044
5.41205
-0.67481
-7.77448
-13.3329
-18.6002
-23.8217
-28.7791
-33.4923
-38.0028
-42.3193
-46.4484
-50.4021
-54.19
-57.8211
-61.3032
-64.6438
-67.85
-70.9281
-73.8842
-76.7241
-79.4528
-82.0754
-84.5966
-87.0207
-89.3519
-91.5941
-93.7511
-95.8263
-97.8232
-99.745
-101.595
-103.376
-105.091
-106.743
-108.334
-109.869
-111.349
-112.777
-114.157
-115.492
-116.785
-118.04
-119.261
-120.453
-121.619
-122.766
-123.898
-125.022
-126.145
-127.273
-128.415
-129.578
-130.772
-132.006
-133.292
-134.64
-136.062
-137.572
-139.185
-140.913
-142.78
-144.796
-146.632
-148.16
-149.728
-151.347
-153.018
-154.743
-156.522
-158.356
-160.248
-162.198
-164.211
-166.283
-168.432
-170.636
-172.943
-175.293
-177.8
-180.309
-183.098
-185.773
-188.997
-191.832
-195.702
-198.543
-202.949
-4.65891
5.36837
-0.691693
-7.78511
-13.3379
-18.6022
-23.8222
-28.7787
-33.4914
-38.0017
-42.318
-46.4471
-50.4008
-54.1888
-57.82
-61.3021
-64.6428
-67.849
-70.9272
-73.8833
-76.7233
-79.452
-82.0747
-84.5959
-87.0201
-89.3512
-91.5935
-93.7505
-95.8257
-97.8226
-99.7445
-101.594
-103.375
-105.09
-106.742
-108.334
-109.868
-111.348
-112.777
-114.157
-115.492
-116.785
-118.04
-119.261
-120.453
-121.619
-122.766
-123.898
-125.022
-126.145
-127.273
-128.415
-129.578
-130.772
-132.007
-133.292
-134.64
-136.063
-137.572
-139.185
-140.913
-142.781
-144.796
-146.633
-148.16
-149.728
-151.346
-153.018
-154.742
-156.52
-158.353
-160.245
-162.192
-164.204
-166.274
-168.419
-170.62
-172.921
-175.265
-177.761
-180.26
-183.023
-185.683
-188.837
-191.636
-195.326
-198.027
-202.103
-4.92742
5.31099
-0.713906
-7.80035
-13.3462
-18.6065
-23.8242
-28.7793
-33.4912
-38.001
-42.3171
-46.446
-50.3996
-54.1876
-57.8188
-61.3009
-64.6417
-67.8479
-70.9262
-73.8823
-76.7223
-79.4511
-82.0738
-84.5951
-87.0193
-89.3505
-91.5928
-93.7498
-95.8251
-97.822
-99.7439
-101.594
-103.375
-105.09
-106.742
-108.334
-109.868
-111.348
-112.776
-114.156
-115.491
-116.784
-118.039
-119.261
-120.452
-121.619
-122.765
-123.898
-125.022
-126.144
-127.273
-128.414
-129.578
-130.772
-132.006
-133.292
-134.639
-136.062
-137.571
-139.184
-140.912
-142.779
-144.794
-146.63
-148.157
-149.724
-151.342
-153.012
-154.735
-156.512
-158.343
-160.232
-162.177
-164.186
-166.251
-168.391
-170.586
-172.877
-175.211
-177.689
-180.174
-182.897
-185.533
-188.595
-191.338
-194.815
-197.359
-201.086
-5.21609
5.237
-0.742023
-7.82095
-13.3586
-18.6137
-23.8284
-28.7816
-33.4922
-38.0012
-42.3167
-46.4453
-50.3987
-54.1866
-57.8177
-61.2998
-64.6405
-67.8468
-70.9251
-73.8813
-76.7213
-79.4501
-82.0728
-84.5942
-87.0184
-89.3496
-91.592
-93.749
-95.8243
-97.8213
-99.7432
-101.593
-103.374
-105.089
-106.741
-108.333
-109.867
-111.347
-112.776
-114.156
-115.491
-116.784
-118.039
-119.26
-120.452
-121.618
-122.765
-123.897
-125.021
-126.144
-127.272
-128.414
-129.577
-130.771
-132.005
-133.29
-134.638
-136.06
-137.569
-139.181
-140.908
-142.775
-144.789
-146.623
-148.148
-149.714
-151.33
-152.999
-154.719
-156.494
-158.322
-160.207
-162.147
-164.15
-166.208
-168.339
-170.523
-172.8
-175.119
-177.569
-180.03
-182.699
-185.296
-188.239
-190.901
-194.134
-196.508
-199.878
-5.5082
5.14346
-0.776593
-7.84747
-13.3757
-18.6247
-23.8356
-28.7862
-33.4949
-38.0027
-42.3173
-46.4454
-50.3984
-54.186
-57.8169
-61.2988
-64.6395
-67.8458
-70.924
-73.8802
-76.7202
-79.4491
-82.0718
-84.5932
-87.0174
-89.3487
-91.5911
-93.7481
-95.8235
-97.8205
-99.7424
-101.592
-103.373
-105.088
-106.74
-108.332
-109.867
-111.347
-112.775
-114.155
-115.49
-116.783
-118.038
-119.26
-120.451
-121.617
-122.764
-123.896
-125.02
-126.143
-127.271
-128.412
-129.575
-130.768
-132.002
-133.287
-134.634
-136.055
-137.563
-139.174
-140.9
-142.765
-144.777
-146.608
-148.132
-149.696
-151.308
-152.973
-154.69
-156.46
-158.282
-160.16
-162.093
-164.086
-166.134
-168.25
-170.419
-172.672
-174.968
-177.378
-179.803
-182.397
-184.934
-187.731
-190.282
-193.247
-195.438
-198.457
-5.78063
5.02811
-0.818019
-7.88023
-13.398
-18.6399
-23.8463
-28.7937
-33.5
-38.0061
-42.3195
-46.4466
-50.399
-54.1861
-57.8167
-61.2984
-64.6389
-67.845
-70.9231
-73.8793
-76.7192
-79.4481
-82.0708
-84.5922
-87.0164
-89.3477
-91.5901
-93.7472
-95.8225
-97.8196
-99.7415
-101.592
-103.373
-105.088
-106.74
-108.331
-109.866
-111.346
-112.774
-114.154
-115.489
-116.782
-118.037
-119.259
-120.45
-121.616
-122.763
-123.895
-125.018
-126.141
-127.268
-128.409
-129.571
-130.764
-131.998
-133.282
-134.627
-136.047
-137.553
-139.162
-140.886
-142.747
-144.755
-146.583
-148.102
-149.662
-151.27
-152.929
-154.639
-156.401
-158.215
-160.082
-162.003
-163.981
-166.012
-168.106
-170.25
-172.47
-174.73
-177.084
-179.455
-181.951
-184.4
-187.023
-189.428
-192.113
-194.108
-196.794
-6.00465
4.89019
-0.866194
-7.91921
-13.4256
-18.6595
-23.861
-28.8046
-33.508
-38.012
-42.3238
-46.4497
-50.4011
-54.1875
-57.8175
-61.2988
-64.6389
-67.8448
-70.9228
-73.8787
-76.7186
-79.4473
-82.07
-84.5913
-87.0156
-89.3468
-91.5892
-93.7463
-95.8216
-97.8187
-99.7406
-101.591
-103.372
-105.087
-106.739
-108.331
-109.865
-111.345
-112.773
-114.154
-115.488
-116.781
-118.036
-119.257
-120.449
-121.615
-122.761
-123.892
-125.016
-126.138
-127.265
-128.405
-129.566
-130.758
-131.99
-133.272
-134.616
-136.033
-137.537
-139.142
-140.861
-142.717
-144.719
-146.54
-148.053
-149.606
-151.206
-152.856
-154.556
-156.306
-158.105
-159.957
-161.859
-163.814
-165.819
-167.881
-169.989
-172.16
-174.367
-176.645
-178.936
-181.309
-183.636
-186.06
-188.286
-190.683
-192.476
-194.85
-6.14658
4.73076
-0.920062
-7.96409
-13.4581
-18.6833
-23.8797
-28.8193
-33.5194
-38.0208
-42.3307
-46.455
-50.4052
-54.1906
-57.8198
-61.3004
-64.6401
-67.8456
-70.9232
-73.8789
-76.7186
-79.4472
-82.0697
-84.5909
-87.015
-89.3462
-91.5886
-93.7456
-95.8209
-97.8179
-99.7398
-101.59
-103.371
-105.086
-106.738
-108.33
-109.864
-111.344
-112.773
-114.152
-115.487
-116.78
-118.035
-119.256
-120.447
-121.612
-122.758
-123.889
-125.012
-126.133
-127.259
-128.398
-129.558
-130.748
-131.977
-133.257
-134.597
-136.011
-137.51
-139.109
-140.822
-142.67
-144.661
-146.471
-147.975
-149.518
-151.105
-152.741
-154.425
-156.156
-157.935
-159.762
-161.635
-163.557
-165.523
-167.538
-169.593
-171.695
-173.827
-176.003
-178.185
-180.405
-182.574
-184.777
-186.796
-188.906
-190.492
-192.574
-6.16931
4.55287
-0.977103
-8.01422
-13.4947
-18.7105
-23.9017
-28.8373
-33.5341
-38.0328
-42.3405
-46.463
-50.4117
-54.1959
-57.8241
-61.3039
-64.6429
-67.8477
-70.9249
-73.8802
-76.7195
-79.4478
-82.0702
-84.5912
-87.0151
-89.3462
-91.5884
-93.7454
-95.8206
-97.8175
-99.7394
-101.589
-103.37
-105.085
-106.737
-108.329
-109.863
-111.343
-112.772
-114.151
-115.486
-116.779
-118.033
-119.254
-120.444
-121.61
-122.754
-123.885
-125.006
-126.126
-127.25
-128.387
-129.544
-130.731
-131.957
-133.233
-134.568
-135.976
-137.467
-139.058
-140.761
-142.595
-144.571
-146.364
-147.853
-149.38
-150.949
-152.563
-154.223
-155.926
-157.673
-159.464
-161.296
-163.169
-165.079
-167.028
-169.006
-171.015
-173.042
-175.088
-177.124
-179.162
-181.138
-183.101
-184.892
-186.72
-188.099
-189.906
-6.03512
4.36226
-1.03322
-8.06867
-13.5344
-18.7397
-23.926
-28.858
-33.5514
-38.0474
-42.3529
-46.4736
-50.4207
-54.2035
-57.8306
-61.3094
-64.6475
-67.8517
-70.9282
-73.883
-76.7219
-79.4498
-82.0718
-84.5925
-87.0162
-89.3471
-91.5891
-93.7459
-95.821
-97.8178
-99.7395
-101.589
-103.37
-105.085
-106.737
-108.329
-109.863
-111.343
-112.771
-114.15
-115.485
-116.777
-118.031
-119.251
-120.441
-121.605
-122.749
-123.878
-124.998
-126.116
-127.237
-128.371
-129.525
-130.707
-131.928
-133.196
-134.524
-135.922
-137.403
-138.98
-140.666
-142.481
-144.433
-146.201
-147.668
-149.171
-150.712
-152.294
-153.918
-155.581
-157.282
-159.019
-160.791
-162.595
-164.426
-166.282
-168.155
-170.041
-171.928
-173.81
-175.665
-177.493
-179.246
-180.955
-182.505
-184.056
-185.23
-186.772
-5.71039
4.17084
-1.08337
-8.12635
-13.5761
-18.7694
-23.9511
-28.8798
-33.5701
-38.0637
-42.3672
-46.4862
-50.4317
-54.2132
-57.8392
-61.3169
-64.6542
-67.8575
-70.9334
-73.8876
-76.7258
-79.4533
-82.0749
-84.5952
-87.0186
-89.3492
-91.5909
-93.7475
-95.8224
-97.819
-99.7406
-101.59
-103.371
-105.086
-106.738
-108.329
-109.863
-111.343
-112.77
-114.15
-115.484
-116.776
-118.029
-119.248
-120.437
-121.6
-122.742
-123.869
-124.986
-126.101
-127.218
-128.347
-129.495
-130.671
-131.883
-133.142
-134.458
-135.842
-137.305
-138.863
-140.525
-142.31
-144.226
-145.958
-147.392
-148.858
-150.358
-151.894
-153.465
-155.07
-156.704
-158.367
-160.053
-161.761
-163.483
-165.215
-166.948
-168.676
-170.387
-172.071
-173.711
-175.301
-176.81
-178.255
-179.557
-180.838
-181.807
-183.089
-5.17356
3.99787
-1.11986
-8.18582
-13.6186
-18.7979
-23.9752
-28.901
-33.5885
-38.0801
-42.382
-46.4995
-50.4438
-54.2242
-57.8491
-61.3259
-64.6623
-67.8649
-70.94
-73.8936
-76.7314
-79.4583
-82.0794
-84.5993
-87.0224
-89.3526
-91.5941
-93.7503
-95.825
-97.8214
-99.7427
-101.592
-103.373
-105.087
-106.739
-108.33
-109.864
-111.343
-112.771
-114.149
-115.483
-116.774
-118.026
-119.244
-120.431
-121.592
-122.732
-123.856
-124.969
-126.078
-127.19
-128.312
-129.451
-130.617
-131.817
-133.061
-134.359
-135.722
-137.161
-138.688
-140.314
-142.055
-143.919
-145.597
-146.984
-148.398
-149.838
-151.307
-152.804
-154.326
-155.867
-157.426
-158.996
-160.573
-162.151
-163.722
-165.277
-166.81
-168.307
-169.761
-171.157
-172.49
-173.739
-174.915
-175.964
-176.982
-177.747
-178.771
-4.43005
3.86006
-1.12577
-8.24369
-13.6607
-18.8232
-23.9964
-28.92
-33.6049
-38.0948
-42.3955
-46.5119
-50.4552
-54.2348
-57.8589
-61.3351
-64.6709
-67.8728
-70.9475
-73.9005
-76.7378
-79.4643
-82.085
-84.6046
-87.0273
-89.3572
-91.5983
-93.7543
-95.8287
-97.8248
-99.746
-101.595
-103.376
-105.09
-106.741
-108.332
-109.865
-111.344
-112.771
-114.149
-115.482
-116.772
-118.023
-119.238
-120.423
-121.581
-122.717
-123.836
-124.944
-126.046
-127.149
-128.261
-129.387
-130.537
-131.719
-132.942
-134.214
-135.546
-136.948
-138.431
-140.004
-141.682
-143.471
-145.072
-146.39
-147.728
-149.085
-150.461
-151.855
-153.262
-154.677
-156.096
-157.512
-158.92
-160.313
-161.683
-163.023
-164.323
-165.575
-166.771
-167.902
-168.963
-169.942
-170.847
-171.645
-172.406
-172.964
-173.733
-3.53919
3.76351
-1.07431
-8.29159
-13.6994
-18.8433
-24.013
-28.9349
-33.6175
-38.1059
-42.4058
-46.5215
-50.4642
-54.2433
-57.867
-61.3428
-64.6782
-67.8799
-70.9542
-73.9069
-76.7439
-79.4702
-82.0906
-84.6099
-87.0324
-89.3621
-91.603
-93.7587
-95.8329
-97.8289
-99.7498
-101.599
-103.379
-105.093
-106.744
-108.334
-109.867
-111.346
-112.772
-114.149
-115.48
-116.768
-118.017
-119.23
-120.412
-121.565
-122.696
-123.808
-124.907
-125.999
-127.09
-128.186
-129.294
-130.422
-131.577
-132.767
-134.002
-135.289
-136.637
-138.057
-139.555
-141.143
-142.824
-144.318
-145.54
-146.773
-148.014
-149.263
-150.517
-151.772
-153.02
-154.258
-155.479
-156.677
-157.845
-158.976
-160.064
-161.101
-162.082
-163.002
-163.854
-164.636
-165.342
-165.981
-166.529
-167.039
-167.393
-167.909
-2.62183
3.69033
-0.949246
-8.31367
-13.7276
-18.8536
-24.022
-28.9438
-33.6245
-38.1118
-42.4112
-46.5266
-50.469
-54.248
-57.8716
-61.3473
-64.6826
-67.8842
-70.9585
-73.9112
-76.7481
-79.4743
-82.0947
-84.6139
-87.0363
-89.366
-91.6068
-93.7625
-95.8365
-97.8324
-99.7532
-101.602
-103.382
-105.096
-106.746
-108.337
-109.869
-111.346
-112.771
-114.147
-115.477
-116.763
-118.009
-119.218
-120.394
-121.542
-122.664
-123.766
-124.853
-125.93
-127.003
-128.076
-129.158
-130.254
-131.371
-132.516
-133.696
-134.919
-136.191
-137.521
-138.913
-140.374
-141.906
-143.253
-144.344
-145.435
-146.521
-147.603
-148.675
-149.734
-150.773
-151.788
-152.772
-153.72
-154.626
-155.486
-156.295
-157.048
-157.741
-158.373
-158.941
-159.445
-159.883
-160.261
-160.566
-160.837
-160.99
-161.262
-1.75488
3.59119
-0.789765
-8.30717
-13.7381
-18.8485
-24.0188
-28.9435
-33.6235
-38.1104
-42.4101
-46.5257
-50.4682
-54.2473
-57.8712
-61.3471
-64.6827
-67.8845
-70.9589
-73.9119
-76.749
-79.4753
-82.0959
-84.6152
-87.0377
-89.3675
-91.6084
-93.7641
-95.8382
-97.8341
-99.7548
-101.604
-103.383
-105.097
-106.747
-108.337
-109.869
-111.345
-112.769
-114.143
-115.47
-116.753
-117.994
-119.198
-120.368
-121.506
-122.617
-123.706
-124.775
-125.831
-126.877
-127.92
-128.963
-130.014
-131.076
-132.157
-133.261
-134.394
-135.561
-136.766
-138.012
-139.301
-140.633
-141.784
-142.703
-143.608
-144.497
-145.367
-146.215
-147.035
-147.823
-148.576
-149.287
-149.954
-150.573
-151.141
-151.656
-152.116
-152.519
-152.866
-153.156
-153.392
-153.573
-153.706
-153.783
-153.831
-153.798
-153.841
-0.960739
3.49946
-0.650607
-8.30723
-13.7497
-18.8391
-24.0092
-28.9359
-33.6159
-38.1024
-42.4026
-46.5185
-50.4616
-54.2411
-57.8655
-61.3418
-64.6779
-67.8801
-70.9549
-73.9082
-76.7457
-79.4724
-82.0933
-84.6129
-87.0356
-89.3656
-91.6067
-93.7626
-95.8369
-97.8329
-99.7537
-101.602
-103.382
-105.096
-106.745
-108.335
-109.865
-111.34
-112.762
-114.134
-115.458
-116.736
-117.972
-119.168
-120.328
-121.454
-122.55
-123.618
-124.664
-125.69
-126.7
-127.698
-128.689
-129.676
-130.664
-131.656
-132.655
-133.665
-134.689
-135.726
-136.777
-137.841
-138.912
-139.812
-140.514
-141.189
-141.836
-142.452
-143.034
-143.579
-144.083
-144.543
-144.958
-145.325
-145.644
-145.913
-146.132
-146.302
-146.423
-146.497
-146.525
-146.51
-146.454
-146.361
-146.23
-146.075
-145.87
-145.703
-0.42039
3.46876
-0.545318
-8.30486
-13.7594
-18.8362
-24.0073
-28.9348
-33.6139
-38.0995
-42.399
-46.5144
-50.4576
-54.2372
-57.8613
-61.3376
-64.6737
-67.876
-70.951
-73.9045
-76.7421
-79.469
-82.09
-84.6098
-87.0327
-89.3628
-91.604
-93.76
-95.8344
-97.8304
-99.7512
-101.6
-103.379
-105.093
-106.742
-108.33
-109.86
-111.334
-112.753
-114.122
-115.442
-116.715
-117.944
-119.131
-120.279
-121.39
-122.467
-123.512
-124.528
-125.518
-126.485
-127.431
-128.359
-129.271
-130.17
-131.057
-131.934
-132.802
-133.66
-134.506
-135.339
-136.153
-136.942
-137.574
-138.049
-138.488
-138.891
-139.256
-139.579
-139.861
-140.099
-140.293
-140.441
-140.545
-140.605
-140.62
-140.594
-140.526
-140.42
-140.278
-140.102
-139.894
-139.658
-139.397
-139.111
-138.809
-138.482
-138.165
-0.176862
3.46298
-0.497785
-8.30226
-13.7624
-18.8345
-24.0067
-28.9349
-33.6135
-38.0988
-42.398
-46.5131
-50.4565
-54.2359
-57.8598
-61.3359
-64.6719
-67.8744
-70.9495
-73.9029
-76.7405
-79.4674
-82.0884
-84.6082
-87.0311
-89.3612
-91.6025
-93.7585
-95.8328
-97.8288
-99.7496
-101.598
-103.377
-105.09
-106.739
-108.326
-109.855
-111.327
-112.745
-114.11
-115.425
-116.693
-117.914
-119.092
-120.228
-121.323
-122.38
-123.401
-124.387
-125.341
-126.262
-127.154
-128.017
-128.853
-129.661
-130.442
-131.196
-131.921
-132.615
-133.275
-133.895
-134.471
-134.995
-135.381
-135.649
-135.877
-136.064
-136.209
-136.311
-136.37
-136.387
-136.361
-136.294
-136.188
-136.043
-135.861
-135.646
-135.399
-135.122
-134.819
-134.492
-134.145
-133.779
-133.397
-133.003
-132.598
-132.184
-131.766
-0.212194
3.47839
-0.498828
-8.29738
-13.7577
-18.8319
-24.0045
-28.9331
-33.6121
-38.0976
-42.397
-46.5122
-50.4557
-54.2352
-57.8593
-61.3354
-64.6714
-67.8739
-70.9491
-73.9026
-76.7402
-79.4671
-82.0881
-84.6079
-87.0309
-89.361
-91.6022
-93.7583
-95.8326
-97.8285
-99.7491
-101.598
-103.377
-105.089
-106.737
-108.324
-109.851
-111.321
-112.736
-114.099
-115.41
-116.672
-117.886
-119.054
-120.177
-121.256
-122.294
-123.29
-124.245
-125.161
-126.037
-126.874
-127.672
-128.43
-129.148
-129.824
-130.456
-131.041
-131.576
-132.056
-132.476
-132.828
-133.106
-133.267
-133.35
-133.389
-133.386
-133.341
-133.254
-133.126
-132.958
-132.752
-132.511
-132.237
-131.931
-131.597
-131.237
-130.854
-130.45
-130.029
-129.593
-129.144
-128.686
-128.22
-127.749
-127.274
-126.801
-126.316
-0.527162
3.51595
-0.548629
-8.29034
-13.7454
-18.8284
-24.0011
-28.9296
-33.6099
-38.0962
-42.3962
-46.5121
-50.4557
-54.2354
-57.8599
-61.3363
-64.6726
-67.875
-70.9501
-73.9037
-76.7414
-79.4683
-82.0894
-84.6092
-87.0321
-89.3622
-91.6034
-93.7594
-95.8336
-97.8294
-99.7499
-101.598
-103.377
-105.089
-106.736
-108.322
-109.848
-111.317
-112.73
-114.089
-115.396
-116.652
-117.858
-119.017
-120.128
-121.192
-122.21
-123.182
-124.107
-124.986
-125.819
-126.603
-127.338
-128.022
-128.653
-129.228
-129.745
-130.199
-130.585
-130.899
-131.134
-131.284
-131.342
-131.307
-131.229
-131.107
-130.944
-130.74
-130.496
-130.214
-129.897
-129.548
-129.169
-128.762
-128.332
-127.88
-127.41
-126.924
-126.425
-125.917
-125.401
-124.879
-124.355
-123.83
-123.306
-122.784
-122.27
-121.744
-1.13211
3.58032
-0.652919
-8.28185
-13.7263
-18.8259
-23.9993
-28.9279
-33.6098
-38.0978
-42.3989
-46.5155
-50.4591
-54.2388
-57.8636
-61.3402
-64.6765
-67.8787
-70.9538
-73.9072
-76.7447
-79.4714
-82.0924
-84.612
-87.0348
-89.3648
-91.6058
-93.7616
-95.8357
-97.8313
-99.7516
-101.599
-103.378
-105.089
-106.736
-108.321
-109.846
-111.313
-112.724
-114.08
-115.383
-116.633
-117.833
-118.983
-120.082
-121.132
-122.131
-123.08
-123.978
-124.823
-125.614
-126.349
-127.025
-127.641
-128.192
-128.675
-129.085
-129.419
-129.672
-129.837
-129.909
-129.881
-129.749
-129.546
-129.331
-129.074
-128.777
-128.442
-128.069
-127.663
-127.227
-126.763
-126.276
-125.767
-125.24
-124.699
-124.146
-123.583
-123.014
-122.442
-121.867
-121.293
-120.722
-120.154
-119.594
-119.038
-118.496
-117.942
-1.96403
3.69765
-0.787446
-8.27313
-13.7092
-18.8317
-24.0065
-28.9335
-33.6156
-38.1045
-42.4053
-46.5216
-50.4649
-54.2442
-57.8686
-61.3448
-64.6807
-67.8825
-70.9572
-73.9103
-76.7475
-79.4739
-82.0945
-84.6139
-87.0364
-89.3661
-91.607
-93.7625
-95.8364
-97.8318
-99.7518
-101.599
-103.377
-105.088
-106.735
-108.319
-109.843
-111.308
-112.717
-114.071
-115.371
-116.617
-117.811
-118.953
-120.043
-121.081
-122.066
-122.996
-123.871
-124.688
-125.446
-126.141
-126.77
-127.33
-127.816
-128.225
-128.551
-128.79
-128.937
-128.986
-128.932
-128.768
-128.492
-128.162
-127.845
-127.488
-127.093
-126.662
-126.197
-125.703
-125.181
-124.637
-124.074
-123.495