/*--------------------------------*- C++ -*----------------------------------*\
| =========                 |                                                 |
| \\      /  F ield         | OpenFOAM: The Open Source CFD Toolbox           |
|  \\    /   O peration     | Version:  2306                                  |
|   \\  /    A nd           | Website:  www.openfoam.com                      |
|    \\/     M anipulation  |                                                 |
\*---------------------------------------------------------------------------*/
FoamFile
{
    version     2.0;
    format      ascii;
    arch        "LSB;label=32;scalar=64";
    class       surfaceScalarField;
    location    "1700";
    object      phi;
}
// * * * * * * * * * * * * * * * * * * * * * * * * * * * * * * * * * * * * * //

dimensions      [0 3 -1 0 0 0 0];

oriented        oriented;

internalField   nonuniform List<scalar> 
40747
(
9.88868e-06
4.99182e-06
3.88312e-06
6.00556e-06
1.19731e-05
1.10201e-05
7.11492e-06
8.7413e-06
1.45008e-05
1.8296e-05
9.98345e-06
1.16323e-05
1.7568e-05
2.70718e-05
1.2694e-05
1.48575e-05
2.12927e-05
3.76481e-05
1.53507e-05
1.86359e-05
2.58196e-05
5.03812e-05
1.80136e-05
2.31568e-05
3.13274e-05
6.56921e-05
2.07213e-05
2.86197e-05
3.80369e-05
8.40749e-05
2.35024e-05
3.52558e-05
4.62219e-05
0.000106105
2.63817e-05
4.33425e-05
5.6224e-05
0.000132448
2.93863e-05
5.32195e-05
6.84709e-05
0.000163861
3.25511e-05
6.5306e-05
8.3501e-05
0.000201191
3.59283e-05
8.01238e-05
0.000101996
0.000245369
3.95985e-05
9.83257e-05
0.000124824
0.000297375
4.36891e-05
0.000120734
0.000153099
0.000358192
4.83981e-05
0.00014839
0.000188255
0.000428717
5.40275e-05
0.000182626
0.000232154
0.000509616
6.10253e-05
0.000225157
0.000287222
0.000601104
7.00329e-05
0.000278214
0.000356626
0.000702613
8.1933e-05
0.000344725
0.000444506
0.000812326
9.78814e-05
0.000428558
0.000556246
0.000926534
0.000119276
0.000534852
0.000698749
0.00103885
0.000147564
0.000670461
0.000880621
0.0011394
0.000183696
0.000844488
0.00111208
0.00121427
0.000226907
0.00106887
0.00140461
0.00124554
0.00027286
0.00135866
0.00177012
0.00121245
0.000312255
0.00173072
0.00221561
0.00109818
0.000330315
0.00219754
0.00272949
0.000910725
0.000309193
0.00275061
0.00330838
0.000677518
0.000248645
0.00336892
0.003987
0.000410646
0.00016285
0.00407279
0.00380552
0.00016963
7.86858e-05
0.00388968
0.0037991
-6.49619e-05
-5.06165e-06
0.00388284
0.00379954
-0.000299995
-8.87532e-05
0.00388323
0.00380679
-0.000542281
-0.00017272
0.00389076
0.00386745
-0.000802464
-0.000255569
0.00395029
0.00322922
-0.00103082
-0.000313852
0.0032875
0.0026805
-0.00121491
-0.000333627
0.00270027
0.00218924
-0.0013274
-0.000314922
0.00217053
0.00175975
-0.00135951
-0.000275011
0.00171984
0.00140455
-0.00132685
-0.000228384
0.00135792
0.00111818
-0.00124942
-0.000184318
0.00107411
0.000890056
-0.00114485
-0.000147293
0.00085303
0.000709724
-0.00102715
-0.000118217
0.000680647
0.000567661
-0.000906482
-9.62264e-05
0.00054567
0.00045572
-0.000789584
-7.99054e-05
0.000439399
0.000367284
-0.00068051
-6.78487e-05
0.000355227
0.000297147
-0.000581376
-5.88691e-05
0.000288167
0.000241274
-0.000492986
-5.20415e-05
0.000234446
0.000196558
-0.000415299
-4.66818e-05
0.000191199
0.000160609
-0.000347765
-4.23036e-05
0.000156231
0.000131583
-0.000289557
-3.85729e-05
0.000127853
0.000108055
-0.000239725
-3.52679e-05
0.00010475
8.89129e-05
-0.000197292
-3.22449e-05
8.589e-05
7.32905e-05
-0.000161317
-2.94135e-05
7.04591e-05
6.0504e-05
-0.000130924
-2.67173e-05
5.78078e-05
5.00127e-05
-0.000105319
-2.41209e-05
4.74163e-05
4.1386e-05
-8.37997e-05
-2.16007e-05
3.88658e-05
3.42792e-05
-6.57481e-05
-1.91382e-05
3.18168e-05
2.84154e-05
-5.06296e-05
-1.67151e-05
2.59922e-05
2.35702e-05
-3.79843e-05
-1.43082e-05
2.11633e-05
1.95623e-05
-2.7419e-05
-1.18838e-05
1.71378e-05
1.62434e-05
-1.85995e-05
-9.38683e-06
1.37465e-05
1.34931e-05
-1.12428e-05
-6.71874e-06
1.0825e-05
1.1212e-05
-5.11001e-06
-3.682e-06
8.17524e-06
9.31907e-06
5.63707e-06
2.62352e-06
3.38204e-06
2.02713e-06
5.96385e-07
1.87059e-06
1.56545e-07
1.78074e-06
8.98486e-08
1.72083e-06
5.99094e-08
1.67885e-06
4.19759e-08
1.6479e-06
3.09564e-08
1.6241e-06
2.37967e-08
1.60534e-06
1.87567e-08
1.59026e-06
1.50867e-08
1.57791e-06
1.23457e-08
1.56767e-06
1.02427e-08
1.55908e-06
8.58964e-09
1.55181e-06
7.27126e-09
1.54561e-06
6.20313e-09
1.54028e-06
5.32991e-09
1.53567e-06
4.60664e-09
1.53167e-06
3.99847e-09
1.52818e-06
3.48938e-09
1.52512e-06
3.05797e-09
1.52243e-06
2.69346e-09
1.52005e-06
2.37839e-09
1.51794e-06
2.10899e-09
1.51607e-06
1.87647e-09
1.51439e-06
1.67373e-09
1.5129e-06
1.49799e-09
1.51155e-06
1.34392e-09
1.51034e-06
1.20983e-09
1.50925e-06
1.08995e-09
1.50827e-06
9.86066e-10
1.50738e-06
8.91907e-10
1.50657e-06
8.09526e-10
1.50583e-06
7.33134e-10
1.50517e-06
6.69036e-10
1.50455e-06
6.13878e-10
1.504e-06
5.54833e-10
1.5035e-06
5.00053e-10
1.50305e-06
4.51365e-10
1.50264e-06
4.05158e-10
1.50229e-06
3.52297e-10
1.50199e-06
2.97733e-10
1.50175e-06
2.47601e-10
1.50155e-06
1.9515e-10
1.50142e-06
1.32992e-10
1.50135e-06
6.35229e-11
1.50137e-06
-1.1484e-11
1.50146e-06
-9.80794e-11
1.50166e-06
-1.97202e-10
1.50197e-06
-3.07369e-10
1.5024e-06
-4.34743e-10
1.50298e-06
-5.79516e-10
1.50373e-06
-7.47509e-10
1.50467e-06
-9.35389e-10
1.50582e-06
-1.1512e-09
1.50722e-06
-1.39569e-09
1.50889e-06
-1.67011e-09
1.51086e-06
-1.97362e-09
1.51318e-06
-2.32207e-09
1.51589e-06
-2.70943e-09
1.51904e-06
-3.14515e-09
1.52267e-06
-3.63441e-09
1.52685e-06
-4.18024e-09
1.53167e-06
-4.81509e-09
1.53525e-06
-3.57652e-09
1.53905e-06
-3.79983e-09
1.54309e-06
-4.04392e-09
1.54739e-06
-4.29797e-09
1.55194e-06
-4.54947e-09
1.55675e-06
-4.80892e-09
1.56183e-06
-5.07614e-09
1.56719e-06
-5.3656e-09
1.57285e-06
-5.65649e-09
1.57882e-06
-5.96959e-09
1.58512e-06
-6.29929e-09
1.59178e-06
-6.65619e-09
1.59882e-06
-7.04081e-09
1.60629e-06
-7.46566e-09
1.61424e-06
-7.9503e-09
1.62273e-06
-8.48977e-09
1.63188e-06
-9.15059e-09
1.64176e-06
-9.88535e-09
1.65272e-06
-1.09591e-08
1.66499e-06
-1.22729e-08
1.67812e-06
-1.31213e-08
1.6981e-06
-1.99837e-08
1.71282e-06
-1.47233e-08
1.75299e-06
-4.01653e-08
-7.51431e-07
2.50442e-06
5.80237e-06
6.32096e-06
4.81078e-06
1.58798e-06
4.51317e-06
4.54146e-07
4.33742e-06
2.65603e-07
4.2182e-06
1.7913e-07
4.13392e-06
1.26255e-07
4.07139e-06
9.34808e-08
4.02311e-06
7.20797e-08
3.98493e-06
5.69391e-08
3.95414e-06
4.58752e-08
3.92889e-06
3.75923e-08
3.90791e-06
3.12239e-08
3.89029e-06
2.62091e-08
3.87536e-06
2.22039e-08
3.86261e-06
1.89549e-08
3.85164e-06
1.6296e-08
3.84216e-06
1.40919e-08
3.83392e-06
1.22369e-08
3.82673e-06
1.0683e-08
3.82042e-06
9.36541e-09
3.81486e-06
8.25148e-09
3.80995e-06
7.28832e-09
3.8056e-06
6.46431e-09
3.80172e-06
5.75285e-09
3.79826e-06
5.13233e-09
3.79517e-06
4.59425e-09
3.79239e-06
4.12237e-09
3.78989e-06
3.71163e-09
3.78764e-06
3.34431e-09
3.7856e-06
3.02585e-09
3.78375e-06
2.73718e-09
3.78208e-06
2.48455e-09
3.78056e-06
2.2504e-09
3.77918e-06
2.05319e-09
3.77791e-06
1.88366e-09
3.77676e-06
1.7025e-09
3.77573e-06
1.53424e-09
3.7748e-06
1.38433e-09
3.77396e-06
1.24159e-09
3.77323e-06
1.07921e-09
3.77262e-06
9.10832e-10
3.77211e-06
7.55204e-10
3.77172e-06
5.92425e-10
3.77145e-06
3.99708e-10
3.77133e-06
1.84206e-10
3.77137e-06
-4.92331e-11
3.77159e-06
-3.18475e-10
3.77202e-06
-6.27391e-10
3.77269e-06
-9.71295e-10
3.77362e-06
-1.36842e-09
3.77486e-06
-1.81945e-09
3.77646e-06
-2.34271e-09
3.77845e-06
-2.92924e-09
3.7809e-06
-3.60187e-09
3.78387e-06
-4.36348e-09
3.78742e-06
-5.22013e-09
3.79162e-06
-6.16621e-09
3.79655e-06
-7.25254e-09
3.8023e-06
-8.45808e-09
3.80897e-06
-9.81751e-09
3.81667e-06
-1.13373e-08
3.82554e-06
-1.30416e-08
3.83573e-06
-1.50093e-08
3.8433e-06
-1.11412e-08
3.85135e-06
-1.18466e-08
3.8599e-06
-1.25925e-08
3.86898e-06
-1.33815e-08
3.8786e-06
-1.4163e-08
3.88875e-06
-1.49648e-08
3.89947e-06
-1.57935e-08
3.91079e-06
-1.66822e-08
3.92272e-06
-1.75872e-08
3.9353e-06
-1.85415e-08
3.94857e-06
-1.95748e-08
3.96256e-06
-2.06427e-08
3.9774e-06
-2.18753e-08
3.99303e-06
-2.30952e-08
4.0098e-06
-2.47206e-08
4.02745e-06
-2.6137e-08
4.04684e-06
-2.85436e-08
4.0671e-06
-3.01438e-08
4.09057e-06
-3.44314e-08
4.11502e-06
-3.67236e-08
4.14376e-06
-4.18616e-08
4.18239e-06
-5.86109e-08
4.21291e-06
-4.52525e-08
4.33002e-06
-1.57271e-07
-9.84329e-07
4.56292e-06
9.06864e-06
8.88461e-06
7.86115e-06
2.79547e-06
7.44708e-06
8.68207e-07
7.19366e-06
5.19024e-07
7.01834e-06
3.54456e-07
6.89333e-06
2.51265e-07
6.8001e-06
1.8671e-07
6.72783e-06
1.44347e-07
6.67054e-06
1.14228e-07
6.62427e-06
9.21502e-08
6.58627e-06
7.55901e-08
6.55466e-06
6.28364e-08
6.52808e-06
5.27798e-08
6.50555e-06
4.47391e-08
6.48629e-06
3.82112e-08
6.46973e-06
3.28643e-08
6.45539e-06
2.84297e-08
6.44293e-06
2.46957e-08
6.43205e-06
2.15657e-08
6.4225e-06
1.89105e-08
6.41409e-06
1.66646e-08
6.40666e-06
1.47228e-08
6.40006e-06
1.30605e-08
6.39419e-06
1.1625e-08
6.38895e-06
1.03727e-08
6.38426e-06
9.28648e-09
6.38005e-06
8.33372e-09
6.37626e-06
7.50413e-09
6.37284e-06
6.76237e-09
6.36975e-06
6.11865e-09
6.36695e-06
5.53557e-09
6.36441e-06
5.02474e-09
6.36211e-06
4.55148e-09
6.36001e-06
4.15152e-09
6.35809e-06
3.80758e-09
6.35635e-06
3.4413e-09
6.35479e-06
3.10018e-09
6.35338e-06
2.79525e-09
6.35211e-06
2.5045e-09
6.35102e-06
2.17557e-09
6.3501e-06
1.83201e-09
6.34934e-06
1.51109e-09
6.34876e-06
1.17668e-09
6.34838e-06
7.82153e-10
6.34822e-06
3.3863e-10
6.34832e-06
-1.43957e-10
6.3487e-06
-6.98057e-10
6.34941e-06
-1.33756e-09
6.35049e-06
-2.051e-09
6.35199e-06
-2.87186e-09
6.35398e-06
-3.80605e-09
6.35653e-06
-4.88929e-09
6.3597e-06
-6.10501e-09
6.3636e-06
-7.49852e-09
6.36831e-06
-9.07597e-09
6.37395e-06
-1.08522e-08
6.3806e-06
-1.28141e-08
6.38841e-06
-1.50659e-08
6.39752e-06
-1.75632e-08
6.40809e-06
-2.03847e-08
6.42028e-06
-2.35303e-08
6.43431e-06
-2.70691e-08
6.45044e-06
-3.11348e-08
6.4624e-06
-2.31041e-08
6.47514e-06
-2.45808e-08
6.48865e-06
-2.61072e-08
6.50301e-06
-2.77415e-08
6.51822e-06
-2.93646e-08
6.53428e-06
-3.1022e-08
6.55122e-06
-3.2741e-08
6.56911e-06
-3.45642e-08
6.58797e-06
-3.6449e-08
6.60783e-06
-3.83968e-08
6.62882e-06
-4.05621e-08
6.65088e-06
-4.27075e-08
6.67435e-06
-4.53366e-08
6.69895e-06
-4.77025e-08
6.7255e-06
-5.1271e-08
6.75318e-06
-5.38093e-08
6.78394e-06
-5.93096e-08
6.81551e-06
-6.17063e-08
6.85274e-06
-7.16658e-08
6.89053e-06
-7.45141e-08
6.93601e-06
-8.73434e-08
6.99459e-06
-1.17189e-07
7.04012e-06
-9.0781e-08
7.23077e-06
-3.47929e-07
-9.23826e-07
7.17027e-06
1.25835e-05
1.11586e-05
1.12323e-05
4.14672e-06
1.07107e-05
1.38974e-06
1.03781e-05
8.51685e-07
1.01428e-05
5.89688e-07
9.97347e-06
4.20636e-07
9.84644e-06
3.13733e-07
9.7476e-06
2.43186e-07
9.66906e-06
1.92774e-07
9.60551e-06
1.55701e-07
9.55326e-06
1.2784e-07
9.50974e-06
1.06349e-07
9.47314e-06
8.93813e-08
9.44208e-06
7.58016e-08
9.41552e-06
6.47684e-08
9.39266e-06
5.57244e-08
9.37287e-06
4.82209e-08
9.35567e-06
4.18998e-08
9.34064e-06
3.65981e-08
9.32745e-06
3.20991e-08
9.31582e-06
2.82918e-08
9.30555e-06
2.50003e-08
9.29643e-06
2.21809e-08
9.28831e-06
1.9746e-08
9.28106e-06
1.76215e-08
9.27457e-06
1.57781e-08
9.26874e-06
1.4161e-08
9.2635e-06
1.27525e-08
9.25876e-06
1.14935e-08
9.25448e-06
1.03997e-08
9.25061e-06
9.40982e-09
9.2471e-06
8.54162e-09
9.24391e-06
7.73779e-09
9.24101e-06
7.05603e-09
9.23835e-06
6.46937e-09
9.23594e-06
5.84729e-09
9.23377e-06
5.26646e-09
9.23183e-06
4.74552e-09
9.23008e-06
4.24822e-09
9.22857e-06
3.68908e-09
9.2273e-06
3.10123e-09
9.22627e-06
2.54628e-09
9.22547e-06
1.97021e-09
9.22496e-06
1.2936e-09
9.22477e-06
5.29226e-10
9.22494e-06
-3.06926e-10
9.2255e-06
-1.26088e-09
9.22653e-06
-2.36753e-09
9.22809e-06
-3.60681e-09
9.23024e-06
-5.02686e-09
9.23308e-06
-6.64535e-09
9.23672e-06
-8.52116e-09
9.24124e-06
-1.06287e-08
9.24679e-06
-1.30432e-08
9.25349e-06
-1.57759e-08
9.26149e-06
-1.88552e-08
9.27094e-06
-2.2258e-08
9.28203e-06
-2.61604e-08
9.29496e-06
-3.04874e-08
9.30995e-06
-3.53817e-08
9.32725e-06
-4.08283e-08
9.34715e-06
-4.69677e-08
9.37001e-06
-5.39926e-08
9.38697e-06
-4.00574e-08
9.40502e-06
-4.26351e-08
9.42417e-06
-4.52529e-08
9.44451e-06
-4.80746e-08
9.46603e-06
-5.08889e-08
9.48876e-06
-5.375e-08
9.51275e-06
-5.67268e-08
9.53804e-06
-5.98502e-08
9.56471e-06
-6.31211e-08
9.59276e-06
-6.64414e-08
9.62241e-06
-7.02136e-08
9.65352e-06
-7.38184e-08
9.68664e-06
-7.84528e-08
9.72125e-06
-8.2309e-08
9.75868e-06
-8.87063e-08
9.79745e-06
-9.25698e-08
9.84074e-06
-1.02609e-07
9.88474e-06
-1.05701e-07
9.9368e-06
-1.23728e-07
9.98918e-06
-1.26898e-07
1.00524e-05
-1.50521e-07
1.0131e-05
-1.95841e-07
1.01961e-05
-1.55912e-07
1.04241e-05
-5.7592e-07
-8.39137e-07
1.03394e-05
1.66429e-05
1.31516e-05
1.51954e-05
5.59428e-06
1.45732e-05
2.01188e-06
1.41562e-05
1.26871e-06
1.38535e-05
8.92415e-07
1.36328e-05
6.41304e-07
1.34662e-05
4.80376e-07
1.33359e-05
3.73455e-07
1.3232e-05
2.9661e-07
1.31479e-05
2.39887e-07
1.30785e-05
1.97162e-07
1.30207e-05
1.64147e-07
1.29721e-05
1.38044e-07
1.29308e-05
1.17131e-07
1.28954e-05
1.00126e-07
1.28649e-05
8.61756e-08
1.28386e-05
7.45968e-08
1.28156e-05
6.48382e-08
1.27956e-05
5.66482e-08
1.2778e-05
4.96958e-08
1.27625e-05
4.3809e-08
1.27488e-05
3.87207e-08
1.27366e-05
3.43594e-08
1.27257e-05
3.05926e-08
1.2716e-05
2.73052e-08
1.27074e-05
2.44521e-08
1.26996e-05
2.19489e-08
1.26926e-05
1.97677e-08
1.26862e-05
1.78187e-08
1.26805e-05
1.61236e-08
1.26753e-05
1.4591e-08
1.26706e-05
1.32452e-08
1.26664e-05
1.20002e-08
1.26625e-05
1.09405e-08
1.26589e-05
1.00278e-08
1.26557e-05
9.06452e-09
1.26528e-05
8.16318e-09
1.26502e-05
7.3522e-09
1.26479e-05
6.57696e-09
1.26459e-05
5.71149e-09
1.26442e-05
4.79652e-09
1.26428e-05
3.9236e-09
1.26418e-05
3.02091e-09
1.26411e-05
1.96616e-09
1.26408e-05
7.69905e-10
1.26411e-05
-5.46401e-10
1.26419e-05
-2.03814e-09
1.26433e-05
-3.77383e-09
1.26454e-05
-5.72765e-09
1.26483e-05
-7.95867e-09
1.26522e-05
-1.05022e-08
1.26571e-05
-1.3449e-08
1.26632e-05
-1.6763e-08
1.26708e-05
-2.05575e-08
1.26798e-05
-2.48512e-08
1.26907e-05
-2.96926e-08
1.27035e-05
-3.50448e-08
1.27185e-05
-4.1177e-08
1.2736e-05
-4.7975e-08
1.27563e-05
-5.56697e-08
1.27797e-05
-6.42219e-08
1.28066e-05
-7.38734e-08
1.28374e-05
-8.48762e-08
1.28603e-05
-6.29553e-08
1.28847e-05
-6.7027e-08
1.29106e-05
-7.11027e-08
1.2938e-05
-7.55068e-08
1.29671e-05
-7.99204e-08
1.29977e-05
-8.43899e-08
1.303e-05
-8.90525e-08
1.30641e-05
-9.38946e-08
1.31e-05
-9.90208e-08
1.31377e-05
-1.04141e-07
1.31775e-05
-1.10066e-07
1.32193e-05
-1.15549e-07
1.32637e-05
-1.22883e-07
1.331e-05
-1.28594e-07
1.33601e-05
-1.38811e-07
1.34117e-05
-1.44204e-07
1.34694e-05
-1.60334e-07
1.35278e-05
-1.64066e-07
1.35966e-05
-1.92516e-07
1.36656e-05
-1.95945e-07
1.37489e-05
-2.3377e-07
1.3848e-05
-2.94954e-07
1.39421e-05
-2.50026e-07
1.41713e-05
-8.05109e-07
-8.91309e-07
1.42235e-05
2.14799e-05
1.48285e-05
1.99799e-05
7.09428e-06
1.92694e-05
2.72233e-06
1.87643e-05
1.77384e-06
1.83856e-05
1.27106e-06
1.81053e-05
9.21658e-07
1.78917e-05
6.93974e-07
1.77237e-05
5.41406e-07
1.75893e-05
4.31002e-07
1.74801e-05
3.49134e-07
1.73899e-05
2.87297e-07
1.73147e-05
2.39411e-07
1.72512e-05
2.01488e-07
1.71973e-05
1.71065e-07
1.71511e-05
1.46304e-07
1.71113e-05
1.25972e-07
1.70768e-05
1.09088e-07
1.70468e-05
9.48509e-08
1.70206e-05
8.28936e-08
1.69975e-05
7.27394e-08
1.69772e-05
6.41362e-08
1.69592e-05
5.67008e-08
1.69433e-05
5.03237e-08
1.6929e-05
4.48151e-08
1.69163e-05
4.00064e-08
1.6905e-05
3.58317e-08
1.68948e-05
3.21684e-08
1.68855e-05
2.8975e-08
1.68772e-05
2.61227e-08
1.68697e-05
2.36388e-08
1.68629e-05
2.13955e-08
1.68568e-05
1.94234e-08
1.68512e-05
1.76005e-08
1.68461e-05
1.60433e-08
1.68414e-05
1.4701e-08
1.68372e-05
1.3291e-08
1.68333e-05
1.19693e-08
1.68299e-05
1.07766e-08
1.68269e-05
9.6345e-09
1.68242e-05
8.36968e-09
1.6822e-05
7.02652e-09
1.68202e-05
5.7314e-09
1.68188e-05
4.39705e-09
1.68179e-05
2.84721e-09
1.68176e-05
1.08423e-09
1.68179e-05
-8.67261e-10
1.6819e-05
-3.06662e-09
1.68208e-05
-5.62576e-09
1.68236e-05
-8.52332e-09
1.68275e-05
-1.18259e-08
1.68326e-05
-1.55869e-08
1.68391e-05
-1.99427e-08
1.68471e-05
-2.48459e-08
1.6857e-05
-3.04559e-08
1.6869e-05
-3.68028e-08
1.68833e-05
-4.39623e-08
1.69001e-05
-5.18809e-08
1.69199e-05
-6.09439e-08
1.69429e-05
-7.09884e-08
1.69696e-05
-8.23624e-08
1.70004e-05
-9.49912e-08
1.70357e-05
-1.09254e-07
1.70763e-05
-1.25457e-07
1.71064e-05
-9.30283e-08
1.71384e-05
-9.90678e-08
1.71724e-05
-1.05041e-07
1.72084e-05
-1.1149e-07
1.72464e-05
-1.17985e-07
1.72866e-05
-1.24539e-07
1.73289e-05
-1.31392e-07
1.73735e-05
-1.38439e-07
1.74204e-05
-1.45968e-07
1.74697e-05
-1.53378e-07
1.75217e-05
-1.62086e-07
1.75761e-05
-1.69921e-07
1.76339e-05
-1.80748e-07
1.76941e-05
-1.88719e-07
1.77591e-05
-2.0386e-07
1.78259e-05
-2.11021e-07
1.79005e-05
-2.34901e-07
1.79757e-05
-2.39298e-07
1.80638e-05
-2.80557e-07
1.8152e-05
-2.84218e-07
1.82588e-05
-3.40502e-07
1.83788e-05
-4.14945e-07
1.85125e-05
-3.8377e-07
1.87221e-05
-1.01469e-06
-1.11674e-06
1.89475e-05
2.73241e-05
1.61241e-05
2.58191e-05
8.59926e-06
2.50413e-05
3.50018e-06
2.44485e-05
2.36661e-06
2.39864e-05
1.73319e-06
2.36374e-05
1.27067e-06
2.33684e-05
9.62919e-07
2.31554e-05
7.5446e-07
2.2984e-05
6.02343e-07
2.28442e-05
4.88903e-07
2.27286e-05
4.02909e-07
2.26319e-05
3.36137e-07
2.25502e-05
2.83149e-07
2.24807e-05
2.40573e-07
2.24212e-05
2.05879e-07
2.23698e-05
1.77357e-07
2.23252e-05
1.53656e-07
2.22864e-05
1.3366e-07
2.22525e-05
1.16851e-07
2.22226e-05
1.0257e-07
2.21963e-05
9.04616e-08
2.2173e-05
7.99973e-08
2.21523e-05
7.10161e-08
2.21339e-05
6.32569e-08
2.21174e-05
5.64812e-08
2.21026e-05
5.05969e-08
2.20894e-05
4.54323e-08
2.20774e-05
4.09282e-08
2.20666e-05
3.69066e-08
2.20569e-05
3.33999e-08
2.2048e-05
3.02362e-08
2.204e-05
2.74518e-08
2.20327e-05
2.48809e-08
2.20261e-05
2.26763e-08
2.202e-05
2.07746e-08
2.20145e-05
1.87861e-08
2.20096e-05
1.69195e-08
2.20051e-05
1.5231e-08
2.20012e-05
1.36101e-08
2.19977e-05
1.18312e-08
2.19948e-05
9.93592e-09
2.19924e-05
8.08847e-09
2.19907e-05
6.19169e-09
2.19895e-05
4.00353e-09
2.19891e-05
1.50935e-09
2.19895e-05
-1.26694e-09
2.19908e-05
-4.385e-09
2.19932e-05
-8.00304e-09
2.19968e-05
-1.21209e-08
2.20018e-05
-1.68166e-08
2.20083e-05
-2.2153e-08
2.20167e-05
-2.8329e-08
2.20272e-05
-3.52874e-08
2.20399e-05
-4.3243e-08
2.20554e-05
-5.2241e-08
2.20738e-05
-6.23942e-08
2.20956e-05
-7.36294e-08
2.21211e-05
-8.64733e-08
2.21508e-05
-1.00704e-07
2.21853e-05
-1.16821e-07
2.2225e-05
-1.347e-07
2.22706e-05
-1.54902e-07
2.2323e-05
-1.77775e-07
2.23617e-05
-1.31776e-07
2.2403e-05
-1.40354e-07
2.24467e-05
-1.48755e-07
2.2493e-05
-1.57794e-07
2.2542e-05
-1.66938e-07
2.25936e-05
-1.76137e-07
2.2648e-05
-1.85779e-07
2.27051e-05
-1.95595e-07
2.27653e-05
-2.06164e-07
2.28284e-05
-2.16431e-07
2.2895e-05
-2.28651e-07
2.29644e-05
-2.3938e-07
2.30383e-05
-2.54595e-07
2.31149e-05
-2.653e-07
2.31976e-05
-2.86566e-07
2.32824e-05
-2.95821e-07
2.33766e-05
-3.29185e-07
2.34718e-05
-3.34403e-07
2.35821e-05
-3.90937e-07
2.36927e-05
-3.94766e-07
2.38269e-05
-4.74725e-07
2.3969e-05
-5.57027e-07
2.41502e-05
-5.65022e-07
2.43424e-05
-1.20689e-06
-1.45326e-06
2.46789e-05
3.44327e-05
1.69473e-05
3.29774e-05
1.00545e-05
3.21638e-05
4.31374e-06
3.1491e-05
3.03939e-06
3.09406e-05
2.28358e-06
3.05145e-05
1.69682e-06
3.01813e-05
1.29611e-06
2.99148e-05
1.02095e-06
2.96991e-05
8.18065e-07
2.95223e-05
6.65677e-07
2.93756e-05
5.4962e-07
2.92525e-05
4.59199e-07
2.91484e-05
3.87256e-07
2.90597e-05
3.29328e-07
2.89835e-05
2.82055e-07
2.89177e-05
2.43134e-07
2.88606e-05
2.10764e-07
2.88109e-05
1.83433e-07
2.87673e-05
1.60435e-07
2.8729e-05
1.40884e-07
2.86951e-05
1.24292e-07
2.86652e-05
1.09953e-07
2.86386e-05
9.76367e-08
2.86148e-05
8.69934e-08
2.85936e-05
7.76948e-08
2.85746e-05
6.9617e-08
2.85575e-05
6.2525e-08
2.85421e-05
5.63368e-08
2.85282e-05
5.08132e-08
2.85156e-05
4.59904e-08
2.85042e-05
4.16438e-08
2.84938e-05
3.78139e-08
2.84844e-05
3.42821e-08
2.84759e-05
3.12419e-08
2.8468e-05
2.86169e-08
2.84609e-05
2.5885e-08
2.84545e-05
2.33178e-08
2.84488e-05
2.09906e-08
2.84437e-05
1.87497e-08
2.84392e-05
1.63145e-08
2.84354e-05
1.37149e-08
2.84323e-05
1.11529e-08
2.843e-05
8.5305e-09
2.84285e-05
5.52827e-09
2.84279e-05
2.10225e-09
2.84283e-05
-1.72986e-09
2.843e-05
-6.02764e-09
2.8433e-05
-1.09932e-08
2.84375e-05
-1.66632e-08
2.84439e-05
-2.31444e-08
2.84522e-05
-3.04953e-08
2.84629e-05
-3.89914e-08
2.84761e-05
-4.85712e-08
2.84924e-05
-5.95157e-08
2.85121e-05
-7.18896e-08
2.85355e-05
-8.5855e-08
2.85632e-05
-1.01317e-07
2.85957e-05
-1.1897e-07
2.86335e-05
-1.38522e-07
2.86774e-05
-1.60665e-07
2.87279e-05
-1.8521e-07
2.8786e-05
-2.1295e-07
2.88524e-05
-2.44258e-07
2.89017e-05
-1.8098e-07
2.89541e-05
-1.9278e-07
2.90096e-05
-2.04245e-07
2.90683e-05
-2.16516e-07
2.91304e-05
-2.2898e-07
2.91957e-05
-2.41483e-07
2.92645e-05
-2.54614e-07
2.93368e-05
-2.6786e-07
2.94129e-05
-2.82207e-07
2.94924e-05
-2.95991e-07
2.95763e-05
-3.12546e-07
2.96638e-05
-3.26806e-07
2.97566e-05
-3.47395e-07
2.98527e-05
-3.6142e-07
2.99562e-05
-3.9007e-07
3.00623e-05
-4.01915e-07
3.01796e-05
-4.46497e-07
3.02981e-05
-4.52917e-07
3.04344e-05
-5.27274e-07
3.05709e-05
-5.3123e-07
3.07368e-05
-6.40607e-07
3.09041e-05
-7.24389e-07
3.11353e-05
-7.96135e-07
3.1333e-05
-1.40462e-06
-1.82705e-06
3.17068e-05
4.31087e-05
1.71811e-05
4.17673e-05
1.1396e-05
4.09619e-05
5.11913e-06
4.02268e-05
3.77442e-06
3.95888e-05
2.92159e-06
3.90792e-05
2.20646e-06
3.86733e-05
1.70203e-06
3.83446e-05
1.34965e-06
3.80762e-05
1.0864e-06
3.7855e-05
8.86875e-07
3.76707e-05
7.34008e-07
3.75155e-05
6.14386e-07
3.73838e-05
5.1889e-07
3.72714e-05
4.41792e-07
3.71747e-05
3.78752e-07
3.70911e-05
3.26756e-07
3.70184e-05
2.83456e-07
3.69549e-05
2.46864e-07
3.68993e-05
2.16032e-07
3.68504e-05
1.89802e-07
3.68072e-05
1.67519e-07
3.67689e-05
1.48257e-07
3.67348e-05
1.31697e-07
3.67045e-05
1.17383e-07
3.66773e-05
1.04869e-07
3.66529e-05
9.39938e-08
3.6631e-05
8.44422e-08
3.66112e-05
7.61028e-08
3.65934e-05
6.86609e-08
3.65772e-05
6.2154e-08
3.65626e-05
5.62955e-08
3.65493e-05
5.11274e-08
3.65372e-05
4.63683e-08
3.65262e-05
4.22557e-08
3.65161e-05
3.87003e-08
3.6507e-05
3.50183e-08
3.64987e-05
3.15554e-08
3.64913e-05
2.84109e-08
3.64847e-05
2.53713e-08
3.64789e-05
2.21028e-08
3.6474e-05
1.86123e-08
3.647e-05
1.5134e-08
3.6467e-05
1.15826e-08
3.6465e-05
7.55059e-09
3.64641e-05
2.94854e-09
3.64646e-05
-2.21974e-09
3.64666e-05
-8.01638e-09
3.64703e-05
-1.46851e-08
3.6476e-05
-2.23078e-08
3.64839e-05
-3.10449e-08
3.64943e-05
-4.0946e-08
3.65077e-05
-5.23704e-08
3.65244e-05
-6.52556e-08
3.65448e-05
-7.99664e-08
3.65695e-05
-9.65903e-08
3.6599e-05
-1.15355e-07
3.66339e-05
-1.36141e-07
3.66747e-05
-1.59842e-07
3.67223e-05
-1.86079e-07
3.67774e-05
-2.15789e-07
3.68409e-05
-2.48697e-07
3.69139e-05
-2.85888e-07
3.69974e-05
-3.27744e-07
3.70591e-05
-2.42725e-07
3.71249e-05
-2.58555e-07
3.71945e-05
-2.73848e-07
3.72681e-05
-2.90107e-07
3.73458e-05
-3.06674e-07
3.74276e-05
-3.23257e-07
3.75137e-05
-3.40693e-07
3.76039e-05
-3.58137e-07
3.76988e-05
-3.77106e-07
3.7798e-05
-3.9518e-07
3.79025e-05
-4.1699e-07
3.80112e-05
-4.35545e-07
3.81264e-05
-4.62563e-07
3.82456e-05
-4.8066e-07
3.83735e-05
-5.1795e-07
3.85048e-05
-5.33163e-07
3.86489e-05
-5.90611e-07
3.87949e-05
-5.98957e-07
3.89613e-05
-6.93635e-07
3.91281e-05
-6.9801e-07
3.93296e-05
-8.42104e-07
3.95282e-05
-9.2299e-07
3.98068e-05
-1.07477e-06
4.00381e-05
-1.6359e-06
-2.20739e-06
4.04184e-05
5.37184e-05
1.66821e-05
5.25661e-05
1.25483e-05
5.18256e-05
5.85959e-06
5.10591e-05
4.54098e-06
5.03426e-05
3.63805e-06
4.97476e-05
2.80147e-06
4.92623e-05
2.18725e-06
4.88632e-05
1.74881e-06
4.85337e-05
1.41585e-06
4.826e-05
1.16057e-06
4.80306e-05
9.63474e-07
4.78366e-05
8.08367e-07
4.76715e-05
6.84006e-07
4.753e-05
5.83259e-07
4.74081e-05
5.00672e-07
4.73024e-05
4.32392e-07
4.72105e-05
3.75438e-07
4.71301e-05
3.27249e-07
4.70595e-05
2.86581e-07
4.69974e-05
2.51947e-07
4.69424e-05
2.22488e-07
4.68937e-05
1.97011e-07
4.68503e-05
1.75086e-07
4.68116e-05
1.56125e-07
4.67769e-05
1.39537e-07
4.67458e-05
1.25114e-07
4.67178e-05
1.12439e-07
4.66925e-05
1.01366e-07
4.66697e-05
9.14856e-08
4.6649e-05
8.28335e-08
4.66303e-05
7.50509e-08
4.66132e-05
6.81775e-08
4.65978e-05
6.18584e-08
4.65836e-05
5.6376e-08
4.65707e-05
5.16281e-08
4.6559e-05
4.67363e-08
4.65484e-05
4.21344e-08
4.65389e-05
3.79492e-08
4.65304e-05
3.38852e-08
4.65229e-05
2.95626e-08
4.65166e-05
2.49524e-08
4.65114e-05
2.03085e-08
4.65074e-05
1.55753e-08
4.65047e-05
1.02489e-08
4.65035e-05
4.17432e-09
4.6504e-05
-2.66909e-09
4.65063e-05
-1.03514e-08
4.65108e-05
-1.91576e-08
4.65177e-05
-2.92206e-08
4.65274e-05
-4.07752e-08
4.65404e-05
-5.3869e-08
4.65569e-05
-6.8958e-08
4.65777e-05
-8.59727e-08
4.66031e-05
-1.05384e-07
4.66338e-05
-1.27306e-07
4.66705e-05
-1.52052e-07
4.67139e-05
-1.7948e-07
4.67647e-05
-2.10709e-07
4.68239e-05
-2.45263e-07
4.68925e-05
-2.84379e-07
4.69715e-05
-3.2767e-07
4.70622e-05
-3.76589e-07
4.7166e-05
-4.31513e-07
4.72427e-05
-3.19416e-07
4.73243e-05
-3.40225e-07
4.74108e-05
-3.6025e-07
4.7502e-05
-3.81386e-07
4.75983e-05
-4.02972e-07
4.76996e-05
-4.24541e-07
4.78062e-05
-4.47219e-07
4.79178e-05
-4.69756e-07
4.8035e-05
-4.94306e-07
4.81574e-05
-5.17578e-07
4.82861e-05
-5.45652e-07
4.842e-05
-5.69433e-07
4.85614e-05
-6.03975e-07
4.87078e-05
-6.27125e-07
4.88642e-05
-6.74283e-07
4.9025e-05
-6.93995e-07
4.92002e-05
-7.65805e-07
4.93786e-05
-7.77313e-07
4.95793e-05
-8.94406e-07
4.97818e-05
-9.00434e-07
5.00225e-05
-1.08288e-06
5.02605e-05
-1.16092e-06
5.05833e-05
-1.39756e-06
5.08652e-05
-1.9178e-06
-2.60015e-06
5.12579e-05
6.67089e-05
1.52792e-05
6.58337e-05
1.34235e-05
6.52277e-05
6.46552e-06
6.44756e-05
5.2931e-06
6.37019e-05
4.41176e-06
6.30272e-05
3.47622e-06
6.24602e-05
2.75419e-06
6.19843e-05
2.22474e-06
6.15859e-05
1.81424e-06
6.12516e-05
1.49489e-06
6.09692e-05
1.24587e-06
6.07291e-05
1.04848e-06
6.05237e-05
8.89328e-07
6.03472e-05
7.59819e-07
6.01945e-05
6.53304e-07
6.0062e-05
5.64976e-07
5.99463e-05
4.91134e-07
5.9845e-05
4.28556e-07
5.97559e-05
3.75639e-07
5.96774e-05
3.30516e-07
5.96078e-05
2.92072e-07
5.9546e-05
2.58802e-07
5.94909e-05
2.30137e-07
5.94417e-05
2.0533e-07
5.93977e-05
1.83606e-07
5.93581e-05
1.64705e-07
5.93225e-05
1.48087e-07
5.92903e-05
1.33554e-07
5.92612e-05
1.20589e-07
5.92348e-05
1.09217e-07
5.92109e-05
9.89949e-08
5.91891e-05
8.99569e-08
5.91693e-05
8.16634e-08
5.91512e-05
7.44389e-08
5.91347e-05
6.81673e-08
5.91197e-05
6.17402e-08
5.91061e-05
5.5696e-08
5.90939e-05
5.01916e-08
5.9083e-05
4.48187e-08
5.90734e-05
3.91661e-08
5.90652e-05
3.31564e-08
5.90585e-05
2.70403e-08
5.90532e-05
2.08127e-08
5.90496e-05
1.38677e-08
5.90478e-05
5.96165e-09
5.90481e-05
-2.96503e-09
5.90508e-05
-1.29991e-08
5.90561e-05
-2.44676e-08
5.90644e-05
-3.75618e-08
5.90763e-05
-5.26075e-08
5.90921e-05
-6.96598e-08
5.91124e-05
-8.92904e-08
5.91379e-05
-1.11423e-07
5.91691e-05
-1.36655e-07
5.9207e-05
-1.65121e-07
5.92522e-05
-1.97258e-07
5.93056e-05
-2.32898e-07
5.93683e-05
-2.73414e-07
5.94413e-05
-3.18219e-07
5.95258e-05
-3.68921e-07
5.96231e-05
-4.24988e-07
5.97349e-05
-4.88324e-07
5.98627e-05
-5.59302e-07
5.99571e-05
-4.13796e-07
6.00575e-05
-4.40688e-07
6.01638e-05
-4.66509e-07
6.0276e-05
-4.9357e-07
6.03943e-05
-5.21237e-07
6.05186e-05
-5.48851e-07
6.06492e-05
-5.77837e-07
6.0786e-05
-6.06507e-07
6.09294e-05
-6.37722e-07
6.10791e-05
-6.67255e-07
6.12361e-05
-7.02692e-07
6.13995e-05
-7.32836e-07
6.15716e-05
-7.76033e-07
6.175e-05
-8.05482e-07
6.19394e-05
-8.63743e-07
6.21348e-05
-8.8938e-07
6.23459e-05
-9.76865e-07
6.2562e-05
-9.93482e-07
6.28019e-05
-1.13429e-06
6.30464e-05
-1.14492e-06
6.33301e-05
-1.36658e-06
6.36162e-05
-1.44699e-06
6.39819e-05
-1.76332e-06
6.432e-05
-2.25592e-06
-3.01703e-06
6.47369e-05
8.26297e-05
1.27734e-05
8.2134e-05
1.39192e-05
8.17444e-05
6.85507e-06
8.1069e-05
5.96849e-06
8.02746e-05
5.20618e-06
7.9537e-05
4.21378e-06
7.88932e-05
3.39799e-06
7.83385e-05
2.77941e-06
7.78657e-05
2.28705e-06
7.74637e-05
1.89688e-06
7.71208e-05
1.58877e-06
7.68271e-05
1.34223e-06
7.65744e-05
1.14203e-06
7.6356e-05
9.78168e-07
7.61665e-05
8.42818e-07
7.60014e-05
7.30145e-07
7.58568e-05
6.35669e-07
7.573e-05
5.55436e-07
7.56182e-05
4.8742e-07
7.55194e-05
4.29324e-07
7.54317e-05
3.79725e-07
7.53538e-05
3.36761e-07
7.52842e-05
2.99687e-07
7.5222e-05
2.67573e-07
7.51662e-05
2.39417e-07
7.5116e-05
2.14901e-07
7.50708e-05
1.93328e-07
7.50299e-05
1.7444e-07
7.49929e-05
1.57591e-07
7.49594e-05
1.42785e-07
7.49289e-05
1.29485e-07
7.49011e-05
1.17711e-07
7.48759e-05
1.0693e-07
7.48528e-05
9.74994e-08
7.48317e-05
8.92858e-08
7.48125e-05
8.09169e-08
7.47952e-05
7.30547e-08
7.47795e-05
6.58853e-08
7.47655e-05
5.88462e-08
7.47531e-05
5.15187e-08
7.47425e-05
4.37664e-08
7.47338e-05
3.58041e-08
7.47269e-05
2.76983e-08
7.4722e-05
1.87386e-08
7.47194e-05
8.56727e-09
7.47194e-05
-2.93225e-09
7.47223e-05
-1.58768e-08
7.47285e-05
-3.06369e-08
7.47384e-05
-4.74712e-08
7.47526e-05
-6.68135e-08
7.47717e-05
-8.87372e-08
7.47963e-05
-1.13946e-07
7.48273e-05
-1.42373e-07
7.48654e-05
-1.74756e-07
7.49115e-05
-2.11238e-07
7.49667e-05
-2.52442e-07
7.5032e-05
-2.98149e-07
7.51086e-05
-3.5002e-07
7.51977e-05
-4.07364e-07
7.53011e-05
-4.72218e-07
7.542e-05
-5.43872e-07
7.55564e-05
-6.24781e-07
7.57125e-05
-7.15328e-07
7.58276e-05
-5.28966e-07
7.59502e-05
-5.63219e-07
7.60798e-05
-5.96077e-07
7.62165e-05
-6.30297e-07
7.63605e-05
-6.65279e-07
7.65119e-05
-7.00164e-07
7.66707e-05
-7.36649e-07
7.68369e-05
-7.72674e-07
7.70109e-05
-8.11773e-07
7.71925e-05
-8.48794e-07
7.73826e-05
-8.92819e-07
7.75804e-05
-9.30629e-07
7.77881e-05
-9.83737e-07
7.80036e-05
-1.02097e-06
7.82314e-05
-1.09158e-06
7.8467e-05
-1.12497e-06
7.87193e-05
-1.22912e-06
7.89795e-05
-1.25373e-06
7.92637e-05
-1.41842e-06
7.95575e-05
-1.43878e-06
7.98883e-05
-1.69734e-06
8.02308e-05
-1.78954e-06
8.06414e-05
-2.1739e-06
8.10367e-05
-2.65123e-06
-3.46135e-06
8.1481e-05
0.000102159
8.94048e-06
0.000102161
1.39167e-05
0.000102081
6.93515e-06
0.000101561
6.48864e-06
0.0001008
5.96691e-06
0.000100032
4.98206e-06
9.93272e-05
4.10266e-06
9.86993e-05
3.40725e-06
9.81514e-05
2.83494e-06
9.76776e-05
2.37068e-06
9.72683e-05
1.99808e-06
9.69142e-05
1.69635e-06
9.66072e-05
1.44904e-06
9.63402e-05
1.24512e-06
9.61073e-05
1.07573e-06
9.59035e-05