/*--------------------------------*- C++ -*----------------------------------*\
| =========                 |                                                 |
| \\      /  F ield         | OpenFOAM: The Open Source CFD Toolbox           |
|  \\    /   O peration     | Version:  2306                                  |
|   \\  /    A nd           | Website:  www.openfoam.com                      |
|    \\/     M anipulation  |                                                 |
\*---------------------------------------------------------------------------*/
FoamFile
{
    version     2.0;
    format      ascii;
    arch        "LSB;label=32;scalar=64";
    class       volSymmTensorField;
    location    "1700";
    object      turbulenceProperties:devReff;
}
// * * * * * * * * * * * * * * * * * * * * * * * * * * * * * * * * * * * * * //

dimensions      [0 2 -2 0 0 0 0];

internalField   nonuniform List<symmTensor> 
20540
(
(2.11345 -7.09716 -0 -2.11343 -0 -1.27058e-05)
(15.261 -16.6075 -0 -14.9133 -0 -0.347753)
(2.10943 -14.7678 -0 -2.10945 -0 1.43157e-05)
(11.018 -34.6082 -0 -11.2975 -0 0.279532)
(2.10312 -15.8316 -0 -2.10312 -0 3.36679e-07)
(7.96415 -37.2288 -0 -8.0507 -0 0.0865488)
(2.0942 -16.7383 -0 -2.0942 -0 -1.19746e-06)
(6.12493 -39.5337 -0 -6.09854 -0 -0.0263934)
(2.08213 -17.4782 -0 -2.08213 -0 -1.92613e-06)
(4.95943 -41.5076 -0 -4.9371 -0 -0.0223298)
(2.06628 -18.0382 -0 -2.06627 -0 -2.4944e-06)
(4.11891 -43.1286 -0 -4.11303 -0 -0.00587656)
(2.0459 -18.4268 -0 -2.0459 -0 -4.03086e-06)
(3.46297 -44.4269 -0 -3.46208 -0 -0.000888892)
(2.02015 -18.654 -0 -2.02014 -0 -6.28696e-06)
(2.93651 -45.4391 -0 -2.93585 -0 -0.000662656)
(1.98803 -18.7285 -0 -1.98802 -0 -9.587e-06)
(2.50865 -46.1995 -0 -2.50787 -0 -0.000782315)
(1.94842 -18.6556 -0 -1.94841 -0 -1.45944e-05)
(2.15886 -46.7367 -0 -2.15818 -0 -0.000683683)
(1.90006 -18.4371 -0 -1.90004 -0 -2.23613e-05)
(1.87402 -47.0719 -0 -1.87344 -0 -0.000582419)
(1.84156 -18.0715 -0 -1.84153 -0 -3.48841e-05)
(1.64616 -47.2187 -0 -1.64562 -0 -0.000542862)
(1.77146 -17.5544 -0 -1.7714 -0 -5.56532e-05)
(1.47059 -47.1828 -0 -1.47006 -0 -0.000527939)
(1.6883 -16.8795 -0 -1.68822 -0 -8.47983e-05)
(1.34457 -46.9594 -0 -1.34406 -0 -0.000504444)
(1.59085 -16.039 -0 -1.59075 -0 -0.000102354)
(1.26641 -46.5354 -0 -1.26594 -0 -0.000465353)
(1.47829 -15.0256 -0 -1.4782 -0 -9.22422e-05)
(1.23433 -45.8855 -0 -1.23393 -0 -0.000404405)
(1.3506 -13.8363 -0 -1.35045 -0 -0.00014327)
(1.24517 -44.9668 -0 -1.24486 -0 -0.000309527)
(1.20827 -12.4746 -0 -1.20797 -0 -0.000295263)
(1.29302 -43.7202 -0 -1.29289 -0 -0.000129639)
(1.05143 -10.9391 -0 -1.05101 -0 -0.000424741)
(1.36791 -42.0716 -0 -1.36811 -0 0.000197877)
(0.883648 -9.25212 -0 -0.883184 -0 -0.000464129)
(1.45322 -39.9091 -0 -1.45392 -0 0.000706199)
(0.711122 -7.44623 -0 -0.710897 -0 -0.000225726)
(1.52366 -37.0993 -0 -1.52491 -0 0.00125282)
(0.542721 -5.57181 -0 -0.543278 -0 0.000557115)
(1.54329 -33.4927 -0 -1.54453 -0 0.00123283)
(0.38693 -3.70362 -0 -0.38807 -0 0.00114014)
(1.46774 -28.9569 -0 -1.46794 -0 0.000203939)
(0.243931 -1.93685 -0 -0.243295 -0 -0.000635943)
(1.25845 -23.459 -0 -1.25921 -0 0.000764383)
(0.0934457 -0.332248 -0 -0.0879795 -0 -0.00546625)
(0.91643 -17.2107 -0 -0.924885 -0 0.00845501)
(-0.0977688 1.01106 -0 0.106293 -0 -0.00852418)
(0.50629 -10.7295 -0 -0.521638 -0 0.0153479)
(-0.312843 1.74757 -0 0.316025 -0 -0.00318224)
(0.13657 -5.15665 -0 -0.140952 -0 0.00438234)
(-0.454495 1.66361 -0 0.455933 -0 -0.00143789)
(-0.15129 -1.85159 -0 0.151268 -0 2.14891e-05)
(-0.488432 1.12298 -0 0.496445 -0 -0.0080137)
(-0.404114 -0.0661425 -0 0.396173 -0 0.00794032)
(-0.468633 0.570148 -0 0.478825 -0 -0.010192)
(-0.52068 0.442567 -0 0.507339 -0 0.0133403)
(-0.438224 0.218062 -0 0.448009 -0 -0.00978458)
(-0.553842 0.326323 -0 0.539654 -0 0.0141877)
(-0.423607 0.0510912 -0 0.433529 -0 -0.00992202)
(-0.556392 0.0978167 -0 0.541668 -0 0.0147235)
(-0.423973 -0.0641112 -0 0.433818 -0 -0.00984557)
(-0.556735 -0.130558 -0 0.541982 -0 0.0147527)
(-0.439533 -0.238099 -0 0.449282 -0 -0.00974862)
(-0.553721 -0.355742 -0 0.539418 -0 0.0143027)
(-0.469823 -0.59197 -0 0.479987 -0 -0.0101639)
(-0.516898 -0.450245 -0 0.503559 -0 0.0133382)
(-0.487797 -1.12683 -0 0.495655 -0 -0.00785808)
(-0.394757 0.0926021 -0 0.38682 -0 0.00793706)
(-0.451233 -1.63211 -0 0.452534 -0 -0.00130057)
(-0.143703 1.87837 -0 0.143371 -0 0.0003317)
(-0.307554 -1.67218 -0 0.3108 -0 -0.00324653)
(0.140485 5.1632 -0 -0.145301 -0 0.00481609)
(-0.0935332 -0.902756 -0 0.102042 -0 -0.00850858)
(0.506514 10.6824 -0 -0.522245 -0 0.0157312)
(0.0958158 0.456025 -0 -0.0904632 -0 -0.00535257)
(0.915429 17.1404 -0 -0.924548 -0 0.00911897)
(0.247174 2.07444 -0 -0.246624 -0 -0.000550363)
(1.25854 23.3997 -0 -1.25987 -0 0.00133133)
(0.394903 3.86961 -0 -0.396024 -0 0.00112101)
(1.46744 28.924 -0 -1.46808 -0 0.000639419)
(0.558635 5.78214 -0 -0.559119 -0 0.000483788)
(1.53912 33.5016 -0 -1.54074 -0 0.00161659)
(0.737515 7.71803 -0 -0.737224 -0 -0.000291097)
(1.51067 37.1553 -0 -1.5122 -0 0.00153208)
(0.922431 9.60249 -0 -0.921896 -0 -0.000534548)
(1.42582 40.0114 -0 -1.42673 -0 0.000911464)
(1.10398 11.3824 -0 -1.10354 -0 -0.000446862)
(1.32054 42.2165 -0 -1.32088 -0 0.000337471)
(1.27531 13.0165 -0 -1.27506 -0 -0.000245635)
(1.22058 43.9089 -0 -1.22054 -0 -3.93588e-05)
(1.43386 14.4912 -0 -1.43371 -0 -0.000150912)
(1.14273 45.1877 -0 -1.1425 -0 -0.000230364)
(1.57767 15.7947 -0 -1.5775 -0 -0.000161227)
(1.09797 46.1371 -0 -1.09765 -0 -0.000320441)
(1.7051 16.9197 -0 -1.70496 -0 -0.000142094)
(1.09293 46.8237 -0 -1.09254 -0 -0.0003892)
(1.81605 17.8694 -0 -1.81595 -0 -9.50442e-05)
(1.13096 47.289 -0 -1.13051 -0 -0.000441743)
(1.9113 18.6502 -0 -1.91124 -0 -5.95254e-05)
(1.21363 47.5619 -0 -1.21316 -0 -0.000469314)
(1.99219 19.2693 -0 -1.99215 -0 -3.80032e-05)
(1.34194 47.6586 -0 -1.34146 -0 -0.000481485)
(2.06024 19.7336 -0 -2.06021 -0 -2.49607e-05)
(1.51727 47.587 -0 -1.51678 -0 -0.000493161)
(2.117 20.0482 -0 -2.11699 -0 -1.65757e-05)
(1.74223 47.3465 -0 -1.74169 -0 -0.000535844)
(2.16398 20.2162 -0 -2.16397 -0 -1.10037e-05)
(2.02143 46.9286 -0 -2.02079 -0 -0.00063924)
(2.20252 20.2378 -0 -2.20252 -0 -7.3029e-06)
(2.36271 46.3175 -0 -2.36197 -0 -0.000739169)
(2.23386 20.1097 -0 -2.23385 -0 -4.84535e-06)
(2.77895 45.4908 -0 -2.77832 -0 -0.000627608)
(2.25907 19.8249 -0 -2.25906 -0 -3.18212e-06)
(3.2902 44.4193 -0 -3.28933 -0 -0.000872436)
(2.27909 19.373 -0 -2.27909 -0 -2.09406e-06)
(3.92659 43.0675 -0 -3.92078 -0 -0.0058099)
(2.29473 18.7409 -0 -2.29473 -0 -1.96671e-06)
(4.74202 41.3959 -0 -4.72009 -0 -0.0219254)
(2.30669 17.9161 -0 -2.30669 -0 -2.28121e-06)
(5.87414 39.3673 -0 -5.84842 -0 -0.0257217)
(2.31558 16.8925 -0 -2.31558 -0 3.22082e-06)
(7.66442 36.9611 -0 -7.74886 -0 0.084438)
(2.3219 15.6946 -0 -2.32192 -0 2.23419e-05)
(10.6439 34.2242 -0 -10.9157 -0 0.271808)
(2.32603 7.52909 -0 -2.32601 -0 -2.25929e-05)
(14.7805 16.3934 -0 -14.4437 -0 -0.336868)
(0.0127754 -15.6987 -0 -0.0132104 -0 0.000434971)
(0.00208239 -10.2182 -0 -0.00212927 -0 4.68709e-05)
(0.000551329 -9.11787 -0 -0.00056397 -0 1.26404e-05)
(0.000322718 -8.5412 -0 -0.000328973 -0 6.25547e-06)
(0.00022078 -8.16557 -0 -0.000224439 -0 3.65908e-06)
(0.000159254 -7.90903 -0 -0.000161699 -0 2.44442e-06)
(0.000121163 -7.72479 -0 -0.000122941 -0 1.77734e-06)
(9.62455e-05 -7.58532 -0 -9.75961e-05 -0 1.35067e-06)
(7.84658e-05 -7.47663 -0 -7.95323e-05 -0 1.06647e-06)
(6.53203e-05 -7.39015 -0 -6.61892e-05 -0 8.68884e-07)
(5.53521e-05 -7.31995 -0 -5.60748e-05 -0 7.22687e-07)
(4.7573e-05 -7.26214 -0 -4.81848e-05 -0 6.11767e-07)
(4.13412e-05 -7.21388 -0 -4.18661e-05 -0 5.249e-07)
(3.62724e-05 -7.17328 -0 -3.67282e-05 -0 4.55794e-07)
(3.20795e-05 -7.13873 -0 -3.2479e-05 -0 3.99539e-07)
(2.85791e-05 -7.10921 -0 -2.89325e-05 -0 3.53363e-07)
(2.56142e-05 -7.08372 -0 -2.59285e-05 -0 3.14321e-07)
(2.30569e-05 -7.06169 -0 -2.33383e-05 -0 2.81399e-07)
(2.08695e-05 -7.0425 -0 -2.11228e-05 -0 2.53385e-07)
(1.89707e-05 -7.02573 -0 -1.92001e-05 -0 2.29383e-07)
(1.73333e-05 -7.011 -0 -1.75423e-05 -0 2.08995e-07)
(1.58775e-05 -6.998 -0 -1.60681e-05 -0 1.90609e-07)
(1.46062e-05 -6.98651 -0 -1.47812e-05 -0 1.74935e-07)
(1.34829e-05 -6.97629 -0 -1.36442e-05 -0 1.61295e-07)
(1.2477e-05 -6.9672 -0 -1.26258e-05 -0 1.48769e-07)
(1.15863e-05 -6.95908 -0 -1.17244e-05 -0 1.3802e-07)
(1.0785e-05 -6.9518 -0 -1.09133e-05 -0 1.28278e-07)
(1.00741e-05 -6.94526 -0 -1.01939e-05 -0 1.19842e-07)
(9.417e-06 -6.93936 -0 -9.52868e-06 -0 1.11681e-07)
(8.84008e-06 -6.93405 -0 -8.94502e-06 -0 1.04941e-07)
(8.29706e-06 -6.92923 -0 -8.39543e-06 -0 9.8372e-08)
(7.81439e-06 -6.92489 -0 -7.90722e-06 -0 9.283e-08)
(7.34345e-06 -6.92091 -0 -7.43057e-06 -0 8.71259e-08)
(6.95463e-06 -6.91735 -0 -7.03766e-06 -0 8.3026e-08)
(6.62372e-06 -6.91404 -0 -6.70441e-06 -0 8.06944e-08)
(6.21123e-06 -6.91104 -0 -6.28636e-06 -0 7.51332e-08)
(5.80883e-06 -6.90834 -0 -5.87887e-06 -0 7.00311e-08)
(5.44252e-06 -6.90591 -0 -5.509e-06 -0 6.64848e-08)
(5.06898e-06 -6.90371 -0 -5.13133e-06 -0 6.23463e-08)
(4.57501e-06 -6.90176 -0 -4.63214e-06 -0 5.71238e-08)
(4.01306e-06 -6.90009 -0 -4.06504e-06 -0 5.19796e-08)
(3.46503e-06 -6.8987 -0 -3.51219e-06 -0 4.71647e-08)
(2.83801e-06 -6.89756 -0 -2.88038e-06 -0 4.23764e-08)
(2.00971e-06 -6.89671 -0 -2.04547e-06 -0 3.57676e-08)
(1.00369e-06 -6.8962 -0 -1.03153e-06 -0 2.78383e-08)
(-1.68767e-07 -6.89606 -0 1.47561e-07 -0 2.12056e-08)
(-1.63008e-06 -6.89632 -0 1.62167e-06 -0 8.40812e-09)
(-3.41777e-06 -6.89707 -0 3.42222e-06 -0 -4.45232e-09)
(-5.5366e-06 -6.89836 -0 5.55578e-06 -0 -1.91794e-08)
(-8.13525e-06 -6.90024 -0 8.1744e-06 -0 -3.91459e-08)
(-1.12603e-05 -6.90283 -0 1.13205e-05 -0 -6.02094e-08)
(-1.50834e-05 -6.90621 -0 1.51717e-05 -0 -8.82737e-08)
(-1.95934e-05 -6.91053 -0 1.97171e-05 -0 -1.2367e-07)
(-2.50384e-05 -6.91584 -0 2.51988e-05 -0 -1.60427e-07)
(-3.15106e-05 -6.92238 -0 3.17209e-05 -0 -2.1027e-07)
(-3.91542e-05 -6.93021 -0 3.942e-05 -0 -2.65798e-07)
(-4.80252e-05 -6.93959 -0 4.83612e-05 -0 -3.36026e-07)
(-5.86841e-05 -6.95054 -0 5.90904e-05 -0 -4.06231e-07)
(-7.10652e-05 -6.96352 -0 7.15803e-05 -0 -5.15103e-07)
(-8.57051e-05 -6.97846 -0 8.6305e-05 -0 -5.99856e-07)
(-0.000102761 -6.99595 -0 0.000103538 -0 -7.76824e-07)
(-0.000122875 -7.01591 -0 0.000123744 -0 -8.68037e-07)
(-0.000146871 -7.03912 -0 0.000148025 -0 -1.15405e-06)
(-0.000170325 -7.06123 -0 0.000171804 -0 -1.47971e-06)
(-0.000190878 -7.08038 -0 0.00019227 -0 -1.39158e-06)
(-0.000213406 -7.10058 -0 0.000215184 -0 -1.77817e-06)
(-0.000238743 -7.12215 -0 0.000240709 -0 -1.96618e-06)
(-0.000265923 -7.14502 -0 0.000268112 -0 -2.18939e-06)
(-0.00029573 -7.16923 -0 0.000298225 -0 -2.49468e-06)
(-0.000328557 -7.19478 -0 0.000331318 -0 -2.76161e-06)
(-0.000365387 -7.2218 -0 0.000368599 -0 -3.21173e-06)
(-0.000405552 -7.25034 -0 0.000409033 -0 -3.4808e-06)
(-0.000450117 -7.28045 -0 0.000454305 -0 -4.18776e-06)
(-0.000500572 -7.31218 -0 0.000504854 -0 -4.28263e-06)
(-0.000555541 -7.34588 -0 0.000561229 -0 -5.68823e-06)
(-0.000620833 -7.38108 -0 0.000625799 -0 -4.9656e-06)
(-0.000688885 -7.41924 -0 0.000697247 -0 -8.36245e-06)
(-0.000780052 -7.45815 -0 0.000784801 -0 -4.7485e-06)
(-0.000862977 -7.50262 -0 0.000877215 -0 -1.42384e-05)
(-0.00100588 -7.545 -0 0.00100668 -0 -7.95983e-07)
(-0.00109574 -7.60008 -0 0.00112529 -0 -2.95504e-05)
(-0.00137258 -7.64368 -0 0.00135636 -0 1.62177e-05)
(-0.00144758 -7.721 -0 0.00152075 -0 -7.31653e-05)
(-0.00194132 -7.75919 -0 0.0018661 -0 7.52209e-05)
(-0.00250672 -7.87731 -0 0.00270201 -0 -0.000195288)
(-0.0027334 -7.93408 -0 0.00251922 -0 0.000214187)
(-0.00578211 -8.07321 -0 0.00645487 -0 -0.000672762)
(-0.113024 -8.35671 1.846e-21 0.103475 -0 0.00954885)
(0.0153222 -10.8007 -0 -0.0144236 -0 -0.000898574)
(0.00414994 -7.21429 -0 -0.00412958 -0 -2.03608e-05)
(0.00122331 -6.48289 -0 -0.00122425 -0 9.40448e-07)
(0.000728433 -6.09776 -0 -0.000730044 -0 1.61111e-06)
(0.000503632 -5.84674 -0 -0.000505086 -0 1.4542e-06)
(0.000364644 -5.67416 -0 -0.000365803 -0 1.15936e-06)
(0.000278031 -5.54984 -0 -0.000278988 -0 9.56481e-07)
(0.000221212 -5.45564 -0 -0.000222003 -0 7.90886e-07)
(0.000180513 -5.38211 -0 -0.000181171 -0 6.58166e-07)
(0.00015036 -5.32352 -0 -0.000150919 -0 5.58944e-07)
(0.000127475 -5.27592 -0 -0.000127956 -0 4.8042e-07)
(0.000109601 -5.23669 -0 -0.000110018 -0 4.1764e-07)
(9.52705e-05 -5.20392 -0 -9.56363e-05 -0 3.65768e-07)
(8.36098e-05 -5.17634 -0 -8.39336e-05 -0 3.23803e-07)
(7.39592e-05 -5.15286 -0 -7.42468e-05 -0 2.87542e-07)
(6.59003e-05 -5.13279 -0 -6.61581e-05 -0 2.57789e-07)
(5.90743e-05 -5.11546 -0 -5.93066e-05 -0 2.3234e-07)
(5.31848e-05 -5.10047 -0 -5.33949e-05 -0 2.10098e-07)
(4.81451e-05 -5.08742 -0 -4.8336e-05 -0 1.90913e-07)
(4.37697e-05 -5.07601 -0 -4.39438e-05 -0 1.74095e-07)
(3.99945e-05 -5.06598 -0 -4.0154e-05 -0 1.59465e-07)
(3.6641e-05 -5.05713 -0 -3.67879e-05 -0 1.46872e-07)
(3.37096e-05 -5.04931 -0 -3.38451e-05 -0 1.35466e-07)
(3.1119e-05 -5.04235 -0 -3.12441e-05 -0 1.25072e-07)
(2.88008e-05 -5.03617 -0 -2.89173e-05 -0 1.16568e-07)
(2.67461e-05 -5.03063 -0 -2.68543e-05 -0 1.0823e-07)
(2.48983e-05 -5.02568 -0 -2.49995e-05 -0 1.01226e-07)
(2.32577e-05 -5.02122 -0 -2.33524e-05 -0 9.46662e-08)
(2.17434e-05 -5.01721 -0 -2.18323e-05 -0 8.88848e-08)
(2.0411e-05 -5.01359 -0 -2.04949e-05 -0 8.391e-08)
(1.91581e-05 -5.0103 -0 -1.92365e-05 -0 7.84544e-08)
(1.8043e-05 -5.00735 -0 -1.8117e-05 -0 7.39171e-08)
(1.69572e-05 -5.00464 -0 -1.70273e-05 -0 7.00709e-08)
(1.60516e-05 -5.00221 -0 -1.61169e-05 -0 6.52251e-08)
(1.52756e-05 -4.99995 -0 -1.5335e-05 -0 5.93236e-08)
(1.43269e-05 -4.99791 -0 -1.43836e-05 -0 5.67505e-08)
(1.33961e-05 -4.99606 -0 -1.34496e-05 -0 5.34811e-08)
(1.25383e-05 -4.99439 -0 -1.25868e-05 -0 4.8468e-08)
(1.16646e-05 -4.99288 -0 -1.171e-05 -0 4.54062e-08)
(1.05153e-05 -4.99153 -0 -1.05527e-05 -0 3.74299e-08)
(9.19745e-06 -4.99037 -0 -9.22648e-06 -0 2.90275e-08)
(7.89599e-06 -4.98939 -0 -7.91808e-06 -0 2.20845e-08)
(6.40413e-06 -4.98857 -0 -6.41329e-06 -0 9.15966e-09)
(4.44668e-06 -4.98793 -0 -4.44117e-06 -0 -5.51114e-09)
(2.05866e-06 -4.98752 -0 -2.03505e-06 -0 -2.3603e-08)
(-7.43392e-07 -4.98733 -0 7.94351e-07 -0 -5.0959e-08)
(-4.2112e-06 -4.9874 -0 4.29068e-06 -0 -7.94789e-08)
(-8.4805e-06 -4.98776 -0 8.59524e-06 -0 -1.14743e-07)
(-1.35446e-05 -4.98845 -0 1.37007e-05 -0 -1.56099e-07)
(-1.97382e-05 -4.98952 -0 1.99487e-05 -0 -2.10556e-07)
(-2.7197e-05 -4.99102 -0 2.74742e-05 -0 -2.77143e-07)
(-3.63008e-05 -4.99299 -0 3.66496e-05 -0 -3.48757e-07)
(-4.70641e-05 -4.99555 -0 4.75087e-05 -0 -4.44535e-07)
(-6.00478e-05 -4.9987 -0 6.06023e-05 -0 -5.54503e-07)
(-7.54688e-05 -5.0026 -0 7.61566e-05 -0 -6.87844e-07)
(-9.36959e-05 -5.00728 -0 9.45348e-05 -0 -8.38976e-07)
(-0.000114855 -5.0129 -0 0.000115884 -0 -1.02964e-06)
(-0.000140249 -5.01946 -0 0.000141487 -0 -1.23846e-06)
(-0.000169723 -5.02724 -0 0.000171238 -0 -1.51533e-06)
(-0.000204614 -5.03618 -0 0.000206404 -0 -1.79026e-06)
(-0.000245143 -5.04666 -0 0.000247337 -0 -2.19429e-06)
(-0.000293049 -5.05858 -0 0.000295579 -0 -2.53048e-06)
(-0.000349883 -5.07242 -0 0.000352992 -0 -3.10905e-06)
(-0.000405426 -5.08555 -0 0.000409117 -0 -3.69063e-06)
(-0.000454463 -5.09693 -0 0.000458243 -0 -3.7806e-06)
(-0.000507409 -5.10893 -0 0.000511847 -0 -4.438e-06)
(-0.000567429 -5.12168 -0 0.000572359 -0 -4.93013e-06)
(-0.000631912 -5.13513 -0 0.000637406 -0 -5.49408e-06)
(-0.000702326 -5.14933 -0 0.000708475 -0 -6.14852e-06)
(-0.000779975 -5.16427 -0 0.000786773 -0 -6.79796e-06)
(-0.000866394 -5.17999 -0 0.000874005 -0 -7.61158e-06)
(-0.000961507 -5.19654 -0 0.000969882 -0 -8.37515e-06)
(-0.00106554 -5.21387 -0 0.00107505 -0 -9.50999e-06)
(-0.00118523 -5.23209 -0 0.00119544 -0 -1.02174e-05)
(-0.00131196 -5.25124 -0 0.00132405 -0 -1.20919e-05)
(-0.00146832 -5.2712 -0 0.00148054 -0 -1.22148e-05)
(-0.00162113 -5.29251 -0 0.00163721 -0 -1.60793e-05)
(-0.0018435 -5.31426 -0 0.00185714 -0 -1.3637e-05)
(-0.00201885 -5.33848 -0 0.00204248 -0 -2.36232e-05)
(-0.00237744 -5.36179 -0 0.002389 -0 -1.15642e-05)
(-0.002539 -5.3907 -0 0.00258089 -0 -4.18853e-05)
(-0.00323863 -5.41429 -0 0.00323259 -0 6.04373e-06)
(-0.00330794 -5.45292 -0 0.00340463 -0 -9.6686e-05)
(-0.00454414 -5.47247 -0 0.00446351 -0 8.06347e-05)
(-0.00563241 -5.52847 -0 0.00587973 -0 -0.000247318)
(-0.00569181 -5.55062 -0 0.00538851 -0 0.000303305)
(-0.0190359 -5.60784 -0 0.0196223 -0 -0.00058642)
(-0.0452345 -5.79156 -3.87631e-21 0.0475963 -0 -0.00236189)
(0.0258561 -11.5637 -0 -0.0263041 -0 0.000447964)
(0.00790494 -7.88769 -0 -0.00787841 -0 -2.65303e-05)
(0.00260167 -7.12476 -0 -0.00259938 -0 -2.29715e-06)
(0.00159181 -6.71853 -0 -0.00159174 -0 -6.82935e-08)
(0.00111797 -6.45379 -0 -0.00111828 -0 3.09279e-07)
(0.000814773 -6.27097 -0 -0.000815195 -0 4.21813e-07)
(0.000623695 -6.13892 -0 -0.000624134 -0 4.38719e-07)
(0.000497637 -6.03875 -0 -0.000498029 -0 3.9152e-07)
(0.000406792 -5.96044 -0 -0.000407136 -0 3.44008e-07)
(0.00033925 -5.89798 -0 -0.000339557 -0 3.07402e-07)
(0.000287891 -5.84718 -0 -0.000288164 -0 2.72905e-07)
(0.000247708 -5.80529 -0 -0.000247952 -0 2.43823e-07)
(0.000215449 -5.77028 -0 -0.000215667 -0 2.18053e-07)
(0.000189172 -5.74079 -0 -0.000189368 -0 1.96551e-07)
(0.000167411 -5.71568 -0 -0.000167589 -0 1.77821e-07)
(0.000149221 -5.69421 -0 -0.000149383 -0 1.61755e-07)
(0.00013381 -5.67566 -0 -0.000133957 -0 1.46933e-07)
(0.000120509 -5.65962 -0 -0.000120644 -0 1.34845e-07)
(0.000109118 -5.64564 -0 -0.000109242 -0 1.23727e-07)
(9.92252e-05 -5.63343 -0 -9.93391e-05 -0 1.13921e-07)
(9.06842e-05 -5.62269 -0 -9.07899e-05 -0 1.05702e-07)
(8.30998e-05 -5.61321 -0 -8.31975e-05 -0 9.76962e-08)
(7.64644e-05 -5.60483 -0 -7.65553e-05 -0 9.09137e-08)
(7.06023e-05 -5.59738 -0 -7.06877e-05 -0 8.54176e-08)
(6.53525e-05 -5.59075 -0 -6.54319e-05 -0 7.94383e-08)
(6.06998e-05 -5.58481 -0 -6.07746e-05 -0 7.47843e-08)
(5.65139e-05 -5.5795 -0 -5.6584e-05 -0 7.01306e-08)
(5.27965e-05 -5.57473 -0 -5.28632e-05 -0 6.66528e-08)
(4.93659e-05 -5.57042 -0 -4.94281e-05 -0 6.2163e-08)
(4.63412e-05 -5.56655 -0 -4.64003e-05 -0 5.91438e-08)
(4.35044e-05 -5.56303 -0 -4.35602e-05 -0 5.58454e-08)
(4.09724e-05 -5.55986 -0 -4.10256e-05 -0 5.32272e-08)
(3.85082e-05 -5.55695 -0 -3.85588e-05 -0 5.05229e-08)
(3.64369e-05 -5.55435 -0 -3.6484e-05 -0 4.70707e-08)
(3.46668e-05 -5.55192 -0 -3.4715e-05 -0 4.82047e-08)
(3.25083e-05 -5.54972 -0 -3.25527e-05 -0 4.43935e-08)
(3.03758e-05 -5.54774 -0 -3.04158e-05 -0 4.00044e-08)
(2.8399e-05 -5.54595 -0 -2.84358e-05 -0 3.68821e-08)
(2.63748e-05 -5.54431 -0 -2.64069e-05 -0 3.20755e-08)
(2.37613e-05 -5.54286 -0 -2.37931e-05 -0 3.18281e-08)
(2.0714e-05 -5.5416 -0 -2.07422e-05 -0 2.8247e-08)
(1.76288e-05 -5.54053 -0 -1.76488e-05 -0 1.99292e-08)
(1.41386e-05 -5.53962 -0 -1.41534e-05 -0 1.48896e-08)
(9.5997e-06 -5.53891 -0 -9.61087e-06 -0 1.11714e-08)
(4.00771e-06 -5.53842 -0 -4.01184e-06 -0 4.1243e-09)
(-2.58539e-06 -5.53816 -0 2.58889e-06 -0 -3.49304e-09)
(-1.06827e-05 -5.53815 -0 1.0694e-05 -0 -1.12544e-08)
(-2.07394e-05 -5.53845 -0 2.07641e-05 -0 -2.4645e-08)
(-3.27171e-05 -5.53908 -0 3.2767e-05 -0 -4.99485e-08)
(-4.72565e-05 -5.54007 -0 4.73257e-05 -0 -6.91436e-08)
(-6.4804e-05 -5.54151 -0 6.48895e-05 -0 -8.54298e-08)
(-8.62264e-05 -5.54342 -0 8.63405e-05 -0 -1.14092e-07)
(-0.000111581 -5.54591 -0 0.000111741 -0 -1.59335e-07)
(-0.000142108 -5.54898 -0 0.000142294 -0 -1.8587e-07)
(-0.000178374 -5.55282 -0 0.000178609 -0 -2.34395e-07)
(-0.000221279 -5.55741 -0 0.000221573 -0 -2.93758e-07)
(-0.000271092 -5.56294 -0 0.000271456 -0 -3.6461e-07)
(-0.000330772 -5.5694 -0 0.000331185 -0 -4.12361e-07)
(-0.000400063 -5.57706 -0 0.000400591 -0 -5.28362e-07)
(-0.000482114 -5.58586 -0 0.000482685 -0 -5.70333e-07)
(-0.000577322 -5.59617 -0 0.0005781 -0 -7.77901e-07)
(-0.000689859 -5.60788 -0 0.000690625 -0 -7.6553e-07)
(-0.000823 -5.62148 -0 0.00082405 -0 -1.04999e-06)
(-0.000953398 -5.63434 -0 0.000954748 -0 -1.34993e-06)
(-0.00106858 -5.64548 -0 0.00106947 -0 -8.88528e-07)
(-0.001192 -5.65723 -0 0.00119332 -0 -1.32286e-06)
(-0.00133236 -5.66967 -0 0.00133366 -0 -1.30106e-06)
(-0.00148362 -5.68276 -0 0.00148499 -0 -1.36737e-06)
(-0.00164822 -5.69655 -0 0.00164972 -0 -1.50702e-06)
(-0.00182996 -5.71102 -0 0.00183147 -0 -1.5105e-06)
(-0.00203064 -5.7262 -0 0.00203234 -0 -1.69475e-06)
(-0.00225346 -5.74216 -0 0.00225502 -0 -1.55733e-06)
(-0.00249414 -5.75877 -0 0.00249613 -0 -1.9894e-06)
(-0.00277476 -5.77622 -0 0.00277603 -0 -1.26899e-06)
(-0.00306517 -5.79441 -0 0.00306778 -0 -2.6066e-06)
(-0.00343391 -5.8134 -0 0.00343392 -0 -1.06442e-08)
(-0.00377763 -5.83337 -0 0.00378207 -0 -4.44254e-06)
(-0.00430625 -5.8539 -0 0.00430196 -0 4.29814e-06)
(-0.00468605 -5.87615 -0 0.00469679 -0 -1.0737e-05)
(-0.00554306 -5.89806 -0 0.00552449 -0 1.85711e-05)
(-0.00586829 -5.92371 -0 0.00590141 -0 -3.3114e-05)
(-0.00749391 -5.94608 -0 0.00742643 -0 6.74761e-05)
(-0.00763714 -5.97881 -0 0.00774817 -0 -0.000111034)
(-0.0103401 -5.99654 -0 0.0101178 -0 0.000222299)
(-0.0128421 -6.04486 -0 0.0131534 -0 -0.000311325)
(-0.0119149 -6.05349 -0 0.011334 -0 0.000580915)
(-0.0467744 -6.13203 -0 0.0473928 -0 -0.000618345)
(0.00322068 -6.04562 -0 0.00690881 -0 -0.0101295)
(0.0346957 -11.3174 -0 -0.034682 -0 -1.37442e-05)
(0.0121109 -7.74042 -0 -0.0120529 -0 -5.80133e-05)
(0.0043815 -7.00478 -0 -0.00436468 -0 -1.68247e-05)
(0.00277169 -6.61071 -0 -0.00276256 -0 -9.13307e-06)
(0.0019841 -6.35543 -0 -0.00197776 -0 -6.3413e-06)
(0.00145872 -6.17884 -0 -0.00145422 -0 -4.50538e-06)
(0.00112246 -6.05121 -0 -0.0011191 -0 -3.36823e-06)
(0.00089892 -5.95442 -0 -0.000896239 -0 -2.68113e-06)
(0.00073663 -5.87873 -0 -0.000734442 -0 -2.18858e-06)
(0.000615388 -5.81833 -0 -0.000613572 -0 -1.8152e-06)
(0.000522934 -5.76921 -0 -0.000521397 -0 -1.53704e-06)
(0.000450428 -5.72869 -0 -0.000449109 -0 -1.31922e-06)
(0.000392108 -5.69483 -0 -0.000390962 -0 -1.14613e-06)
(0.000344534 -5.6663 -0 -0.00034353 -0 -1.00375e-06)
(0.00030509 -5.64202 -0 -0.000304202 -0 -8.87676e-07)
(0.00027208 -5.62124 -0 -0.000271291 -0 -7.89427e-07)
(0.000244101 -5.6033 -0 -0.000243394 -0 -7.07187e-07)
(0.000219935 -5.58778 -0 -0.0002193 -0 -6.35692e-07)
(0.000199218 -5.57426 -0 -0.000198643 -0 -5.74717e-07)
(0.000181218 -5.56244 -0 -0.000180696 -0 -5.21882e-07)
(0.000165662 -5.55205 -0 -0.000165186 -0 -4.76056e-07)
(0.000151857 -5.54287 -0 -0.000151421 -0 -4.35383e-07)
(0.000139764 -5.53477 -0 -0.000139364 -0 -3.99906e-07)
(0.000129079 -5.52756 -0 -0.00012871 -0 -3.6854e-07)
(0.000119509 -5.52114 -0 -0.000119169 -0 -3.402e-07)
(0.000111022 -5.51541 -0 -0.000110707 -0 -3.15454e-07)
(0.000103387 -5.51027 -0 -0.000103094 -0 -2.92953e-07)
(9.65996e-05 -5.50565 -0 -9.63269e-05 -0 -2.72717e-07)
(9.03434e-05 -5.50148 -0 -9.00886e-05 -0 -2.54765e-07)
(8.48133e-05 -5.49774 -0 -8.45754e-05 -0 -2.37822e-07)
(7.96369e-05 -5.49432 -0 -7.94133e-05 -0 -2.23555e-07)
(7.5006e-05 -5.49126 -0 -7.47964e-05 -0 -2.09624e-07)
(7.05081e-05 -5.48844 -0 -7.03127e-05 -0 -1.95436e-07)
(6.66922e-05 -5.48593 -0 -6.65062e-05 -0 -1.85979e-07)
(6.34162e-05 -5.48357 -0 -6.32394e-05 -0 -1.76816e-07)
(5.94794e-05 -5.48144 -0 -5.9315e-05 -0 -1.64354e-07)
(5.55704e-05 -5.47952 -0 -5.54185e-05 -0 -1.51851e-07)
(5.19134e-05 -5.47777 -0 -5.17718e-05 -0 -1.41585e-07)
(4.81645e-05 -5.47618 -0 -4.8034e-05 -0 -1.30472e-07)
(4.33814e-05 -5.47477 -0 -4.32652e-05 -0 -1.16225e-07)
(3.77491e-05 -5.47353 -0 -3.76512e-05 -0 -9.79383e-08)
(3.19458e-05 -5.47248 -0 -3.1867e-05 -0 -7.87876e-08)
(2.54127e-05 -5.47157 -0 -2.53514e-05 -0 -6.1287e-08)
(1.69934e-05 -5.47084 -0 -1.69575e-05 -0 -3.58991e-08)
(6.56146e-06 -5.47032 -0 -6.55945e-06 -0 -2.00687e-09)
(-5.85008e-06 -5.47 -0 5.81775e-06 -0 3.23339e-08)
(-2.09209e-05 -5.46991 -0 2.08416e-05 -0 7.93445e-08)
(-3.97318e-05 -5.47009 -0 3.95888e-05 -0 1.43068e-07)
(-6.22785e-05 -5.47057 -0 6.20739e-05 -0 2.04667e-07)
(-8.95037e-05 -5.47138 -0 8.92207e-05 -0 2.83063e-07)
(-0.000122389 -5.47257 -0 0.000121998 -0 3.90377e-07)
(-0.000162484 -5.47419 -0 0.000161964 -0 5.20396e-07)
(-0.000210003 -5.47632 -0 0.000209349 -0 6.5345e-07)
(-0.000267163 -5.47896 -0 0.000266321 -0 8.41762e-07)
(-0.000335036 -5.48228 -0 0.000333986 -0 1.04996e-06)
(-0.000415353 -5.48625 -0 0.000414052 -0 1.30124e-06)
(-0.000508662 -5.49105 -0 0.000507086 -0 1.57586e-06)
(-0.000620269 -5.49666 -0 0.000618313 -0 1.95522e-06)
(-0.00074983 -5.50333 -0 0.00074752 -0 2.30996e-06)
(-0.000903236 -5.51097 -0 0.000900363 -0 2.8729e-06)
(-0.00108104 -5.51992 -0 0.00107774 -0 3.29422e-06)
(-0.00129116 -5.53008 -0 0.001287 -0 4.16381e-06)
(-0.00153892 -5.54188 -0 0.0015342 -0 4.71993e-06)
(-0.00178207 -5.55299 -0 0.0017769 -0 5.16899e-06)
(-0.00199732 -5.56262 -0 0.00199069 -0 6.63437e-06)
(-0.00222605 -5.57278 -0 0.00221921 -0 6.84058e-06)
(-0.00248622 -5.58348 -0 0.00247837 -0 7.84684e-06)
(-0.00276758 -5.59472 -0 0.00275877 -0 8.80735e-06)
(-0.00307271 -5.60651 -0 0.00306298 -0 9.72977e-06)
(-0.00341002 -5.61885 -0 0.00339906 -0 1.09575e-05)
(-0.00377951 -5.63177 -0 0.0037675 -0 1.20117e-05)
(-0.00419273 -5.6453 -0 0.00417902 -0 1.37112e-05)
(-0.00463383 -5.6593 -0 0.00461921 -0 1.46148e-05)
(-0.00515413 -5.674 -0 0.00513661 -0 1.7516e-05)
(-0.00568093 -5.68914 -0 0.00566362 -0 1.73104e-05)
(-0.00636687 -5.70502 -0 0.00634334 -0 2.3531e-05)
(-0.00697912 -5.72133 -0 0.00696022 -0 1.88955e-05)
(-0.00796626 -5.7384 -0 0.00793106 -0 3.51951e-05)
(-0.00861963 -5.75604 -0 0.00860489 -0 1.4737e-05)
(-0.010218 -5.77426 -0 0.0101546 -0 6.33745e-05)
(-0.0107468 -5.79356 -0 0.0107588 -0 -1.19387e-05)
(-0.0136861 -5.81255 -0 0.0135417 -0 0.000144449)
(-0.013941 -5.8356 -0 0.0140544 -0 -0.000113369)
(-0.0186702 -5.84938 -0 0.0183019 -0 0.000368292)
(-0.0227503 -5.887 -0 0.0231181 -0 -0.000367801)
(-0.0218989 -5.87237 -0 0.0211166 -0 0.000782335)
(-0.073774 -6.00376 -0 0.0745278 -0 -0.000753836)
(0.0227837 -5.58844 -0 -0.0198311 -0 -0.00295256)
(0.042014 -11.1189 -0 -0.0419652 -0 -4.88367e-05)
(0.016441 -7.62051 -0 -0.0164202 -0 -2.08885e-05)
(0.00644045 -6.90364 -0 -0.0064317 -0 -8.75042e-06)
(0.00423522 -6.51594 -0 -0.00423039 -0 -4.82425e-06)
(0.00309951 -6.26656 -0 -0.00309583 -0 -3.68492e-06)
(0.00230305 -6.09378 -0 -0.00230035 -0 -2.70043e-06)
(0.00178315 -5.96878 -0 -0.00178111 -0 -2.04303e-06)
(0.00143418 -5.874 -0 -0.00143251 -0 -1.67739e-06)
(0.00117869 -5.79984 -0 -0.00117729 -0 -1.40313e-06)
(0.000986707 -5.74063 -0 -0.000985528 -0 -1.17908e-06)
(0.00083979 -5.69247 -0 -0.000838778 -0 -1.01179e-06)
(0.000724253 -5.65273 -0 -0.000723376 -0 -8.77224e-07)
(0.000631113 -5.61952 -0 -0.000630343 -0 -7.69482e-07)
(0.000555 -5.59153 -0 -0.000554322 -0 -6.7799e-07)
(0.000491811 -5.5677 -0 -0.000491207 -0 -6.03922e-07)
(0.000438857 -5.54731 -0 -0.000438318 -0 -5.39203e-07)
(0.000393945 -5.52971 -0 -0.000393459 -0 -4.85313e-07)
(0.000355127 -5.51448 -0 -0.000354689 -0 -4.37696e-07)
(0.00032181 -5.5012 -0 -0.000321413 -0 -3.96746e-07)
(0.000292846 -5.4896 -0 -0.000292484 -0 -3.61179e-07)
(0.00026779 -5.4794 -0 -0.00026746 -0 -3.29898e-07)
(0.000245562 -5.4704 -0 -0.00024526 -0 -3.01959e-07)
(0.00022607 -5.46245 -0 -0.000225792 -0 -2.77621e-07)
(0.000208844 -5.45537 -0 -0.000208588 -0 -2.55895e-07)
(0.000193412 -5.44907 -0 -0.000193176 -0 -2.36026e-07)
(0.000179717 -5.44344 -0 -0.000179499 -0 -2.1887e-07)
(0.000167395 -5.43839 -0 -0.000167192 -0 -2.03046e-07)
(0.000156434 -5.43386 -0 -0.000156245 -0 -1.88551e-07)
(0.000146339 -5.42977 -0 -0.000146162 -0 -1.76195e-07)
(0.000137393 -5.4261 -0 -0.000137229 -0 -1.63719e-07)
(0.000129039 -5.42275 -0 -0.000128884 -0 -1.54259e-07)
(0.000121547 -5.41974 -0 -0.000121403 -0 -1.44117e-07)
(0.000114286 -5.41697 -0 -0.000114153 -0 -1.33321e-07)
(0.000108074 -5.41451 -0 -0.000107946 -0 -1.27694e-07)
(0.000102727 -5.41219 -0 -0.000102606 -0 -1.21419e-07)
(9.63734e-05 -5.41008 -0 -9.62613e-05 -0 -1.12143e-07)
(9.00411e-05 -5.40819 -0 -8.99385e-05 -0 -1.02557e-07)
(8.40785e-05 -5.40647 -0 -8.39832e-05 -0 -9.53578e-08)
(7.79444e-05 -5.4049 -0 -7.78569e-05 -0 -8.75327e-08)
(7.02421e-05 -5.4035 -0 -7.01643e-05 -0 -7.78162e-08)
(6.10969e-05 -5.40227 -0 -6.10328e-05 -0 -6.40988e-08)
(5.15038e-05 -5.40121 -0 -5.1455e-05 -0 -4.88494e-08)
(4.07716e-05 -5.4003 -0 -4.07337e-05 -0 -3.79299e-08)
(2.70744e-05 -5.39954 -0 -2.70538e-05 -0 -2.05577e-08)
(1.00337e-05 -5.39897 -0 -1.00384e-05 -0 4.73705e-09)
(-1.042e-05 -5.39859 -0 1.03917e-05 -0 2.82679e-08)
(-3.50251e-05 -5.39841 -0 3.49693e-05 -0 5.58471e-08)
(-6.5748e-05 -5.39849 -0 6.56383e-05 -0 1.09727e-07)
(-0.000102882 -5.39882 -0 0.00010273 -0 1.51489e-07)
(-0.00014757 -5.39944 -0 0.000147376 -0 1.94704e-07)
(-0.000201464 -5.40041 -0 0.000201187 -0 2.76849e-07)
(-0.000267142 -5.40175 -0 0.000266769 -0 3.73107e-07)
(-0.000345061 -5.40354 -0 0.000344606 -0 4.55189e-07)
(-0.000438683 -5.40579 -0 0.000438089 -0 5.94523e-07)
(-0.000549813 -5.40863 -0 0.000549077 -0 7.36533e-07)
(-0.000681351 -5.41204 -0 0.000680439 -0 9.11773e-07)
(-0.000834222 -5.41617 -0 0.000833133 -0 1.08937e-06)
(-0.00101677 -5.421 -0 0.0010154 -0 1.37311e-06)
(-0.00122863 -5.42676 -0 0.00122705 -0 1.57681e-06)
(-0.00147941 -5.43335 -0 0.00147739 -0 2.0221e-06)
(-0.00176979 -5.44107 -0 0.00176759 -0 2.19909e-06)
(-0.00211288 -5.44981 -0 0.00210994 -0 2.93994e-06)
(-0.00251591 -5.45997 -0 0.0025128 -0 3.11064e-06)
(-0.00291185 -5.4695 -0 0.00290871 -0 3.14239e-06)
(-0.00326354 -5.47775 -0 0.00325881 -0 4.72725e-06)
(-0.0036344 -5.48646 -0 0.00362999 -0 4.40695e-06)
(-0.00405519 -5.4956 -0 0.00405003 -0 5.15302e-06)
(-0.00451186 -5.50516 -0 0.00450607 -0 5.79851e-06)
(-0.00500566 -5.51515 -0 0.00499936 -0 6.30501e-06)
(-0.00555213 -5.52557 -0 0.00554498 -0 7.15422e-06)
(-0.00614614 -5.53642 -0 0.00613852 -0 7.62286e-06)
(-0.0068142 -5.54779 -0 0.00680528 -0 8.91544e-06)
(-0.00751975 -5.55941 -0 0.00751084 -0 8.90292e-06)
(-0.00835992 -5.57166 -0 0.00834833 -0 1.15948e-05)
(-0.00919413 -5.58404 -0 0.00918453 -0 9.59937e-06)
(-0.0103026 -5.59716 -0 0.010286 -0 1.65898e-05)
(-0.0112567 -5.61017 -0 0.011249 -0 7.66304e-06)
(-0.0128512 -5.62423 -0 0.0128228 -0 2.83122e-05)
(-0.0138416 -5.63771 -0 0.0138457 -0 -4.07596e-06)
(-0.016405 -5.65284 -0 0.0163438 -0 6.12033e-05)
(-0.0171847 -5.6664 -0 0.0172349 -0 -5.02183e-05)