/*--------------------------------*- C++ -*----------------------------------*\
| =========                 |                                                 |
| \\      /  F ield         | OpenFOAM: The Open Source CFD Toolbox           |
|  \\    /   O peration     | Version:  2306                                  |
|   \\  /    A nd           | Website:  www.openfoam.com                      |
|    \\/     M anipulation  |                                                 |
\*---------------------------------------------------------------------------*/
FoamFile
{
    version     2.0;
    format      ascii;
    arch        "LSB;label=32;scalar=64";
    class       volVectorField;
    location    "1700";
    object      U;
}
// * * * * * * * * * * * * * * * * * * * * * * * * * * * * * * * * * * * * * //

dimensions      [0 1 -1 0 0 0 0];

internalField   nonuniform List<vector> 
20540
(
(37.1825 0.00100653 0)
(27.0297 0.00258632 0)
(37.2123 0.00322762 0)
(27.0542 0.0076303 0)
(37.2514 0.0059091 0)
(27.0864 0.0118738 0)
(37.3017 0.00914459 0)
(27.128 0.0155383 0)
(37.3657 0.0130456 0)
(27.1811 0.0190497 0)
(37.4464 0.0177448 0)
(27.2483 0.0225843 0)
(37.5468 0.0233992 0)
(27.3324 0.0261815 0)
(37.6709 0.0301936 0)
(27.4369 0.0298641 0)
(37.8231 0.0383444 0)
(27.566 0.0336624 0)
(38.0085 0.0481026 0)
(27.7247 0.0376109 0)
(38.2333 0.0597564 0)
(27.9191 0.04175 0)
(38.5042 0.0736314 0)
(28.1562 0.0461357 0)
(38.8288 0.090089 0)
(28.4449 0.050854 0)
(39.2156 0.109518 0)
(28.7955 0.0560406 0)
(39.6735 0.132322 0)
(29.2207 0.0619095 0)
(40.2113 0.158888 0)
(29.7353 0.0687905 0)
(40.837 0.189549 0)
(30.3574 0.0771817 0)
(41.5557 0.224491 0)
(31.1081 0.0878107 0)
(42.3678 0.263658 0)
(32.0119 0.101703 0)
(43.2652 0.306608 0)
(33.096 0.120243 0)
(44.2243 0.352281 0)
(34.3898 0.145191 0)
(45.194 0.398793 0)
(35.9216 0.178542 0)
(46.079 0.443146 0)
(37.7129 0.222024 0)
(46.7324 0.480362 0)
(39.7653 0.275973 0)
(47.005 0.502416 0)
(42.0372 0.337808 0)
(46.8618 0.500264 0)
(44.4017 0.400873 0)
(46.4101 0.468225 0)
(46.5345 0.448678 0)
(45.8355 0.406354 0)
(47.7809 0.444243 0)
(45.3303 0.319268 0)
(48.0085 0.380201 0)
(44.9947 0.217055 0)
(47.8253 0.277895 0)
(44.8459 0.116059 0)
(47.6387 0.161871 0)
(44.7968 0.0208322 0)
(47.5514 0.0492803 0)
(44.7996 -0.0731623 0)
(47.5571 -0.0628755 0)
(44.8558 -0.16863 0)
(47.6557 -0.175415 0)
(45.0141 -0.268811 0)
(47.8481 -0.28928 0)
(45.3501 -0.368868 0)
(48.0207 -0.387914 0)
(45.844 -0.454132 0)
(47.7782 -0.449396 0)
(46.3993 -0.514923 0)
(46.5233 -0.452483 0)
(46.8283 -0.546494 0)
(44.3823 -0.404095 0)
(46.9416 -0.548247 0)
(41.999 -0.340248 0)
(46.6272 -0.525375 0)
(39.6974 -0.277363 0)
(45.9244 -0.486807 0)
(37.6049 -0.222221 0)
(44.9873 -0.440559 0)
(35.7657 -0.177583 0)
(43.9644 -0.391654 0)
(34.1816 -0.143285 0)
(42.9509 -0.343218 0)
(32.834 -0.117681 0)
(41.9983 -0.297284 0)
(31.6967 -0.0987881 0)
(41.1313 -0.255027 0)
(30.7418 -0.0848182 0)
(40.3593 -0.217013 0)
(29.943 -0.0743334 0)
(39.683 -0.18339 0)
(29.276 -0.0662483 0)
(39.0976 -0.154018 0)
(28.7202 -0.0597802 0)
(38.5954 -0.128603 0)
(28.2577 -0.0543839 0)
(38.1677 -0.106778 0)
(27.8735 -0.0496914 0)
(37.8057 -0.0881477 0)
(27.5549 -0.0454618 0)
(37.501 -0.0723213 0)
(27.291 -0.0415418 0)
(37.2458 -0.058929 0)
(27.0731 -0.037836 0)
(37.0332 -0.0476321 0)
(26.8936 -0.0342852 0)
(36.8569 -0.0381274 0)
(26.7461 -0.030852 0)
(36.7116 -0.0301475 0)
(26.6256 -0.0275091 0)
(36.5926 -0.0234593 0)
(26.5274 -0.024232 0)
(36.4957 -0.0178619 0)
(26.448 -0.020998 0)
(36.4176 -0.0131829 0)
(26.3843 -0.0177899 0)
(36.3552 -0.00927548 0)
(26.3336 -0.0145733 0)
(36.306 -0.00601503 0)
(26.2938 -0.0111834 0)
(36.2677 -0.00329622 0)
(26.2629 -0.00721649 0)
(36.2383 -0.00103027 0)
(26.2392 -0.00245389 0)
(9.31632 0.00407976 0)
(6.33166 0.00038292 0)
(5.72094 9.1842e-05 0)
(5.39735 5.17277e-05 0)
(5.18549 3.44009e-05 0)
(5.04011 2.45092e-05 0)
(4.93532 1.84979e-05 0)
(4.85577 1.45944e-05 0)
(4.79363 1.18437e-05 0)
(4.7441 9.82704e-06 0)
(4.70383 8.30452e-06 0)
(4.67063 7.12157e-06 0)
(4.64288 6.17766e-06 0)
(4.61952 5.41161e-06 0)
(4.59962 4.78089e-06 0)
(4.58261 4.25459e-06 0)
(4.56792 3.80884e-06 0)
(4.55521 3.42617e-06 0)
(4.54413 3.09887e-06 0)
(4.53446 2.81538e-06 0)
(4.52595 2.57161e-06 0)
(4.51844 2.35377e-06 0)
(4.5118 2.16465e-06 0)
(4.5059 1.99849e-06 0)
(4.50065 1.84776e-06 0)
(4.49595 1.7161e-06 0)
(4.49174 1.59671e-06 0)
(4.48796 1.49176e-06 0)
(4.48455 1.39337e-06 0)
(4.48148 1.30778e-06 0)
(4.47869 1.22786e-06 0)
(4.47618 1.15668e-06 0)
(4.47388 1.08601e-06 0)
(4.47182 1.03009e-06 0)
(4.4699 9.8808e-07 0)
(4.46817 9.23558e-07 0)
(4.4666 8.61204e-07 0)
(4.4652 8.08973e-07 0)
(4.46392 7.51887e-07 0)
(4.46279 6.8428e-07 0)
(4.46183 6.04601e-07 0)
(4.46102 5.2242e-07 0)
(4.46036 4.38789e-07 0)
(4.45986 3.26886e-07 0)
(4.45956 1.88397e-07 0)
(4.45948 3.77694e-08 0)
(4.45963 -1.6108e-07 0)
(4.46006 -4.03741e-07 0)
(4.4608 -6.94292e-07 0)
(4.46188 -1.04263e-06 0)
(4.46338 -1.4563e-06 0)
(4.46532 -1.98073e-06 0)
(4.46781 -2.5925e-06 0)
(4.47087 -3.31913e-06 0)
(4.47464 -4.19526e-06 0)
(4.47915 -5.23355e-06 0)
(4.48455 -6.4296e-06 0)
(4.49086 -7.85876e-06 0)
(4.49834 -9.53898e-06 0)
(4.50694 -1.14972e-05 0)
(4.51701 -1.38418e-05 0)
(4.52849 -1.65231e-05 0)
(4.54184 -1.98569e-05 0)
(4.55455 -2.31543e-05 0)
(4.56556 -2.57751e-05 0)
(4.57716 -2.89945e-05 0)
(4.58955 -3.24082e-05 0)
(4.60268 -3.60856e-05 0)
(4.61657 -4.01809e-05 0)
(4.63123 -4.46365e-05 0)
(4.64672 -4.97883e-05 0)
(4.66308 -5.51736e-05 0)
(4.68033 -6.15343e-05 0)
(4.6985 -6.81044e-05 0)
(4.71778 -7.6391e-05 0)
(4.73794 -8.41842e-05 0)
(4.75974 -9.57922e-05 0)
(4.78202 -0.000104606 0)
(4.80739 -0.000122981 0)
(4.83168 -0.000130873 0)
(4.86305 -0.000164764 0)
(4.8881 -0.000167029 0)
(4.93219 -0.000240965 0)
(4.95405 -0.000205694 0)
(5.02219 -0.000461466 0)
(5.05405 -0.000278744 0)
(5.14083 -0.000767922 0)
(5.2506 -0.0312652 0)
(16.2782 0.0070372 0)
(12.2953 0.00166164 0)
(11.3457 0.000466477 0)
(10.8268 0.000278023 0)
(10.4798 0.000192371 0)
(10.2392 0.000139872 0)
(10.0646 0.000107067 0)
(9.93142 8.54328e-05 0)
(9.82699 6.9897e-05 0)
(9.74352 5.83563e-05 0)
(9.67551 4.95677e-05 0)
(9.61932 4.26851e-05 0)
(9.57231 3.71542e-05 0)
(9.53266 3.26448e-05 0)
(9.49887 2.89043e-05 0)
(9.46995 2.57769e-05 0)
(9.44495 2.31234e-05 0)
(9.42331 2.08304e-05 0)
(9.40444 1.88668e-05 0)
(9.38794 1.71602e-05 0)
(9.37343 1.56867e-05 0)
(9.36062 1.43763e-05 0)
(9.3493 1.32305e-05 0)
(9.33921 1.22166e-05 0)
(9.33024 1.13097e-05 0)
(9.32221 1.05048e-05 0)
(9.31503 9.7812e-06 0)
(9.30856 9.13822e-06 0)
(9.30273 8.54455e-06 0)
(9.29748 8.02308e-06 0)
(9.29271 7.53076e-06 0)
(9.28842 7.09385e-06 0)
(9.28448 6.6682e-06 0)
(9.28096 6.31511e-06 0)
(9.27768 6.01029e-06 0)
(9.27472 5.63908e-06 0)
(9.27204 5.27681e-06 0)
(9.26964 4.94381e-06 0)
(9.26746 4.60765e-06 0)
(9.26553 4.15389e-06 0)
(9.26389 3.64257e-06 0)
(9.26252 3.14968e-06 0)
(9.2614 2.5746e-06 0)
(9.26057 1.81592e-06 0)
(9.26008 8.97712e-07 0)
(9.25997 -1.79949e-07 0)
(9.26026 -1.51929e-06 0)
(9.26105 -3.15248e-06 0)
(9.26237 -5.08338e-06 0)
(9.2643 -7.46496e-06 0)
(9.26694 -1.03285e-05 0)
(9.27038 -1.38137e-05 0)
(9.27477 -1.7937e-05 0)
(9.28015 -2.29153e-05 0)
(9.28678 -2.88282e-05 0)
(9.29471 -3.57965e-05 0)
(9.3042 -4.39019e-05 0)
(9.31527 -5.36144e-05 0)
(9.32838 -6.49203e-05 0)
(9.34347 -7.82188e-05 0)
(9.36112 -9.37844e-05 0)
(9.38124 -0.000111973 0)
(9.40461 -0.000133854 0)
(9.42686 -0.000155264 0)
(9.44611 -0.000173537 0)
(9.4664 -0.000194145 0)
(9.48805 -0.000217029 0)
(9.51098 -0.000241571 0)
(9.53524 -0.000268504 0)
(9.56083 -0.000298047 0)
(9.58786 -0.000331287 0)
(9.61637 -0.000367297 0)
(9.64643 -0.000407589 0)
(9.67805 -0.000452428 0)
(9.71164 -0.000502562 0)
(9.74662 -0.000559521 0)
(9.78459 -0.000623209 0)
(9.82309 -0.00069962 0)
(9.8673 -0.000782942 0)
(9.90901 -0.000893487 0)
(9.9637 -0.00100464 0)
(10.0063 -0.0011935 0)
(10.0826 -0.00136509 0)
(10.1199 -0.00161067 0)
(10.2348 -0.00244124 0)
(10.2918 -0.00204593 0)
(10.4138 -0.006413 0)
(10.8108 -0.0585737 0)
(20.3857 0.0113045 0)
(16.5035 0.00336785 0)
(15.4269 0.0010419 0)
(14.8148 0.000637572 0)
(14.3949 0.000448304 0)
(14.1007 0.000328559 0)
(13.8859 0.000252797 0)
(13.7213 0.000202496 0)
(13.5919 0.000166121 0)
(13.4883 0.000138972 0)
(13.4037 0.000118236 0)
(13.3338 0.000101955 0)
(13.2752 8.88415e-05 0)
(13.2257 7.81299e-05 0)
(13.1836 6.92346e-05 0)
(13.1474 6.17848e-05 0)
(13.1162 5.54575e-05 0)
(13.0892 4.99863e-05 0)
(13.0656 4.52948e-05 0)
(13.0449 4.12146e-05 0)
(13.0268 3.76896e-05 0)
(13.0108 3.45526e-05 0)
(12.9966 3.18078e-05 0)
(12.9839 2.93801e-05 0)
(12.9727 2.72041e-05 0)
(12.9627 2.52748e-05 0)
(12.9536 2.35379e-05 0)
(12.9455 2.19953e-05 0)
(12.9382 2.05691e-05 0)
(12.9317 1.93147e-05 0)
(12.9257 1.81339e-05 0)
(12.9203 1.70828e-05 0)
(12.9154 1.6058e-05 0)
(12.9109 1.52033e-05 0)
(12.9068 1.44752e-05 0)
(12.9031 1.35764e-05 0)
(12.8998 1.26935e-05 0)
(12.8968 1.18819e-05 0)
(12.8941 1.10533e-05 0)
(12.8916 9.96653e-06 0)
(12.8896 8.71677e-06 0)
(12.8879 7.47799e-06 0)
(12.8865 6.06308e-06 0)
(12.8855 4.20865e-06 0)
(12.885 1.94162e-06 0)
(12.8849 -7.15908e-07 0)
(12.8853 -4.00881e-06 0)
(12.8864 -8.06377e-06 0)
(12.8882 -1.28771e-05 0)
(12.8908 -1.87582e-05 0)
(12.8943 -2.58354e-05 0)
(12.8988 -3.44792e-05 0)
(12.9046 -4.47063e-05 0)
(12.9117 -5.70143e-05 0)
(12.9204 -7.16478e-05 0)
(12.9308 -8.89315e-05 0)
(12.9432 -0.000108997 0)
(12.9578 -0.000133024 0)
(12.9749 -0.000160971 0)
(12.9947 -0.000193911 0)
(13.0178 -0.000232352 0)
(13.0441 -0.000277413 0)
(13.0747 -0.000331264 0)
(13.1038 -0.000383901 0)
(13.1289 -0.000429303 0)
(13.1555 -0.000479612 0)
(13.1838 -0.000535935 0)
(13.2137 -0.000596465 0)
(13.2454 -0.000662633 0)
(13.2789 -0.000735347 0)
(13.3142 -0.000816526 0)
(13.3514 -0.000905291 0)
(13.3907 -0.00100322 0)
(13.4319 -0.00111408 0)
(13.4759 -0.00123448 0)
(13.5214 -0.00137692 0)
(13.5712 -0.00152606 0)
(13.6211 -0.00172171 0)
(13.6792 -0.00190671 0)
(13.7328 -0.0022019 0)
(13.805 -0.00242413 0)
(13.8592 -0.00294467 0)
(13.9589 -0.00325002 0)
(14.0074 -0.00397025 0)
(14.1525 -0.00571147 0)
(14.2301 -0.00461456 0)
(14.3614 -0.0181871 0)
(14.9506 -0.0723347 0)
(22.8873 0.0147836 0)
(19.4061 0.00528235 0)
(18.3046 0.00177012 0)
(17.6484 0.00110974 0)
(17.1851 0.000790947 0)
(16.8565 0.000583295 0)
(16.6151 0.000450493 0)
(16.4292 0.000361838 0)
(16.2827 0.000297376 0)
(16.1651 0.000249096 0)
(16.069 0.000212145 0)
(15.9895 0.00018308 0)
(15.9228 0.000159638 0)
(15.8665 0.000140467 0)
(15.8184 0.000124533 0)
(15.7772 0.000111175 0)
(15.7416 9.98267e-05 0)
(15.7107 9.00076e-05 0)
(15.6838 8.1582e-05 0)
(15.6602 7.42511e-05 0)
(15.6395 6.79135e-05 0)
(15.6212 6.22753e-05 0)
(15.605 5.73378e-05 0)
(15.5905 5.29703e-05 0)
(15.5777 4.90551e-05 0)
(15.5662 4.55821e-05 0)
(15.5559 4.24552e-05 0)
(15.5466 3.96768e-05 0)
(15.5383 3.71094e-05 0)
(15.5307 3.48475e-05 0)
(15.5239 3.27212e-05 0)
(15.5177 3.08253e-05 0)
(15.5121 2.89788e-05 0)
(15.507 2.7429e-05 0)
(15.5023 2.61056e-05 0)
(15.4981 2.44862e-05 0)
(15.4942 2.2889e-05 0)
(15.4908 2.14111e-05 0)
(15.4877 1.99004e-05 0)
(15.485 1.79358e-05 0)
(15.4826 1.56576e-05 0)
(15.4807 1.33691e-05 0)
(15.4791 1.07666e-05 0)
(15.478 7.37484e-06 0)
(15.4774 3.20853e-06 0)
(15.4774 -1.70064e-06 0)
(15.478 -7.74138e-06 0)
(15.4793 -1.52195e-05 0)
(15.4814 -2.41242e-05 0)
(15.4845 -3.49562e-05 0)
(15.4886 -4.80112e-05 0)
(15.494 -6.3945e-05 0)
(15.5008 -8.28142e-05 0)
(15.5091 -0.000105512 0)
(15.5194 -0.000132488 0)
(15.5316 -0.000164371 0)
(15.5462 -0.000201396 0)
(15.5632 -0.000245701 0)
(15.5834 -0.000297217 0)
(15.6065 -0.000358001 0)
(15.6336 -0.000428807 0)
(15.6645 -0.00051196 0)
(15.7003 -0.000610971 0)
(15.7344 -0.000707908 0)
(15.7639 -0.000792028 0)
(15.795 -0.000884174 0)
(15.8281 -0.000987798 0)
(15.8632 -0.00109942 0)
(15.9003 -0.00122112 0)
(15.9394 -0.00135509 0)
(15.9807 -0.00150374 0)
(16.0242 -0.00166747 0)
(16.0702 -0.00184629 0)
(16.1182 -0.0020512 0)
(16.1697 -0.00226923 0)
(16.2225 -0.00253454 0)
(16.2808 -0.00279999 0)
(16.3385 -0.00316928 0)
(16.4066 -0.00348686 0)
(16.468 -0.00405485 0)
(16.5525 -0.00441086 0)
(16.6142 -0.00541527 0)
(16.7295 -0.00587275 0)
(16.7855 -0.00728821 0)
(16.9492 -0.0101484 0)
(17.0361 -0.00823046 0)
(17.1881 -0.0336942 0)
(17.7547 -0.0666702 0)
(24.6082 0.0178458 0)
(21.6155 0.00739883 0)
(20.5532 0.00266744 0)
(19.8831 0.0017178 0)
(19.3934 0.00124246 0)
(19.0407 0.000922467 0)
(18.7796 0.00071525 0)
(18.5774 0.000576059 0)
(18.4174 0.000474274 0)
(18.2888 0.000397761 0)
(18.1835 0.000339078 0)
(18.0962 0.000292839 0)
(18.0229 0.000255492 0)
(17.961 0.000224918 0)
(17.9081 0.000199487 0)
(17.8628 0.00017815 0)
(17.8235 0.000160016 0)
(17.7895 0.000144319 0)
(17.7598 0.00013084 0)
(17.7338 0.000119109 0)
(17.711 0.00010896 0)
(17.6907 9.99355e-05 0)
(17.6729 9.20257e-05 0)
(17.6569 8.50288e-05 0)
(17.6427 7.8756e-05 0)
(17.63 7.31892e-05 0)
(17.6187 6.81769e-05 0)
(17.6084 6.37211e-05 0)
(17.5992 5.96065e-05 0)
(17.5909 5.5975e-05 0)
(17.5833 5.25665e-05 0)
(17.5765 4.95223e-05 0)
(17.5702 4.65609e-05 0)
(17.5646 4.406e-05 0)
(17.5595 4.19193e-05 0)
(17.5548 3.93228e-05 0)
(17.5505 3.67531e-05 0)
(17.5467 3.43611e-05 0)
(17.5433 3.19119e-05 0)
(17.5403 2.87573e-05 0)
(17.5377 2.50716e-05 0)
(17.5356 2.13203e-05 0)
(17.5339 1.70734e-05 0)
(17.5326 1.15724e-05 0)
(17.532 4.78706e-06 0)
(17.532 -3.25443e-06 0)
(17.5326 -1.30778e-05 0)
(17.5341 -2.52812e-05 0)
(17.5365 -3.98786e-05 0)
(17.54 -5.75684e-05 0)
(17.5446 -7.88982e-05 0)
(17.5506 -0.00010492 0)
(17.5583 -0.000135761 0)
(17.5676 -0.00017284 0)
(17.5791 -0.000216898 0)
(17.5928 -0.000268995 0)
(17.6091 -0.000329518 0)
(17.6282 -0.000401884 0)
(17.6507 -0.000486011 0)
(17.6766 -0.000585342 0)
(17.7069 -0.000700911 0)
(17.7414 -0.000836794 0)
(17.7815 -0.000998096 0)
(17.8195 -0.00115626 0)
(17.8525 -0.00129417 0)
(17.8872 -0.00144388 0)
(17.9241 -0.00161259 0)
(17.9632 -0.0017948 0)
(18.0046 -0.00199301 0)
(18.0482 -0.00221151 0)
(18.0942 -0.00245261 0)
(18.1425 -0.00271977 0)
(18.1937 -0.00300897 0)
(18.247 -0.00334377 0)
(18.3042 -0.00369379 0)
(18.3627 -0.00412941 0)
(18.4275 -0.00454949 0)
(18.4909 -0.00516057 0)
(18.5666 -0.00564896 0)
(18.6337 -0.00659697 0)
(18.7272 -0.00711849 0)
(18.7943 -0.00877969 0)
(18.9201 -0.00942771 0)
(18.9815 -0.0117924 0)
(19.1584 -0.0159362 0)
(19.2437 -0.0135536 0)
(19.4377 -0.0504608 0)
(19.8399 -0.0652801 0)
(25.8988 0.020498 0)
(23.4029 0.00963759 0)
(22.4274 0.00371916 0)
(21.7686 0.00247015 0)
(21.2666 0.00181749 0)
(20.8978 0.00136042 0)
(20.622 0.00105977 0)
(20.407 0.000856243 0)
(20.236 0.00070642 0)
(20.0982 0.000593305 0)
(19.9851 0.00050632 0)
(19.8912 0.000437641 0)
(19.8122 0.00038208 0)
(19.7455 0.00033654 0)
(19.6884 0.000298625 0)
(19.6394 0.000266785 0)
(19.597 0.000239713 0)
(19.5602 0.000216267 0)
(19.5281 0.00019612 0)
(19.5 0.000178578 0)
(19.4752 0.000163394 0)
(19.4533 0.000149895 0)
(19.4339 0.000138054 0)
(19.4167 0.000127579 0)
(19.4013 0.000118186 0)
(19.3875 0.000109848 0)
(19.3752 0.000102339 0)
(19.3641 9.56607e-05 0)
(19.354 8.94979e-05 0)
(19.345 8.40489e-05 0)
(19.3368 7.8943e-05 0)
(19.3294 7.43748e-05 0)
(19.3226 6.99374e-05 0)
(19.3165 6.61669e-05 0)
(19.3109 6.29333e-05 0)
(19.3058 5.90435e-05 0)
(19.3012 5.51822e-05 0)
(19.2971 5.15697e-05 0)
(19.2934 4.78621e-05 0)
(19.2901 4.3139e-05 0)
(19.2873 3.75845e-05 0)
(19.285 3.18559e-05 0)
(19.2831 2.54007e-05 0)
(19.2818 1.70952e-05 0)
(19.2811 6.81603e-06 0)
(19.2811 -5.43926e-06 0)
(19.2818 -2.03161e-05 0)
(19.2834 -3.88129e-05 0)
(19.286 -6.10592e-05 0)
(19.2898 -8.79535e-05 0)
(19.2949 -0.000120356 0)
(19.3014 -0.000159873 0)
(19.3098 -0.000206748 0)
(19.3199 -0.000263067 0)
(19.3324 -0.000329972 0)
(19.3473 -0.000409116 0)
(19.3651 -0.000501093 0)
(19.3859 -0.000610973 0)
(19.4103 -0.000738686 0)
(19.4386 -0.000889539 0)
(19.4715 -0.00106489 0)
(19.509 -0.00127122 0)
(19.5525 -0.00151543 0)
(19.5938 -0.00175515 0)
(19.6296 -0.00196504 0)
(19.6673 -0.00219122 0)
(19.7074 -0.00244614 0)
(19.7497 -0.00272217 0)
(19.7946 -0.00302183 0)
(19.8417 -0.0033526 0)
(19.8916 -0.00371557 0)
(19.9438 -0.00411979 0)
(19.9992 -0.00455386 0)
(20.0567 -0.00506061 0)
(20.1184 -0.00558228 0)
(20.1812 -0.00624344 0)
(20.2511 -0.00686184 0)
(20.3189 -0.00779266 0)
(20.4003 -0.00849541 0)
(20.4717 -0.00994188 0)
(20.5719 -0.010669 0)
(20.6428 -0.0131659 0)
(20.7759 -0.0140548 0)
(20.8408 -0.0176632 0)
(21.0281 -0.0230897 0)
(21.1033 -0.0213146 0)
(21.3519 -0.0662225 0)
(21.5495 -0.0759375 0)
(26.928 0.0226565 0)
(24.9035 0.0119191 0)
(24.05 0.00489594 0)
(23.4256 0.003368 0)
(22.9245 0.00252863 0)
(22.5472 0.00191163 0)
(22.2612 0.00149773 0)
(22.0363 0.00121477 0)
(21.8565 0.00100478 0)
(21.7109 0.000845376 0)
(21.5911 0.000722385 0)
(21.4914 0.000625033 0)
(21.4075 0.000546121 0)
(21.3364 0.000481341 0)
(21.2756 0.000427348 0)
(21.2233 0.000381955 0)
(21.178 0.000343338 0)
(21.1387 0.000309876 0)
(21.1044 0.000281096 0)
(21.0743 0.000256027 0)
(21.0478 0.000234309 0)
(21.0243 0.000215008 0)
(21.0036 0.000198063 0)
(20.9851 0.000183072 0)
(20.9686 0.000169626 0)
(20.9538 0.000157685 0)
(20.9406 0.000146931 0)
(20.9287 0.00013736 0)
(20.9179 0.000128534 0)
(20.9082 0.000120716 0)
(20.8994 0.000113403 0)
(20.8914 0.000106849 0)
(20.8842 0.000100493 0)
(20.8776 9.50593e-05 0)
(20.8716 9.03913e-05 0)
(20.8661 8.48205e-05 0)
(20.8612 7.92765e-05 0)
(20.8567 7.40679e-05 0)
(20.8527 6.87046e-05 0)
(20.8492 6.19563e-05 0)
(20.8461 5.39782e-05 0)
(20.8437 4.56386e-05 0)
(20.8417 3.62833e-05 0)
(20.8402 2.43364e-05 0)
(20.8395 9.51258e-06 0)
(20.8394 -8.26531e-06 0)
(20.8402 -2.97495e-05 0)
(20.8419 -5.64125e-05 0)
(20.8447 -8.86481e-05 0)
(20.8487 -0.000127608 0)
(20.8541 -0.000174467 0)
(20.8611 -0.000231578 0)
(20.87 -0.000299381 0)
(20.8809 -0.000380792 0)
(20.8942 -0.000477479 0)
(20.9101 -0.000591889 0)
(20.9291 -0.000724899 0)
(20.9513 -0.000883649 0)
(20.9774 -0.00106812 0)
(21.0075 -0.00128605 0)
(21.0427 -0.00153919 0)
(21.0827 -0.00183716 0)
(21.1291 -0.00218885 0)
(21.1731 -0.00253429 0)
(21.2112 -0.00283792 0)
(21.2513 -0.00316316 0)
(21.294 -0.00352915 0)
(21.339 -0.00392645 0)
(21.3867 -0.00435697 0)
(21.4368 -0.00483271 0)
(21.4897 -0.00535199 0)
(21.5451 -0.00593267 0)
(21.6038 -0.00655171 0)
(21.6645 -0.00727932 0)
(21.7299 -0.00801843 0)
(21.7961 -0.00896858 0)
(21.8698 -0.00983569 0)
(21.941 -0.0111737 0)
(22.0267 -0.0121424 0)
(22.1013 -0.0142153 0)
(22.206 -0.0152001 0)
(22.2801 -0.0187199 0)
(22.4177 -0.0199062 0)
(22.4848 -0.0251199 0)
(22.6801 -0.0316255 0)
(22.7411 -0.0321556 0)
(23.0403 -0.0803243 0)
(23.0736 -0.0975113 0)
(27.7876 0.024199 0)
(26.195 0.0141647 0)
(25.4871 0.00615533 0)
(24.9184 0.00440458 0)
(24.4319 0.00338633 0)
(24.0539 0.00259143 0)
(23.7625 0.00204483 0)
(23.5308 0.00166641 0)
(23.3441 0.00138278 0)
(23.1921 0.00116599 0)
(23.0666 0.000998001 0)
(22.9619 0.000864603 0)
(22.8735 0.000756205 0)
(22.7985 0.000667045 0)
(22.7343 0.000592628 0)
(22.679 0.000529974 0)
(22.6311 0.000476633 0)
(22.5894 0.000430382 0)
(22.553 0.00039056 0)
(22.521 0.000355854 0)
(22.4929 0.000325761 0)
(22.468 0.000299019 0)
(22.4459 0.000275523 0)
(22.4262 0.000254733 0)
(22.4087 0.000236077 0)
(22.3929 0.000219504 0)
(22.3788 0.000204574 0)
(22.3661 0.00019128 0)
(22.3547 0.000179028 0)
(22.3443 0.000168154 0)
(22.3349 0.000158001 0)
(22.3265 0.000148886 0)
(22.3187 0.000140063 0)
(22.3117 0.000132475 0)
(22.3053 0.000125944 0)
(22.2994 0.000118212 0)
(22.2941 0.000110501 0)
(22.2894 0.000103231 0)
(22.2851 9.57132e-05 0)
(22.2813 8.63818e-05 0)
(22.2781 7.53083e-05 0)
(22.2754 6.35729e-05 0)
(22.2733 5.04623e-05 0)
(22.2717 3.38574e-05 0)
(22.2709 1.3218e-05 0)
(22.2708 -1.1668e-05 0)
(22.2716 -4.16705e-05 0)
(22.2733 -7.87739e-05 0)
(22.2763 -0.0001238 0)
(22.2804 -0.000178309 0)
(22.2861 -0.000243752 0)
(22.2935 -0.000323426 0)
(22.3028 -0.000418086 0)
(22.3143 -0.000531672 0)
(22.3283 -0.000666533 0)
(22.345 -0.000826144 0)
(22.365 -0.00101178 0)
(22.3883 -0.00123312 0)
(22.4158 -0.00149024 0)
(22.4475 -0.001794 0)
(22.4844 -0.0021466 0)
(22.5265 -0.00256174 0)
(22.5753 -0.0030504 0)
(22.6215 -0.00353041 0)
(22.6615 -0.00395393 0)
(22.7036 -0.00440536 0)
(22.7484 -0.00491197 0)
(22.7956 -0.00546313 0)
(22.8455 -0.00605942 0)
(22.8979 -0.00671895 0)
(22.9533 -0.00743518 0)
(23.0111 -0.00823864 0)
(23.0724 -0.00908985 0)
(23.1357 -0.0100953 0)
(23.2038 -0.0111057 0)
(23.2725 -0.0124175 0)
(23.3492 -0.0135934 0)
(23.4229 -0.0154355 0)
(23.5115 -0.016735 0)
(23.5886 -0.019571 0)
(23.6961 -0.0208832 0)
(23.7726 -0.0256266 0)
(23.9125 -0.0271729 0)
(23.9811 -0.034416 0)
(24.1811 -0.0416707 0)
(24.2294 -0.0464081 0)
(24.5606 -0.0939826 0)
(24.5072 -0.124625 0)
(28.532 0.024972 0)
(27.3275 0.0162857 0)
(26.7783 0.00743766 0)
(26.2841 0.00555962 0)
(25.826 0.00439476 0)
(25.456 0.00341338 0)
(25.1644 0.00271728 0)
(24.9293 0.00222759 0)
(24.7379 0.00185594 0)
(24.5811 0.0015694 0)
(24.4509 0.0013461 0)
(24.3419 0.00116806 0)
(24.2496 0.00102293 0)
(24.1711 0.00090325 0)
(24.1037 0.000803179 0)
(24.0457 0.000718777 0)
(23.9953 0.000646841 0)
(23.9514 0.000584417 0)
(23.913 0.0005306 0)
(23.8793 0.000483665 0)
(23.8496 0.000442922 0)
(23.8233 0.000406719 0)
(23.7999 0.000374878 0)
(23.7791 0.000346699 0)
(23.7605 0.000321397 0)
(23.7439 0.000298914 0)
(23.7289 0.000278652 0)
(23.7155 0.000260597 0)
(23.7033 0.000243968 0)
(23.6924 0.00022918 0)
(23.6824 0.000215397 0)
(23.6734 0.000203001 0)
(23.6651 0.000191031 0)
(23.6577 0.000180672 0)
(23.6509 0.000171739 0)
(23.6446 0.000161245 0)
(23.639 0.000150766 0)
(23.634 0.000140857 0)
(23.6294 0.000130557 0)
(23.6254 0.000117956 0)
(23.6219 0.000102973 0)
(23.619 8.68723e-05 0)
(23.6167 6.89462e-05 0)
(23.6151 4.64454e-05 0)
(23.6141 1.84531e-05 0)
(23.614 -1.54575e-05 0)
(23.6147 -5.63171e-05 0)
(23.6165 -0.00010664 0)
(23.6195 -0.00016783 0)
(23.6238 -0.000242081 0)
(23.6297 -0.000331134 0)
(23.6373 -0.000439414 0)
(23.647 -0.000568102 0)
(23.6589 -0.000722429 0)
(23.6734 -0.000905603 0)
(23.6908 -0.00112241 0)
(23.7116 -0.00137469 0)
(23.7359 -0.00167517 0)
(23.7645 -0.00202409 0)
(23.7974 -0.00243627 0)
(23.8358 -0.00291439 0)
(23.8795 -0.00347736 0)
(23.9302 -0.0041384 0)
(23.9781 -0.00478745 0)
(24.0196 -0.00536209 0)
(24.0633 -0.0059723 0)
(24.1096 -0.00665466 0)
(24.1585 -0.00739837 0)
(24.2102 -0.00820183 0)
(24.2644 -0.0090911 0)
(24.3216 -0.0100523 0)
(24.3812 -0.0111328 0)
(24.4445 -0.012272 0)
(24.5096 -0.0136212 0)
(24.5797 -0.0149668 0)
(24.6504 -0.0167226 0)
(24.7289 -0.0182802 0)
(24.8046 -0.0207319 0)
(24.8947 -0.0224462 0)
(24.9739 -0.0261891 0)
(25.0823 -0.0279213 0)
(25.161 -0.0341018 0)
(25.3011 -0.0360902 0)
(25.371 -0.0458063 0)
(25.5718 -0.0535327 0)
(25.613 -0.0640143 0)
(25.9516 -0.10914 0)
(25.8779 -0.153276 0)
(29.1963 0.0247857 0)
(28.3366 0.0181776 0)
(27.9492 0.00866344 0)
(27.5449 0.00679382 0)
(27.1292 0.00554636 0)
(26.7766 0.00438548 0)
(26.4908 0.00352942 0)
(26.2561 0.00291486 0)
(26.0627 0.00244098 0)
(25.9028 0.00207158 0)
(25.7692 0.00178161 0)
(25.6567 0.00154917 0)
(25.5612 0.00135891 0)
(25.4797 0.00120151 0)
(25.4095 0.00106959 0)
(25.349 0.000958066 0)
(25.2963 0.000862872 0)
(25.2504 0.000780181 0)
(25.2101 0.000708774 0)
(25.1747 0.000646444 0)
(25.1435 0.000592264 0)
(25.1158 0.000544112 0)
(25.0913 0.000501717 0)
(25.0693 0.000464187 0)
(25.0497 0.000430461 0)
(25.0322 0.000400479 0)
(25.0164 0.000373449 0)
(25.0022 0.000349344 0)
(24.9893 0.000327155 0)
(24.9777 0.000307381 0)
(24.9672 0.000288982 0)
(24.9576 0.000272408 0)
(24.9489 0.000256445 0)
(24.941 0.000242544 0)
(24.9338 0.000230527 0)
(24.9272 0.000216525 0)
(24.9212 0.000202532 0)
(24.9158 0.00018927 0)
(24.911 0.000175395 0)
(24.9067 0.000158677 0)
(24.903 0.000138801 0)
(24.8999 0.000117145 0)
(24.8975 9.30936e-05 0)
(24.8956 6.31919e-05 0)
(24.8946 2.59935e-05 0)
(24.8943 -1.92454e-05 0)
(24.895 -7.37937e-05 0)
(24.8968 -0.000140725 0)
(24.8998 -0.000222147 0)
(24.9042 -0.000321165 0)
(24.9102 -0.000439876 0)
(24.918 -0.000584059 0)
(24.9279 -0.000755424 0)
(24.9401 -0.000960807 0)
(24.9551 -0.00120447 0)
(24.973 -0.00149289 0)
(24.9943 -0.00182867 0)
(25.0193 -0.00222815 0)
(25.0487 -0.00269182 0)
(25.0826 -0.00323946 0)
(25.1221 -0.00387429 0)
(25.167 -0.00462171 0)
(25.2191 -0.00549744 0)
(25.2683 -0.00635648 0)
(25.3109 -0.00711928 0)
(25.3558 -0.00792716 0)
(25.4033 -0.00882691 0)
(25.4534 -0.00980883 0)
(25.5064 -0.0108684 0)
(25.5618 -0.0120414 0)
(25.6203 -0.013304 0)
(25.6813 -0.0147249 0)
(25.7458 -0.0162179 0)
(25.8122 -0.0179863 0)
(25.8835 -0.0197439 0)
(25.9554 -0.0220351 0)
(26.0349 -0.0240643 0)
(26.1119 -0.027239 0)
(26.2026 -0.0294757 0)
(26.2833 -0.0342741 0)
(26.3914 -0.0365524 0)
(26.4719 -0.0443835 0)
(26.6103 -0.0469444 0)
(26.6818 -0.0595227 0)
(26.8789 -0.0676817 0)
(26.9197 -0.0847071 0)
(27.2457 -0.127523 0)
(27.183 -0.182387 0)
(29.8045 0.0234105 0)
(29.2491 0.0197175 0)
(29.0189 0.00973284 0)
(28.7151 0.00804444 0)
(28.3548 0.00681599 0)
(28.0295 0.00550526 0)
(27.7566 0.00449019 0)
(27.527 0.00374261 0)
(27.3347 0.00315442 0)
(27.1738 0.00268939 0)
(27.0383 0.00232089 0)
(26.9235 0.00202347 0)
(26.8255 0.00177872 0)
(26.7415 0.00157537 0)
(26.669 0.00140441 0)
(26.6063 0.00125946 0)
(26.5515 0.00113548 0)
(26.5037 0.00102764 0)
(26.4618 0.000934321 0)
(26.4248 0.000852772 0)
(26.3922 0.000781769 0)
(26.3632 0.000718639 0)
(26.3374 0.000662987 0)
(26.3144 0.000613697 0)
(26.2938 0.00056936 0)
(26.2754 0.000529925 0)
(26.2588 0.000494353 0)
(26.2438 0.000462599 0)
(26.2303 0.000433384 0)
(26.218 0.000407291 0)
(26.2069 0.000383051 0)
(26.1968 0.000361181 0)
(26.1876 0.000340181 0)
(26.1793 0.000321777 0)
(26.1716 0.000305816 0)
(26.1646 0.000287376 0)
(26.1583 0.00026895 0)
(26.1526 0.000251452 0)
(26.1475 0.000233009 0)
(26.1429 0.000211127 0)
(26.139 0.000185174 0)
(26.1357 0.000156511 0)
(26.133 0.000124728 0)
(26.131 8.56008e-05 0)
(26.1298 3.69729e-05 0)
(26.1294 -2.23492e-05 0)
(26.1301 -9.39808e-05 0)
(26.1318 -0.000181618 0)
(26.1347 -0.000288177 0)
(26.1391 -0.000417944 0)
(26.1452 -0.000573554 0)
(26.1531 -0.000762358 0)
(26.1631 -0.000986758 0)
(26.1756 -0.00125556 0)
(26.1908 -0.00157422 0)
(26.209 -0.00195148 0)
(26.2307 -0.00239088 0)
(26.2562 -0.00291301 0)
(26.2862 -0.00351877 0)
(26.3207 -0.00423403 0)
(26.3609 -0.00506259 0)
(26.4067 -0.00603789 0)
(26.4597 -0.00717863 0)
(26.5098 -0.00829606 0)
(26.5531 -0.00929058 0)
(26.5987 -0.0103421 0)
(26.647 -0.0115085 0)
(26.6979 -0.0127823 0)
(26.7516 -0.0141557 0)
(26.8079 -0.0156748 0)
(26.8672 -0.0173054 0)
(26.9289 -0.0191398 0)
(26.9941 -0.0210641 0)
(27.0612 -0.0233374 0)
(27.133 -0.0255988 0)
(27.2057 -0.028527 0)
(27.2854 -0.0311366 0)
(27.3632 -0.0351578 0)
(27.4535 -0.0380485 0)
(27.5351 -0.0440551 0)
(27.6418 -0.0470491 0)
(27.7237 -0.0567265 0)
(27.8586 -0.0600875 0)
(27.9323 -0.0757816 0)
(28.1218 -0.0847017 0)
(28.1668 -0.108311 0)
(28.4693 -0.149887 0)
(28.4236 -0.212858 0)
(30.3748 0.0205755 0)
(30.0865 0.020762 0)
(30.0026 0.0105264 0)
(29.8046 0.00922251 0)
(29.5109 0.00815495 0)
(29.2231 0.00675366 0)
(28.9705 0.0055983 0)
(28.7515 0.00471949 0)
(28.5642 0.00400999 0)
(28.4051 0.00343882 0)
(28.2696 0.00298068 0)
(28.1538 0.00260756 0)
(28.0544 0.0022984 0)
(27.9687 0.00204011 0)
(27.8945 0.00182207 0)
(27.8299 0.00163652 0)
(27.7735 0.00147736 0)
(27.724 0.00133865 0)
(27.6805 0.00121833 0)
(27.6422 0.00111302 0)
(27.6082 0.00102114 0)
(27.578 0.000939394 0)
(27.5511 0.000867218 0)
(27.527 0.000803248 0)
(27.5055 0.000745635 0)
(27.4862 0.000694357 0)
(27.4688 0.000648071 0)
(27.453 0.000606703 0)
(27.4388 0.000568661 0)
(27.426 0.000534601 0)
(27.4142 0.000503005 0)
(27.4036 0.000474454 0)
(27.3939 0.000447135 0)
(27.3851 0.000423044 0)
(27.3771 0.000402053 0)
(27.3697 0.000378022 0)
(27.363 0.000354037 0)
(27.357 0.000331222 0)
(27.3515 0.000306969 0)
(27.3467 0.000278626 0)
(27.3425 0.000245171 0)
(27.3389 0.000207753 0)
(27.3361 0.00016628 0)
(27.3339 0.000115723 0)
(27.3325 5.30089e-05 0)
(27.332 -2.36719e-05 0)
(27.3325 -0.000116428 0)
(27.3341 -0.000229664 0)
(27.337 -0.000367249 0)
(27.3413 -0.000534878 0)
(27.3473 -0.000735955 0)
(27.3552 -0.00097974 0)
(27.3653 -0.00126951 0)
(27.3778 -0.0016164 0)
(27.3932 -0.00202726 0)
(27.4115 -0.00251382 0)
(27.4335 -0.00308068 0)
(27.4592 -0.00375337 0)
(27.4895 -0.00453359 0)
(27.5243 -0.00545445 0)
(27.565 -0.00652039 0)
(27.6112 -0.00777474 0)
(27.6647 -0.00923988 0)
(27.7152 -0.0106726 0)
(27.7589 -0.0119498 0)
(27.8049 -0.013299 0)
(27.8536 -0.0147901 0)
(27.9049 -0.0164185 0)
(27.9589 -0.018173 0)
(28.0155 -0.0201104 0)
(28.0751 -0.0221867 0)
(28.137 -0.024519 0)
(28.2023 -0.0269647 0)
(28.2697 -0.0298411 0)
(28.3414 -0.0327123 0)
(28.4143 -0.0363931 0)
(28.4935 -0.0397126 0)
(28.5715 -0.0447143 0)
(28.6608 -0.048425 0)
(28.7427 -0.0557882 0)
(28.8471 -0.0597281 0)
(28.9299 -0.0714024 0)
(29.0601 -0.0759242 0)
(29.1363 -0.0948157 0)
(29.3152 -0.105158 0)
(29.3666 -0.13488 0)
(29.6418 -0.176359 0)
(29.61 -0.245411 0)
(30.9212 0.01597 0)
(30.8664 0.0211446 0)
(30.9142 0.0109063 0)
(30.8217 0.0102122 0)
(30.6027 0.00948585 0)
(30.3619 0.00808805 0)
(30.1376 0.0068356 0)
(29.9353 0.0058431 0)
(29.7575 0.00501467 0)
(29.6035 0.00433207 0)
(29.4706 0.00377587 0)
(29.3557 0.00331761 0)
(29.2561 0.00293446 0)
(29.1698 0.00261204 0)
(29.0945 0.0023384 0)
(29.0287 0.00210441 0)
(28.971 0.00190295 0)
(28.9203 0.00172692 0)
(28.8756 0.00157376 0)
(28.836 0.00143944 0)
(28.8008 0.00132194 0)
(28.7695 0.00121727 0)
(28.7416 0.00112469 0)
(28.7166 0.00104256 0)
(28.6942 0.000968473 0)
(28.674 0.000902474 0)
(28.6558 0.000842849 0)
(28.6394 0.000789479 0)
(28.6245 0.000740416 0)
(28.611 0.00069638 0)
(28.5987 0.00065557 0)
(28.5876 0.000618639 0)
(28.5774 0.000583445 0)
(28.5681 0.000552214 0)
(28.5596 0.000524832 0)
(28.5519 0.000493786 0)
(28.5448 0.000462873 0)
(28.5384 0.000433424 0)
(28.5327 0.00040182 0)
(28.5276 0.000365416 0)
(28.5231 0.000322745 0)
(28.5193 0.000274479 0)
(28.5162 0.000220961 0)
(28.5138 0.000156322 0)
(28.5122 7.63586e-05 0)
(28.5115 -2.15559e-05 0)
(28.5118 -0.000140217 0)
(28.5133 -0.000284845 0)
(28.516 -0.000460442 0)
(28.5202 -0.000674368 0)