/*--------------------------------*- C++ -*----------------------------------*\
| =========                 |                                                 |
| \\      /  F ield         | OpenFOAM: The Open Source CFD Toolbox           |
|  \\    /   O peration     | Version:  2306                                  |
|   \\  /    A nd           | Website:  www.openfoam.com                      |
|    \\/     M anipulation  |                                                 |
\*---------------------------------------------------------------------------*/
FoamFile
{
    version     2.0;
    format      ascii;
    arch        "LSB;label=32;scalar=64";
    class       volVectorField;
    location    "1700";
    object      wallShearStress;
}
// * * * * * * * * * * * * * * * * * * * * * * * * * * * * * * * * * * * * * //

dimensions      [0 2 -2 0 0 0 0];

internalField   uniform (0 0 0);

boundaryField
{
    inlet
    {
        type            calculated;
        value           uniform (0 0 0);
    }
    outlet
    {
        type            calculated;
        value           uniform (0 0 0);
    }
    lowerWallStartup
    {
        type            symmetryPlane;
    }
    upperWallStartup
    {
        type            symmetryPlane;
    }
    upperWall
    {
        type            calculated;
        value           nonuniform List<vector> 
218
(
(-10.8988 0.00806132 0)
(-7.42475 0.000902259 0)
(-6.71677 0.000227246 0)
(-6.33736 0.00013139 0)
(-6.08964 8.85514e-05 0)
(-5.92012 6.34511e-05 0)
(-5.79817 4.80808e-05 0)
(-5.7057 3.80668e-05 0)
(-5.63357 3.09651e-05 0)
(-5.57612 2.57298e-05 0)
(-5.52949 2.17697e-05 0)
(-5.49105 1.86798e-05 0)
(-5.459 1.62131e-05 0)
(-5.43199 1.42016e-05 0)
(-5.40908 1.25467e-05 0)
(-5.38945 1.11591e-05 0)
(-5.37257 9.9914e-06 0)
(-5.35793 8.98128e-06 0)
(-5.34524 8.11616e-06 0)
(-5.33412 7.37452e-06 0)
(-5.32438 6.7217e-06 0)
(-5.31579 6.15612e-06 0)
(-5.3082 5.65555e-06 0)
(-5.30145 5.21249e-06 0)
(-5.29547 4.81639e-06 0)
(-5.29011 4.46776e-06 0)
(-5.28534 4.15203e-06 0)
(-5.28103 3.87322e-06 0)
(-5.27717 3.62059e-06 0)
(-5.27368 3.39508e-06 0)
(-5.27053 3.19349e-06 0)
(-5.26765 3.01103e-06 0)
(-5.26505 2.84611e-06 0)
(-5.26267 2.69939e-06 0)
(-5.26049 2.56934e-06 0)
(-5.25848 2.4604e-06 0)
(-5.25662 2.36686e-06 0)
(-5.2549 2.31105e-06 0)
(-5.25325 2.26796e-06 0)
(-5.2517 2.27176e-06 0)
(-5.25016 2.32968e-06 0)
(-5.24864 2.38288e-06 0)
(-5.24713 2.46418e-06 0)
(-5.24561 2.59689e-06 0)
(-5.24403 2.85719e-06 0)
(-5.24231 3.22737e-06 0)
(-5.24044 3.61822e-06 0)
(-5.23843 4.1214e-06 0)
(-5.23615 4.79104e-06 0)
(-5.2336 5.63144e-06 0)
(-5.23066 6.69009e-06 0)
(-5.2273 7.92617e-06 0)
(-5.22346 9.41981e-06 0)
(-5.21906 1.12058e-05 0)
(-5.21401 1.32318e-05 0)
(-5.20828 1.55849e-05 0)
(-5.20177 1.8266e-05 0)
(-5.19446 2.1318e-05 0)
(-5.18622 2.46895e-05 0)
(-5.17709 2.84406e-05 0)
(-5.16692 3.25022e-05 0)
(-5.15585 3.69741e-05 0)
(-5.14359 4.18691e-05 0)
(-5.13258 4.60149e-05 0)
(-5.12351 4.90939e-05 0)
(-5.11435 5.25386e-05 0)
(-5.10503 5.59964e-05 0)
(-5.0956 5.9329e-05 0)
(-5.08613 6.26536e-05 0)
(-5.07662 6.58705e-05 0)
(-5.06714 6.90671e-05 0)
(-5.05769 7.21131e-05 0)
(-5.04834 7.51511e-05 0)
(-5.03906 7.79813e-05 0)
(-5.02995 8.08385e-05 0)
(-5.02095 8.34258e-05 0)
(-5.01215 8.60998e-05 0)
(-5.00351 8.8456e-05 0)
(-4.99507 9.08939e-05 0)
(-4.9869 9.29866e-05 0)
(-4.97879 9.53218e-05 0)
(-4.97122 9.70507e-05 0)
(-4.96331 9.94609e-05 0)
(-4.95664 0.000100436 0)
(-4.94849 0.00010332 0)
(-4.94345 0.000104712 0)
(-4.93386 0.000108558 0)
(-4.93185 0.000154142 0)
(-4.92293 0.000214613 -1.24434e-20)
(-4.91571 0.00022773 0)
(-4.90991 0.000233633 1.23321e-20)
(-4.90369 0.000235561 -1.22765e-20)
(-4.89736 0.000235438 0)
(-4.89101 0.000234986 -1.2161e-20)
(-4.88459 0.000235568 0)
(-4.87811 0.000235355 0)
(-4.87155 0.000235878 0)
(-4.86495 0.000235672 0)
(-4.85825 0.000236035 1.18499e-20)
(-4.85153 0.000236379 0)
(-4.84468 0.000235989 -1.17165e-20)
(-4.83783 0.000236448 0)
(-4.83088 0.00023593 -1.1578e-20)
(-4.82391 0.000236358 1.15069e-20)
(-4.81685 0.000235905 0)
(-4.80976 0.000236124 1.13611e-20)
(-4.80259 0.000235993 0)
(-4.79539 0.000235243 -1.12103e-20)
(-4.78814 0.000235648 0)
(-4.78084 0.000234934 0)
(-4.7735 0.000235095 0)
(-4.76611 0.000234374 0)
(-4.75867 0.000234376 0)
(-4.75122 0.000233439 0)
(-4.7437 0.000233433 0)
(-4.73617 0.000232961 1.05609e-20)
(-4.72861 0.000231929 -1.04748e-20)
(-4.72102 0.000231978 1.03876e-20)
(-4.71339 0.000230825 -1.02995e-20)
(-4.70575 0.000230669 0)
(-4.69809 0.000229267 -1.01202e-20)
(-4.69041 0.000229143 0)
(-4.68272 0.00022776 -9.93711e-21)
(-4.67502 0.000227349 0)
(-4.66731 0.000226354 0)
(-4.65961 0.000225051 -9.65587e-21)
(-4.6519 0.000224467 0)
(-4.6442 0.00022285 -9.46428e-21)
(-4.6365 0.000222215 0)
(-4.62883 0.000220569 -9.26966e-21)
(-4.62116 0.000219926 0)
(-4.61351 0.000218179 -9.07223e-21)
(-4.60588 0.000217391 0)
(-4.59827 0.000216115 0)
(-4.59067 0.000214295 -8.77145e-21)
(-4.58312 0.000213605 0)
(-4.57558 0.000211603 -8.56818e-21)
(-4.56809 0.000210873 0)
(-4.56062 0.000208676 -8.363e-21)
(-4.5532 0.000207923 0)
(-4.5458 0.000205855 -8.15621e-21)
(-4.53847 0.000204768 0)
(-4.53116 0.000203128 0)
(-4.52393 0.000201172 -7.84349e-21)
(-4.51671 0.000200041 0)
(-4.5096 0.000197847 -7.63373e-21)
(-4.5025 0.000196593 0)
(-4.49551 0.000194513 -7.42326e-21)
(-4.48851 0.000193218 0)
(-4.48167 0.000191275 0)
(-4.47476 0.000189561 -7.10683e-21)
(-4.4681 0.000188558 -7.00122e-21)
(-4.46126 0.000185398 0)
(-4.45482 0.000185382 -6.79016e-21)
(-4.448 0.00018146 0)
(-4.44189 0.00018185 -6.57939e-21)
(-4.43503 0.000178123 0)
(-4.42923 0.000178125 -6.36919e-21)
(-4.42238 0.000174829 0)
(-4.41686 0.000174203 -6.15978e-21)
(-4.41007 0.000171918 -6.05569e-21)
(-4.40479 0.000169961 0)
(-4.39811 0.00016851 -5.8479e-21)
(-4.39303 0.00016613 0)
(-4.3865 0.000164947 -5.64145e-21)
(-4.38161 0.000162384 0)
(-4.37526 0.000161302 0)
(-4.37053 0.000159191 -5.3345e-21)
(-4.36438 0.000157271 5.23336e-21)
(-4.35981 0.000155858 -5.13229e-21)
(-4.35383 0.000153861 5.03212e-21)
(-4.34941 0.000152164 0)
(-4.34365 0.000150399 0)
(-4.33938 0.000148677 0)
(-4.33383 0.000146575 4.63608e-21)
(-4.32975 0.000145145 0)
(-4.32435 0.000143519 0)
(-4.3205 0.000141403 0)
(-4.3152 0.000140004 0)
(-4.31168 0.000138184 0)
(-4.30633 0.000136613 0)
(-4.30333 0.000135023 0)
(-4.29763 0.000133322 -3.87442e-21)
(-4.29561 0.000133148 3.78076e-21)
(-4.28867 9.83399e-05 0)
(-4.2877 9.97559e-05 0)
(-4.28438 8.82269e-05 -9.32013e-22)
(-4.28038 8.03817e-05 7.92116e-22)
(-4.27617 7.95124e-05 1.3405e-21)
(-4.27139 7.95973e-05 1.12825e-21)
(-4.26604 7.89345e-05 1.88714e-21)
(-4.26012 7.82192e-05 1.56617e-21)
(-4.25359 7.79635e-05 1.28768e-21)
(-4.24651 7.75607e-05 0)
(-4.23887 7.70545e-05 1.67661e-21)
(-4.23078 7.77945e-05 0)
(-4.2223 7.80289e-05 -2.02267e-21)
(-4.21363 7.99035e-05 0)
(-4.20496 8.10958e-05 0)
(-4.19673 8.38779e-05 0)
(-4.189 8.73449e-05 0)
(-4.18271 9.21359e-05 0)
(-4.17762 9.62274e-05 0)
(-4.17512 0.000101148 -1.49066e-21)
(-4.17477 0.000104551 0)
(-4.17737 0.000106478 5.59666e-21)
(-4.18351 0.000103935 -6.13904e-21)
(-4.19127 9.89988e-05 6.20392e-21)
(-4.20465 8.03267e-05 0)
(-4.21574 6.35713e-05 1.10128e-20)
(-4.23632 7.2122e-06 0)
(-4.24553 -1.13804e-05 0)
(-4.2756 -0.000182495 0)
(-4.2759 -0.000129222 0)
(-4.32582 -0.00073586 0)
(-4.30215 -0.000157764 0)
(-4.42124 -0.00335276 -3.68087e-20)
(-4.08347 -0.0015151 0)
)
;
    }
    lowerWall
    {
        type            calculated;
        value           nonuniform List<vector> 
266
(
(-11.0051 -0.00835512 0)
(-7.46813 -0.000955836 0)
(-6.74594 -0.000240377 0)
(-6.36348 -0.0001385 0)
(-6.11314 -9.36817e-05 0)
(-5.9414 -6.73207e-05 0)
(-5.81761 -5.11061e-05 0)
(-5.72365 -4.05166e-05 0)
(-5.65026 -3.29948e-05 0)
(-5.59177 -2.74479e-05 0)
(-5.54421 -2.32456e-05 0)
(-5.505 -1.99696e-05 0)
(-5.47224 -1.7348e-05 0)
(-5.44465 -1.5216e-05 0)
(-5.42116 -1.34554e-05 0)
(-5.40107 -1.19849e-05 0)
(-5.38372 -1.07386e-05 0)
(-5.36872 -9.66564e-06 0)
(-5.35564 -8.74748e-06 0)
(-5.34421 -7.95104e-06 0)
(-5.33417 -7.26503e-06 0)
(-5.3253 -6.65321e-06 0)
(-5.31747 -6.12043e-06 0)
(-5.31049 -5.651e-06 0)
(-5.30429 -5.22755e-06 0)
(-5.29874 -4.8553e-06 0)
(-5.29378 -4.51884e-06 0)
(-5.28931 -4.2218e-06 0)
(-5.28529 -3.94509e-06 0)
(-5.28166 -3.70327e-06 0)
(-5.27837 -3.47669e-06 0)
(-5.2754 -3.27497e-06 0)
(-5.27269 -3.07626e-06 0)
(-5.27026 -2.91591e-06 0)
(-5.26799 -2.78799e-06 0)
(-5.26595 -2.60987e-06 0)
(-5.2641 -2.43696e-06 0)
(-5.26244 -2.28645e-06 0)
(-5.26093 -2.12705e-06 0)
(-5.2596 -1.92856e-06 0)
(-5.25846 -1.69822e-06 0)
(-5.25751 -1.46651e-06 0)
(-5.25672 -1.21758e-06 0)
(-5.25614 -8.86535e-07 0)
(-5.25579 -4.80384e-07 0)
(-5.25569 -2.34648e-08 0)
(-5.25587 5.62628e-07 0)
(-5.25638 1.27919e-06 0)
(-5.25725 2.13318e-06 0)
(-5.25853 3.16757e-06 0)
(-5.26029 4.40372e-06 0)
(-5.26258 5.94431e-06 0)
(-5.26553 7.75021e-06 0)
(-5.26914 9.91256e-06 0)
(-5.27359 1.25008e-05 0)
(-5.27891 1.55631e-05 0)
(-5.28529 1.91011e-05 0)
(-5.29274 2.33414e-05 0)
(-5.30156 2.82917e-05 0)
(-5.31172 3.41066e-05 0)
(-5.32361 4.09628e-05 0)
(-5.33717 4.89356e-05 0)
(-5.35293 5.86208e-05 0)
(-5.36794 6.8135e-05 0)
(-5.38093 7.61163e-05 0)
(-5.39463 8.53147e-05 0)
(-5.40927 9.53772e-05 0)
(-5.42477 0.000106186 0)
(-5.44117 0.000118121 0)
(-5.45848 0.000131185 0)
(-5.47677 0.000146048 0)
(-5.49609 0.000161924 0)
(-5.51646 0.000180058 0)
(-5.53792 0.000199719 0)
(-5.56069 0.000222655 0)
(-5.5845 0.000247115 0)
(-5.61024 0.000277285 0)
(-5.63655 0.000308643 0)
(-5.66651 0.000351005 0)
(-5.6952 0.000392261 0)
(-5.73225 0.000456594 0)
(-5.76183 0.000519671 0)
(-5.81391 0.000632725 0)
(-5.83973 0.000695605 0)
(-5.92022 0.00115083 0)
(-5.95785 0.000980034 0)
(-6.06015 0.00214296 0)
(-6.18739 0.071516 0)
(1.05254 -5.54023 0)
(-0.022424 -0.00388223 0)
(-0.0122511 -0.000579997 1.40461e-23)
(-0.00602083 0.000308441 -1.2295e-23)
(-0.00430167 0.000450596 -0)
(-0.00532883 0.000643543 0)
(-0.00504134 0.00081544 0)
(-0.00474289 0.000953579 0)
(-0.00465349 0.00107882 0)
(-0.00461099 0.00120773 -2.99601e-22)
(-0.00451734 0.00134626 3.49716e-22)
(-0.00436249 0.00149782 -8.49084e-22)
(-0.00416015 0.00166773 1.10242e-21)
(-0.00391973 0.00186457 -0)
(-0.00364066 0.00210018 4.23866e-21)
(-0.00330902 0.00238827 -6.32918e-21)
(-0.00288742 0.00273844 -0)
(-0.00229465 0.00313965 0)
(-0.00137178 0.00352635 -0)
(0.000182455 0.00371447 2.10267e-19)
(0.0028964 0.00316846 -3.89508e-19)
(0.0070738 0.000391779 1.17352e-18)
(0.0112809 -0.00612378 -1.10668e-18)
(0.0128298 -0.0150658 0)
(0.0122118 -0.0234102 1.17521e-18)
(0.0111229 -0.0299359 -1.04654e-18)
(0.0102303 -0.0355168 0)
(0.00962797 -0.0399048 0)
(0.00946632 -0.0434661 0)
(0.00978362 -0.0464718 0)
(0.010558 -0.0490981 0)
(0.0117146 -0.0514555 0)
(0.0131601 -0.0535895 -8.36574e-19)
(0.0147725 -0.0555283 -1.21175e-22)
(0.0164419 -0.0572818 8.07376e-19)
(0.0180253 -0.058864 0)
(0.0191848 -0.0613367 0)
(0.0182378 -0.0725489 0)
(0.00831965 -0.111297 0)
(-0.0208113 -0.181339 0)
(-0.0643023 -0.241324 1.48704e-19)
(-0.120334 -0.303797 -1.2256e-19)
(-0.18036 -0.349453 -0)
(-0.239715 -0.379437 0)
(-0.296652 -0.396666 0)
(-0.350513 -0.404499 -9.60035e-20)
(-0.386787 -0.406191 1.08144e-19)
(-0.406601 -0.47602 0)
(-0.279733 -0.175198 0)
(-0.234744 -0.019258 -4.23109e-22)
(-0.0262677 -0.00417549 0)
(-0.0232265 5.84965e-05 -3.66505e-22)
(-0.00831597 0.000222076 0)
(0.0337895 0.000329533 0)
(0.0919981 -0.000739708 0)
(0.121058 -0.000554665 0)
(0.173481 -0.000274081 0)
(0.233605 -0.000311175 -2.49252e-22)
(0.302237 -0.000350403 0)
(0.379351 -0.000389736 0)
(0.464818 -0.000428373 0)
(0.558245 -0.000465787 0)
(0.659134 -0.000501683 0)
(0.766871 -0.000535832 0)
(0.880755 -0.000568053 0)
(1.00001 -0.000598146 0)
(1.12377 -0.000625891 0)
(1.25111 -0.000651032 0)
(1.38104 -0.000673295 2.49769e-22)
(1.51248 -0.000692379 0)
(1.64434 -0.000708022 2.4813e-22)
(1.77545 -0.000719945 0)
(1.90466 -0.000727952 2.45211e-22)
(2.03077 -0.000731877 0)
(2.15262 -0.000731652 2.40753e-22)
(2.26906 -0.000727263 0)
(2.379 -0.000718764 0)
(2.48137 -0.000706299 0)
(2.5752 -0.000690026 2.26553e-22)
(2.65959 -0.000670166 2.21851e-22)
(2.73373 -0.000646931 2.16693e-22)
(2.7969 -0.00062062 2.11093e-22)
(2.84848 -0.000591484 2.05067e-22)
(2.88797 -0.000559808 0)
(2.91496 -0.000525847 -0)
(2.92914 -0.000489788 1.84692e-22)
(2.93032 -0.000451987 1.77238e-22)
(2.91843 -0.000412505 1.69511e-22)
(2.89346 -0.000371537 1.61554e-22)
(2.85551 -0.000329145 1.53406e-22)
(2.80475 -0.000285322 1.4511e-22)
(2.74145 -0.000239671 0)
(2.66585 -0.000192437 1.28245e-22)
(2.57839 -0.000143131 1.1976e-22)
(2.47936 -9.13482e-05 1.11295e-22)
(2.36928 -3.68564e-05 1.02891e-22)
(2.24855 2.08572e-05 9.45841e-23)
(2.11774 8.2141e-05 8.6411e-23)
(1.97732 0.000147813 0)
(1.8278 0.000218603 7.05944e-23)
(1.66953 0.000295544 6.30073e-23)
(1.50293 0.000379095 5.567e-23)
(1.32826 0.00046973 4.86023e-23)
(1.14615 0.00056731 4.18295e-23)
(0.956509 0.000672522 3.53585e-23)
(0.760572 0.000784479 0)
(0.556928 0.000904264 2.33947e-23)
(0.348951 0.0016833 0)
(0.168459 0.000649243 0)
(-0.0799438 0.000437007 0)
(-0.28433 0.000979642 -3.65421e-24)
(-0.477365 0.000859177 -0)
(-0.662825 0.000756802 -0)
(-0.83908 0.000665352 0)
(-1.00741 0.000584385 -0)
(-1.1676 0.000513622 0)
(-1.32026 0.000451974 -0)
(-1.46555 0.000398822 2.17673e-23)
(-1.60389 0.000353116 0)
(-1.73555 0.00031404 0)
(-1.86083 0.000280701 -0)
(-1.98003 0.000252364 3.19968e-23)
(-2.09342 0.000228292 0)
(-2.20128 0.000207893 0)
(-2.30386 0.000190562 -0)
(-2.4014 0.000175863 0)
(-2.49413 0.000163283 -0)
(-2.5823 0.000152627 -0)
(-2.66607 0.000143353 4.35431e-23)
(-2.74574 0.000135599 0)
(-2.82137 0.000128455 -0)
(-2.89335 0.000122856 4.65375e-23)
(-2.96155 0.000116855 -0)
(-3.02664 0.000113235 4.80271e-23)
(-3.088 0.000107219 0)
(-3.14702 0.000106195 0)
(-3.20195 9.81505e-05 -4.96049e-23)
(-3.25584 0.00010194 -0)
(-3.30438 8.79528e-05 5.02893e-23)
(-3.35457 0.00010133 0)
(-3.39572 7.59434e-05 -0)
(-3.44567 0.000101812 0)
(-3.47415 5.58516e-05 0)
(-3.53113 0.000119427 -0)
(-3.54434 3.54034e-05 5.07123e-23)
(-3.58153 0.000201102 0)
(-3.6235 9.41696e-05 -0)
(-3.64602 0.00015168 6.03373e-21)
(-3.68644 0.00012074 1.04368e-20)
(-3.71919 0.000126844 0)
(-3.7595 0.000121252 0)
(-3.79878 0.000121578 0)
(-3.84126 0.000121136 -0)
(-3.8839 0.000122358 0)
(-3.92744 0.000124945 -1.72476e-20)
(-3.97016 0.000129216 0)
(-4.01197 0.000135416 -2.49435e-20)
(-4.05104 0.000143658 2.10329e-20)
(-4.08777 0.000153628 0)
(-4.11939 0.000165347 0)
(-4.14831 0.000177642 0)
(-4.16949 0.000190449 3.97381e-20)
(-4.18961 0.000202112 -3.23933e-20)
(-4.19871 0.000212473 0)
(-4.2114 0.000220899 4.21436e-20)
(-4.20804 0.000226177 0)
(-4.21681 0.000232366 5.38346e-20)
(-4.20097 0.00023263 0)
(-4.21055 0.000243931 0)
(-4.18191 0.000239742 0)
(-4.19569 0.000269865 0)
(-4.15363 0.000255 0)
(-4.17051 0.000323425 1.09181e-19)
(-4.11511 0.00027398 -5.80766e-20)
(-4.12306 0.00041165 0)
(-4.06624 0.000281592 2.03234e-20)
(-4.01603 0.000519127 0)
(-4.03781 0.000110586 0)
)
;
    }
    front
    {
        type            empty;
    }
    back
    {
        type            empty;
    }
}


// ************************************************************************* //
