/*--------------------------------*- C++ -*----------------------------------*\
| =========                 |                                                 |
| \\      /  F ield         | OpenFOAM: The Open Source CFD Toolbox           |
|  \\    /   O peration     | Version:  2306                                  |
|   \\  /    A nd           | Website:  www.openfoam.com                      |
|    \\/     M anipulation  |                                                 |
\*---------------------------------------------------------------------------*/
FoamFile
{
    version     2.0;
    format      ascii;
    arch        "LSB;label=32;scalar=64";
    class       volScalarField;
    location    "1700";
    object      cp;
}
// * * * * * * * * * * * * * * * * * * * * * * * * * * * * * * * * * * * * * //

dimensions      [0 0 0 0 0 0 0];

internalField   nonuniform List<scalar> 
20540
(
0.244941
-0.0257202
0.243261
-0.0380687
0.2421
-0.0455694
0.241675
-0.0483023
0.241484
-0.0494119
0.24134
-0.0501331
0.241223
-0.0506789
0.241137
-0.0510792
0.241079
-0.0513684
0.24104
-0.0515759
0.241017
-0.0517184
0.241002
-0.0518034
0.240992
-0.0518337
0.24098
-0.0518093
0.240961
-0.0517281
0.240927
-0.0515866
0.240872
-0.0513801
0.240786
-0.0511028
0.240667
-0.0507484
0.240514
-0.0503116
0.24033
-0.0497891
0.240124
-0.04918
0.239909
-0.0484885
0.239694
-0.0477294
0.239427
-0.0468999
0.238974
-0.0458788
0.238305
-0.0444674
0.237583
-0.0428037
0.236841
-0.0412679
0.236031
-0.0399692
0.235365
-0.0390607
0.235026
-0.038631
0.235014
-0.0386598
0.235323
-0.0391489
0.235946
-0.0401097
0.236709
-0.041401
0.237418
-0.0428974
0.238115
-0.0445446
0.238788
-0.0459904
0.239271
-0.0470459
0.239562
-0.0478871
0.23979
-0.0486496
0.240016
-0.0493453
0.240237
-0.0499606
0.24044
-0.0504913
0.240612
-0.0509388
0.24075
-0.0513068
0.240852
-0.0516008
0.240921
-0.0518272
0.240965
-0.0519921
0.240992
-0.0521003
0.241007
-0.0521555
0.241018
-0.0521603
0.241029
-0.0521161
0.241046
-0.0520221
0.241074
-0.0518749
0.241117
-0.0516663
0.241181
-0.0513796
0.241272
-0.0509853
0.241395
-0.0504487
0.241548
-0.0497354
0.241749
-0.0486272
0.242184
-0.0459257
0.243355
-0.0386558
0.245042
-0.0268444
-0.103172
-0.0617712
-0.0682221
-0.070237
-0.0716038
-0.0739791
-0.076637
-0.0792836
-0.0819597
-0.0846379
-0.0872795
-0.0898693
-0.0924006
-0.0948664
-0.0972633
-0.0995892
-0.101844
-0.104027
-0.10614
-0.108183
-0.110158
-0.112066
-0.113909
-0.11569
-0.117409
-0.119068
-0.12067
-0.122216
-0.123708
-0.125148
-0.126537
-0.127877
-0.129171
-0.130419
-0.131624
-0.132787
-0.13391
-0.134994
-0.136043
-0.137058
-0.138042
-0.138996
-0.139923
-0.140828
-0.141712
-0.142579
-0.143433
-0.144279
-0.145121
-0.145965
-0.146816
-0.147681
-0.148566
-0.149478
-0.150426
-0.151416
-0.152459
-0.153563
-0.154739
-0.155998
-0.157352
-0.158819
-0.160406
-0.161851
-0.163049
-0.164276
-0.165544
-0.166853
-0.168204
-0.169598
-0.171036
-0.172522
-0.174054
-0.175641
-0.177274
-0.178973
-0.180716
-0.182551
-0.184421
-0.186446
-0.188482
-0.19082
-0.193083
-0.196008
-0.198602
-0.202757
-0.206271
-0.214811
-0.103178
-0.0617713
-0.068222
-0.0702369
-0.0716037
-0.0739791
-0.076637
-0.0792836
-0.0819597
-0.0846379
-0.0872795
-0.0898693
-0.0924006
-0.0948663
-0.0972633
-0.0995892
-0.101844
-0.104027
-0.10614
-0.108183
-0.110158
-0.112066
-0.113909
-0.11569
-0.117409
-0.119068
-0.12067
-0.122216
-0.123708
-0.125148
-0.126537
-0.127877
-0.129171
-0.130419
-0.131624
-0.132787
-0.13391
-0.134994
-0.136043
-0.137058
-0.138042
-0.138996
-0.139923
-0.140828
-0.141712
-0.142579
-0.143433
-0.144279
-0.145121
-0.145965
-0.146816
-0.147681
-0.148566
-0.149478
-0.150426
-0.151416
-0.152459
-0.153563
-0.154739
-0.155998
-0.157352
-0.158819
-0.160406
-0.161851
-0.163049
-0.164276
-0.165544
-0.166853
-0.168204
-0.169598
-0.171036
-0.172522
-0.174054
-0.175641
-0.177275
-0.178974
-0.180717
-0.182551
-0.184421
-0.186446
-0.188482
-0.190821
-0.193084
-0.196008
-0.198603
-0.202759
-0.206269
-0.21474
-0.103195
-0.0617719
-0.0682216
-0.0702366
-0.0716034
-0.0739789
-0.0766368
-0.0792835
-0.0819596
-0.0846378
-0.0872794
-0.0898692
-0.0924005
-0.0948663
-0.0972632
-0.0995892
-0.101844
-0.104027
-0.10614
-0.108183
-0.110158
-0.112066
-0.113909
-0.11569
-0.117409
-0.119068
-0.12067
-0.122216
-0.123708
-0.125148
-0.126537
-0.127877
-0.129171
-0.130419
-0.131624
-0.132787
-0.13391
-0.134994
-0.136043
-0.137058
-0.138042
-0.138996
-0.139923
-0.140828
-0.141712
-0.142579
-0.143433
-0.144279
-0.145121
-0.145965
-0.146816
-0.147681
-0.148566
-0.149479
-0.150426
-0.151416
-0.152459
-0.153563
-0.154739
-0.155998
-0.157352
-0.158819
-0.160406
-0.161851
-0.163049
-0.164276
-0.165544
-0.166854
-0.168205
-0.169599
-0.171037
-0.172522
-0.174055
-0.175641
-0.177275
-0.178974
-0.180717
-0.182552
-0.184422
-0.186447
-0.188484
-0.190823
-0.193086
-0.196011
-0.198605
-0.202765
-0.206263
-0.21459
-0.103227
-0.0617728
-0.0682212
-0.070236
-0.071603
-0.0739785
-0.0766366
-0.0792832
-0.0819594
-0.0846376
-0.0872793
-0.0898691
-0.0924005
-0.0948662
-0.0972632
-0.0995891
-0.101844
-0.104027
-0.10614
-0.108183
-0.110158
-0.112066
-0.113909
-0.11569
-0.117409
-0.119068
-0.12067
-0.122216
-0.123708
-0.125148
-0.126537
-0.127877
-0.129171
-0.130419
-0.131624
-0.132787
-0.13391
-0.134994
-0.136043
-0.137058
-0.138042
-0.138996
-0.139923
-0.140828
-0.141712
-0.142579
-0.143433
-0.144279
-0.145121
-0.145965
-0.146817
-0.147681
-0.148566
-0.149479
-0.150426
-0.151417
-0.152459
-0.153563
-0.154739
-0.155999
-0.157353
-0.158819
-0.160406
-0.161852
-0.16305
-0.164277
-0.165545
-0.166854
-0.168205
-0.169599
-0.171038
-0.172523
-0.174056
-0.175643
-0.177277
-0.178976
-0.180719
-0.182554
-0.184424
-0.18645
-0.188486
-0.190826
-0.193089
-0.196015
-0.198609
-0.202773
-0.206242
-0.214411
-0.103279
-0.0617752
-0.0682209
-0.0702352
-0.0716023
-0.073978
-0.0766361
-0.0792829
-0.0819591
-0.0846374
-0.0872791
-0.089869
-0.0924003
-0.0948661
-0.0972631
-0.099589
-0.101844
-0.104027
-0.106139
-0.108183
-0.110158
-0.112066
-0.113909
-0.11569
-0.117409
-0.119068
-0.12067
-0.122216
-0.123708
-0.125148
-0.126537
-0.127877
-0.129171
-0.130419
-0.131624
-0.132787
-0.13391
-0.134994
-0.136043
-0.137058
-0.138042
-0.138996
-0.139923
-0.140828
-0.141712
-0.142579
-0.143433
-0.144279
-0.145121
-0.145965
-0.146817
-0.147681
-0.148566
-0.149479
-0.150426
-0.151417
-0.152459
-0.153563
-0.154739
-0.155999
-0.157353
-0.15882
-0.160407
-0.161852
-0.163051
-0.164278
-0.165546
-0.166855
-0.168207
-0.169601
-0.171039
-0.172525
-0.174058
-0.175645
-0.177279
-0.178978
-0.180722
-0.182557
-0.184427
-0.186454
-0.18849
-0.190831
-0.193094
-0.196021
-0.198613
-0.202781
-0.206203
-0.21419
-0.10336
-0.0617804
-0.0682215
-0.0702346
-0.0716015
-0.0739773
-0.0766356
-0.0792824
-0.0819587
-0.0846371
-0.0872788
-0.0898687
-0.0924001
-0.0948659
-0.0972629
-0.0995889
-0.101844
-0.104027
-0.106139
-0.108183
-0.110158
-0.112066
-0.113909
-0.11569
-0.117409
-0.119068
-0.12067
-0.122216
-0.123708
-0.125148
-0.126537
-0.127877
-0.129171
-0.130419
-0.131624
-0.132787
-0.133909
-0.134994
-0.136043
-0.137058
-0.138042
-0.138996
-0.139923
-0.140828
-0.141712
-0.142579
-0.143433
-0.144279
-0.145121
-0.145965
-0.146817
-0.147681
-0.148566
-0.149479
-0.150426
-0.151417
-0.152459
-0.153564
-0.154739
-0.155999
-0.157354
-0.15882
-0.160408
-0.161853
-0.163052
-0.164279
-0.165547
-0.166857
-0.168208
-0.169602
-0.171041
-0.172527
-0.17406
-0.175647
-0.177281
-0.178981
-0.180725
-0.18256
-0.184431
-0.186458
-0.188494
-0.190836
-0.193099
-0.196028
-0.198616
-0.202786
-0.206143
-0.213895
-0.103473
-0.0617897
-0.0682236
-0.0702344
-0.0716008
-0.0739766
-0.0766349
-0.0792818
-0.0819582
-0.0846367
-0.0872785
-0.0898684
-0.0923999
-0.0948657
-0.0972627
-0.0995887
-0.101843
-0.104027
-0.106139
-0.108182
-0.110157
-0.112066
-0.113909
-0.11569
-0.117409
-0.119068
-0.12067
-0.122216
-0.123708
-0.125148
-0.126537
-0.127877
-0.129171
-0.130419
-0.131624
-0.132786
-0.133909
-0.134994
-0.136043
-0.137058
-0.138042
-0.138996
-0.139923
-0.140828
-0.141712
-0.142579
-0.143433
-0.144279
-0.145121
-0.145965
-0.146817
-0.147682
-0.148567
-0.149479
-0.150426
-0.151417
-0.15246
-0.153564
-0.15474
-0.156
-0.157354
-0.158821
-0.160408
-0.161854
-0.163053
-0.16428
-0.165549
-0.166858
-0.16821
-0.169604
-0.171043
-0.172529
-0.174062
-0.17565
-0.177284
-0.178985
-0.180728
-0.182564
-0.184435
-0.186463
-0.188499
-0.190842
-0.193104
-0.196033
-0.198617
-0.202781
-0.206059
-0.213505
-0.103625
-0.061805
-0.0682281
-0.070235
-0.0716002
-0.0739758
-0.0766341
-0.0792811
-0.0819576
-0.0846362
-0.087278
-0.0898681
-0.0923995
-0.0948654
-0.0972625
-0.0995885
-0.101843
-0.104027
-0.106139
-0.108182
-0.110157
-0.112066
-0.113909
-0.115689
-0.117409
-0.119068
-0.12067
-0.122216
-0.123708
-0.125148
-0.126537
-0.127877
-0.129171
-0.130419
-0.131624
-0.132786
-0.133909
-0.134994
-0.136043
-0.137058
-0.138042
-0.138996
-0.139923
-0.140828
-0.141712
-0.142579
-0.143433
-0.144279
-0.145122
-0.145966
-0.146817
-0.147682
-0.148567
-0.149479
-0.150427
-0.151417
-0.15246
-0.153565
-0.154741
-0.156001
-0.157355
-0.158822
-0.16041
-0.161856
-0.163054
-0.164282
-0.16555
-0.16686
-0.168212
-0.169607
-0.171046
-0.172532
-0.174065
-0.175653
-0.177288
-0.178988
-0.180732
-0.182569
-0.18444
-0.186468
-0.188504
-0.190848
-0.193108
-0.196036
-0.198613
-0.202761
-0.205948
-0.213016
-0.103819
-0.0618279
-0.0682361
-0.0702371
-0.0716003
-0.0739752
-0.0766334
-0.0792804
-0.081957
-0.0846355
-0.0872775
-0.0898676
-0.0923991
-0.0948651
-0.0972621
-0.0995882
-0.101843
-0.104026
-0.106139
-0.108182
-0.110157
-0.112065
-0.113909
-0.115689
-0.117408
-0.119068
-0.12067
-0.122216
-0.123708
-0.125148
-0.126537
-0.127877
-0.129171
-0.130419
-0.131624
-0.132786
-0.133909
-0.134994
-0.136043
-0.137058
-0.138042
-0.138996
-0.139923
-0.140828
-0.141712
-0.142579
-0.143433
-0.144279
-0.145122
-0.145966
-0.146817
-0.147682
-0.148567
-0.149479
-0.150427
-0.151418
-0.152461
-0.153565
-0.154741
-0.156001
-0.157356
-0.158823
-0.160411
-0.161857
-0.163056
-0.164283
-0.165552
-0.166862
-0.168214
-0.169609
-0.171048
-0.172535
-0.174069
-0.175657
-0.177292
-0.178993
-0.180737
-0.182573
-0.184444
-0.186473
-0.188509
-0.190852
-0.193111
-0.196034
-0.198603
-0.202719
-0.205799
-0.212427
-0.104064
-0.0618604
-0.068249
-0.0702415
-0.0716013
-0.0739751
-0.0766328
-0.0792797
-0.0819562
-0.0846348
-0.0872769
-0.089867
-0.0923986
-0.0948646
-0.0972617
-0.0995879
-0.101843
-0.104026
-0.106139
-0.108182
-0.110157
-0.112065
-0.113909
-0.115689
-0.117408
-0.119068
-0.12067
-0.122216
-0.123708
-0.125147
-0.126537
-0.127877
-0.129171
-0.130419
-0.131623
-0.132786
-0.133909
-0.134994
-0.136043
-0.137058
-0.138042
-0.138996
-0.139923
-0.140828
-0.141712
-0.142579
-0.143433
-0.144279
-0.145122
-0.145966
-0.146817
-0.147682
-0.148567
-0.14948
-0.150427
-0.151418
-0.152461
-0.153566
-0.154742
-0.156002
-0.157357
-0.158824
-0.160412
-0.161859
-0.163058
-0.164285
-0.165554
-0.166865
-0.168217
-0.169612
-0.171051
-0.172538
-0.174072
-0.17566
-0.177295
-0.178997
-0.180741
-0.182578
-0.184449
-0.186477
-0.188512
-0.190855
-0.19311
-0.196025
-0.198583
-0.202646
-0.205601
-0.211738
-0.104364
-0.0619044
-0.0682681
-0.0702493
-0.0716041
-0.0739758
-0.0766326
-0.0792791
-0.0819555
-0.0846341
-0.0872762
-0.0898664
-0.092398
-0.0948641
-0.0972613
-0.0995874
-0.101842
-0.104026
-0.106138
-0.108182
-0.110157
-0.112065
-0.113909
-0.115689
-0.117408
-0.119068
-0.12067
-0.122216
-0.123708
-0.125147
-0.126537
-0.127877
-0.129171
-0.130419
-0.131623
-0.132786
-0.133909
-0.134994
-0.136043
-0.137058
-0.138042
-0.138996
-0.139923
-0.140828
-0.141712
-0.142579
-0.143433
-0.144279
-0.145122
-0.145966
-0.146817
-0.147682
-0.148567
-0.14948
-0.150428
-0.151419
-0.152462
-0.153566
-0.154743
-0.156003
-0.157358
-0.158826
-0.160414
-0.16186
-0.163059
-0.164287
-0.165556
-0.166867
-0.168219
-0.169615
-0.171054
-0.172541
-0.174075
-0.175664
-0.177299
-0.179
-0.180744
-0.182581
-0.184451
-0.18648
-0.188513
-0.190852
-0.193104
-0.196004
-0.198546
-0.202529
-0.205342
-0.210949
-0.104725
-0.0619622
-0.0682949
-0.0702616
-0.0716094
-0.0739781
-0.0766333
-0.0792789
-0.081955
-0.0846335
-0.0872755
-0.0898657
-0.0923974
-0.0948635
-0.0972607
-0.0995869
-0.101842
-0.104025
-0.106138
-0.108181
-0.110156
-0.112065
-0.113908
-0.115689
-0.117408
-0.119067
-0.120669
-0.122215
-0.123707
-0.125147
-0.126536
-0.127877
-0.12917
-0.130419
-0.131623
-0.132786
-0.133909
-0.134994
-0.136043
-0.137058
-0.138041
-0.138996
-0.139923
-0.140828
-0.141711
-0.142579
-0.143433
-0.144279
-0.145122
-0.145966
-0.146817
-0.147682
-0.148567
-0.14948
-0.150428
-0.151419
-0.152462
-0.153567
-0.154743
-0.156004
-0.157359
-0.158827
-0.160415
-0.161862
-0.163061
-0.164289
-0.165558
-0.166869
-0.168221
-0.169617
-0.171056
-0.172543
-0.174078
-0.175666
-0.177301
-0.179002
-0.180745
-0.182582
-0.184451
-0.186478
-0.188509
-0.190842
-0.193088
-0.195964
-0.198483
-0.202356
-0.205009
-0.210063
-0.105149
-0.0620365
-0.0683306
-0.0702799
-0.0716184
-0.0739826
-0.0766353
-0.0792797
-0.081955
-0.0846331
-0.0872749
-0.0898651
-0.0923967
-0.0948628
-0.0972601
-0.0995863
-0.101841
-0.104025
-0.106138
-0.108181
-0.110156
-0.112064
-0.113908
-0.115688
-0.117408
-0.119067
-0.120669
-0.122215
-0.123707
-0.125147
-0.126536
-0.127877
-0.12917
-0.130418
-0.131623
-0.132786
-0.133909
-0.134994
-0.136043
-0.137058
-0.138041
-0.138996
-0.139923
-0.140827
-0.141711
-0.142579
-0.143433
-0.144279
-0.145122
-0.145966
-0.146817
-0.147682
-0.148568
-0.14948
-0.150428
-0.151419
-0.152462
-0.153567
-0.154744
-0.156005
-0.15736
-0.158828
-0.160416
-0.161863
-0.163062
-0.16429
-0.165559
-0.16687
-0.168223
-0.169618
-0.171058
-0.172544
-0.174078
-0.175666
-0.177301
-0.179001
-0.180744
-0.182579
-0.184446
-0.186469
-0.188497
-0.19082
-0.193057
-0.195897
-0.198384
-0.202109
-0.204589
-0.209087
-0.105637
-0.0621303
-0.0683764
-0.0703054
-0.0716322
-0.0739904
-0.0766396
-0.0792818
-0.081956
-0.0846334
-0.0872748
-0.0898647
-0.0923962
-0.0948623
-0.0972595
-0.0995858
-0.101841
-0.104024
-0.106137
-0.10818
-0.110155
-0.112064
-0.113908
-0.115688
-0.117407
-0.119067
-0.120669
-0.122215
-0.123707
-0.125147
-0.126536
-0.127877
-0.12917
-0.130418
-0.131623
-0.132786
-0.133909
-0.134994
-0.136043
-0.137058
-0.138041
-0.138995
-0.139923
-0.140827
-0.141711
-0.142579
-0.143433
-0.144279
-0.145122
-0.145966
-0.146817
-0.147682
-0.148568
-0.14948
-0.150428
-0.151419
-0.152463
-0.153568
-0.154744
-0.156005
-0.15736
-0.158828
-0.160416
-0.161863
-0.163062
-0.16429
-0.165559
-0.16687
-0.168222
-0.169617
-0.171056
-0.172543
-0.174076
-0.175663
-0.177296
-0.178995
-0.180736
-0.182568
-0.184433
-0.18645
-0.188471
-0.190779
-0.193003
-0.195791
-0.198233
-0.201772
-0.204068
-0.208029
-0.106182
-0.0622476
-0.0684333
-0.0703393
-0.071652
-0.0740025
-0.076647
-0.0792862
-0.0819585
-0.0846347
-0.0872754
-0.0898648
-0.0923961
-0.0948619
-0.0972591
-0.0995853
-0.10184
-0.104024
-0.106136
-0.10818
-0.110155
-0.112063
-0.113907
-0.115688
-0.117407
-0.119067
-0.120668
-0.122215
-0.123707
-0.125146
-0.126536
-0.127876
-0.12917
-0.130418
-0.131623
-0.132786
-0.133909
-0.134994
-0.136043
-0.137058
-0.138041
-0.138995
-0.139923
-0.140827
-0.141711
-0.142578
-0.143433
-0.144279
-0.145122
-0.145966
-0.146817
-0.147682
-0.148568
-0.14948
-0.150428
-0.151419
-0.152462
-0.153567
-0.154744
-0.156004
-0.157359
-0.158827
-0.160415
-0.161861
-0.16306
-0.164288
-0.165557
-0.166867
-0.168219
-0.169613
-0.171051
-0.172537
-0.174069
-0.175654
-0.177285
-0.178981
-0.180719
-0.182546
-0.184406
-0.186413
-0.188426
-0.190709
-0.192912
-0.195629
-0.198008
-0.201323
-0.203433
-0.206894
-0.106768
-0.062393
-0.0685021
-0.0703825
-0.0716787
-0.07402
-0.0766586
-0.0792938
-0.0819634
-0.0846379
-0.0872773
-0.089866
-0.0923967
-0.0948622
-0.0972591
-0.0995851
-0.10184
-0.104023
-0.106136
-0.108179
-0.110155
-0.112063
-0.113907
-0.115687
-0.117406
-0.119066
-0.120668
-0.122214
-0.123706
-0.125146
-0.126535
-0.127876
-0.12917
-0.130418
-0.131623
-0.132785
-0.133908
-0.134994
-0.136042
-0.137058
-0.138041
-0.138995
-0.139923
-0.140827
-0.141711
-0.142578
-0.143433
-0.144279
-0.145121
-0.145965
-0.146817
-0.147682
-0.148567
-0.14948
-0.150427
-0.151419
-0.152461
-0.153566
-0.154742
-0.156003
-0.157357
-0.158825
-0.160412
-0.161857
-0.163056
-0.164283
-0.165551
-0.16686
-0.16821
-0.169603
-0.17104
-0.172524
-0.174053
-0.175636
-0.177263
-0.178955
-0.180687
-0.182507
-0.184358
-0.18635
-0.18835
-0.190596
-0.192769
-0.195389
-0.197687
-0.200743
-0.202671
-0.205683
-0.107368
-0.0625718
-0.0685837
-0.0704357
-0.071713
-0.0740437
-0.0766752
-0.0793055
-0.0819716
-0.0846436
-0.0872813
-0.0898687
-0.0923985
-0.0948634
-0.0972598
-0.0995855
-0.10184
-0.104023
-0.106136
-0.108179
-0.110154
-0.112063
-0.113907
-0.115687
-0.117406
-0.119066
-0.120668
-0.122214
-0.123706
-0.125146
-0.126535
-0.127876
-0.129169
-0.130418
-0.131622
-0.132785
-0.133908
-0.134993
-0.136042
-0.137057
-0.138041
-0.138995
-0.139923
-0.140827
-0.141711
-0.142578
-0.143432
-0.144279
-0.145121
-0.145965
-0.146816
-0.147681
-0.148566
-0.149479
-0.150426
-0.151417
-0.152459
-0.153564
-0.154739
-0.155999
-0.157353
-0.158819
-0.160406
-0.161849
-0.163046
-0.164273
-0.165539
-0.166846
-0.168195
-0.169585
-0.17102
-0.1725
-0.174025
-0.175603
-0.177225
-0.178909
-0.180633
-0.18244
-0.18428
-0.186248
-0.188227
-0.190421
-0.192551
-0.195047
-0.19724
-0.200013
-0.201765
-0.204388
-0.107945
-0.0627893
-0.0686788
-0.0704997
-0.0717553
-0.0740741
-0.0766977
-0.079322
-0.0819838
-0.0846527
-0.0872882
-0.0898738
-0.0924023
-0.0948662
-0.0972619
-0.0995871
-0.101841
-0.104024
-0.106137
-0.10818
-0.110155
-0.112063
-0.113907
-0.115687
-0.117406
-0.119066
-0.120668
-0.122214
-0.123706
-0.125146
-0.126535
-0.127876
-0.129169
-0.130417
-0.131622
-0.132785
-0.133908
-0.134993
-0.136042
-0.137057
-0.13804
-0.138995
-0.139922
-0.140827
-0.14171
-0.142578
-0.143432
-0.144278
-0.14512
-0.145964
-0.146815
-0.14768
-0.148565
-0.149477
-0.150424
-0.151414
-0.152456
-0.153559
-0.154734
-0.155993
-0.157345
-0.15881
-0.160394
-0.161835
-0.16303
-0.164254
-0.165518
-0.166822
-0.168167
-0.169554
-0.170984
-0.172459
-0.173978
-0.175548
-0.177161
-0.178833
-0.180545
-0.182333
-0.184154
-0.186088
-0.188035
-0.190159
-0.192226
-0.194571
-0.196637
-0.199114
-0.200699
-0.202992
-0.108449
-0.0630492
-0.068788
-0.0705749
-0.0718056
-0.0741113
-0.0767262
-0.0793439
-0.0820008
-0.084666
-0.0872986
-0.089882
-0.0924088
-0.0948713
-0.0972659
-0.0995903
-0.101844
-0.104026
-0.106138
-0.108181
-0.110156
-0.112064
-0.113907
-0.115687
-0.117406
-0.119066
-0.120668
-0.122214
-0.123706
-0.125146
-0.126535
-0.127876
-0.129169
-0.130417
-0.131622
-0.132785
-0.133908
-0.134993
-0.136042
-0.137057
-0.13804
-0.138995
-0.139922
-0.140826
-0.14171
-0.142577
-0.143431
-0.144277
-0.145119
-0.145963
-0.146814
-0.147678
-0.148562
-0.149473
-0.15042
-0.151409
-0.15245
-0.153552
-0.154725
-0.155982
-0.157332
-0.158793
-0.160374
-0.161811
-0.163003
-0.164224
-0.165483
-0.166783
-0.168123
-0.169504
-0.170927
-0.172393
-0.173903
-0.175461
-0.17706
-0.178715
-0.180407
-0.182168
-0.18396
-0.185846
-0.187745
-0.189778
-0.191758
-0.193926
-0.195842
-0.198028
-0.199452
-0.201469
-0.108821
-0.0633524
-0.0689114
-0.070662
-0.0718638
-0.0741551
-0.0767608
-0.0793714
-0.0820229
-0.0846839
-0.0873132
-0.0898939
-0.0924186
-0.0948794
-0.0972726
-0.0995958
-0.101848
-0.10403
-0.106141
-0.108184
-0.110158
-0.112066
-0.113909
-0.115689
-0.117408
-0.119067
-0.120669
-0.122215
-0.123707
-0.125146
-0.126536
-0.127876
-0.12917
-0.130418
-0.131622
-0.132785
-0.133908
-0.134993
-0.136042
-0.137057
-0.13804
-0.138994
-0.139922
-0.140826
-0.14171
-0.142576
-0.14343
-0.144276
-0.145118
-0.145961
-0.146811
-0.147674
-0.148558
-0.149468
-0.150413
-0.151401
-0.15244
-0.15354
-0.15471
-0.155964
-0.15731
-0.158767
-0.160342
-0.161773
-0.16296
-0.164176
-0.165428
-0.166721
-0.168052
-0.169424
-0.170836
-0.17229
-0.173785
-0.175325
-0.176904
-0.178532
-0.180196
-0.181917
-0.183667
-0.185487
-0.187317
-0.189236
-0.191102
-0.193074
-0.194822
-0.196731
-0.198001
-0.199782
-0.109001
-0.063696
-0.069048
-0.0707616
-0.0719296
-0.0742049
-0.0768008
-0.0794039
-0.0820497
-0.0847063
-0.087332
-0.0899099
-0.0924321
-0.0948909
-0.0972825
-0.0996043
-0.101856
-0.104036
-0.106147
-0.108188
-0.110162
-0.112069
-0.113912
-0.115692
-0.11741
-0.119069
-0.120671
-0.122217
-0.123708
-0.125148
-0.126537
-0.127877
-0.129171
-0.130419
-0.131623
-0.132786
-0.133909
-0.134994
-0.136043
-0.137058
-0.138041
-0.138995
-0.139922
-0.140826
-0.141709
-0.142576
-0.143429
-0.144274
-0.145115
-0.145958
-0.146807
-0.147669
-0.148551
-0.14946
-0.150403
-0.151388
-0.152425
-0.153521
-0.154688
-0.155936
-0.157277
-0.158727
-0.160293
-0.161714
-0.162893
-0.164101
-0.165344
-0.166625
-0.167944
-0.169302
-0.170697
-0.172132
-0.173605
-0.175118
-0.176667
-0.178258
-0.17988
-0.181545
-0.183233
-0.184967
-0.186703
-0.188484
-0.190209
-0.191974
-0.193539
-0.195193
-0.196315
-0.197888
-0.108931
-0.0640738
-0.0691946
-0.0708748
-0.0720025
-0.0742598
-0.0768455
-0.0794408
-0.0820806
-0.0847327
-0.0873548
-0.0899296
-0.0924493
-0.094906
-0.0972957
-0.0996159
-0.101866
-0.104045
-0.106155
-0.108196
-0.110168
-0.112075
-0.113917
-0.115696
-0.117414
-0.119073
-0.120674
-0.12222
-0.123711
-0.125151
-0.12654
-0.12788
-0.129173
-0.130421
-0.131625
-0.132788
-0.133911
-0.134995
-0.136044
-0.137059
-0.138042
-0.138995
-0.139923
-0.140826
-0.141709
-0.142575
-0.143428
-0.144272
-0.145112
-0.145953
-0.146801
-0.147662
-0.148542
-0.149448
-0.150388
-0.15137
-0.152401
-0.153493
-0.154653
-0.155894
-0.157226
-0.158665
-0.160218
-0.161625
-0.162792
-0.163987
-0.165215
-0.16648
-0.16778
-0.169117
-0.170488
-0.171895
-0.173335
-0.17481
-0.176315
-0.177852
-0.179414
-0.181004
-0.182607
-0.184232
-0.185846
-0.187468
-0.189027
-0.190581
-0.191957
-0.193377
-0.194358
-0.195739
-0.10857
-0.0644751
-0.0693448
-0.0710027
-0.0720825
-0.0743192
-0.0768942
-0.079481
-0.0821146
-0.0847622
-0.0873806
-0.0899524
-0.0924695
-0.0949241
-0.0973119
-0.0996305
-0.101879
-0.104057
-0.106166
-0.108205
-0.110177
-0.112083
-0.113925
-0.115703
-0.117421
-0.119079
-0.12068
-0.122225
-0.123716
-0.125155
-0.126544
-0.127884
-0.129177
-0.130424
-0.131629
-0.132791
-0.133914
-0.134998
-0.136047
-0.137061
-0.138044
-0.138997
-0.139924
-0.140827
-0.141709
-0.142574
-0.143426
-0.144269
-0.145108
-0.145947
-0.146793
-0.147651
-0.148527
-0.14943
-0.150365
-0.151341
-0.152366
-0.15345
-0.154601
-0.155831
-0.157149
-0.158572
-0.160105
-0.161492
-0.162641
-0.163817
-0.165024
-0.166263
-0.167536
-0.168841
-0.170177
-0.171542
-0.172936
-0.174357
-0.1758
-0.177264
-0.178743
-0.180234
-0.181725
-0.183215
-0.184681
-0.186126
-0.187502
-0.188844
-0.190033
-0.191236
-0.192082
-0.19328
-0.107905
-0.0648802
-0.0694883
-0.0711467
-0.0721696
-0.0743825
-0.076946
-0.0795237
-0.0821506
-0.0847935
-0.0874083
-0.0899771
-0.0924918
-0.0949442
-0.0973303
-0.0996473
-0.101895
-0.104072
-0.106179
-0.108218
-0.110189
-0.112094
-0.113935
-0.115713
-0.117429
-0.119087
-0.120687
-0.122232
-0.123723
-0.125162
-0.12655
-0.127889
-0.129182
-0.13043
-0.131633
-0.132796
-0.133918
-0.135002
-0.13605
-0.137064
-0.138047
-0.138999
-0.139925
-0.140828
-0.141709
-0.142573
-0.143423
-0.144265
-0.145101
-0.145938
-0.14678
-0.147634
-0.148506
-0.149402
-0.150331
-0.151299
-0.152314
-0.153386
-0.154523
-0.155736
-0.157034
-0.158433
-0.159937
-0.161294
-0.162417
-0.163566
-0.16474
-0.165944
-0.167177
-0.168436
-0.169721
-0.171028
-0.172356
-0.173701
-0.17506
-0.176427
-0.177796
-0.179161
-0.180513
-0.181844
-0.183138
-0.184393
-0.185577
-0.186711
-0.187715
-0.188716
-0.189431
-0.190449
-0.106953
-0.065253
-0.0696106
-0.071308
-0.0722638
-0.0744492
-0.0770006
-0.0795682
-0.0821878
-0.0848257
-0.0874367
-0.0900025
-0.0925147
-0.0949652
-0.0973496
-0.0996651
-0.101911
-0.104087
-0.106193
-0.108231
-0.110202
-0.112106
-0.113946
-0.115723
-0.11744
-0.119097
-0.120697
-0.122241
-0.123731
-0.12517
-0.126558
-0.127897
-0.129189
-0.130436
-0.13164
-0.132802
-0.133924
-0.135008
-0.136055
-0.137069
-0.138051
-0.139003
-0.139928
-0.140829
-0.141709
-0.142571
-0.143419
-0.144258
-0.145091
-0.145924
-0.146761
-0.147609
-0.148474
-0.149362
-0.15028
-0.151236
-0.152236
-0.153291
-0.154407
-0.155596
-0.156865
-0.158228
-0.15969
-0.161005
-0.16209
-0.163197
-0.164326
-0.165478
-0.166654
-0.167849
-0.169062
-0.170289
-0.171527
-0.172772
-0.174018
-0.175259
-0.17649
-0.177703
-0.178889
-0.180041
-0.181146
-0.182202
-0.183188
-0.184119
-0.184943
-0.185753
-0.186336
-0.187177
-0.105733
-0.0655567
-0.0696844
-0.0714866
-0.0723651
-0.0745187
-0.0770577
-0.0796141
-0.0822253
-0.0848579
-0.0874649
-0.0900275
-0.0925373
-0.0949857
-0.0973685
-0.0996827
-0.101927
-0.104102
-0.106208
-0.108245
-0.110215
-0.112118
-0.113958
-0.115735
-0.117451
-0.119107
-0.120707
-0.122251
-0.123741
-0.125179
-0.126566
-0.127905
-0.129197
-0.130444
-0.131647
-0.132809
-0.133931
-0.135014
-0.136061
-0.137074
-0.138055
-0.139006
-0.13993
-0.140829
-0.141707
-0.142567
-0.143412
-0.144247
-0.145075
-0.145902
-0.146733
-0.147572
-0.148426
-0.149302
-0.150205
-0.151142
-0.152122
-0.153151
-0.154237
-0.15539
-0.156617
-0.157929
-0.15933
-0.160584
-0.161616
-0.162664
-0.163728
-0.164808
-0.165904
-0.167011
-0.168126
-0.169245
-0.170365
-0.171479
-0.172583
-0.17367
-0.174734
-0.175769
-0.176768
-0.177723
-0.178629
-0.179481
-0.180268
-0.181001
-0.181646
-0.182273
-0.182723
-0.183387
-0.104284
-0.0657941
-0.069658
-0.0716728
-0.0724714
-0.0745895
-0.0771169
-0.0796611
-0.0822631
-0.0848898
-0.0874923
-0.0900515
-0.0925586
-0.095005
-0.097386
-0.0996989
-0.101942
-0.104116
-0.106221
-0.108257
-0.110227
-0.11213
-0.113969
-0.115745
-0.117461
-0.119117
-0.120716
-0.12226
-0.12375
-0.125187
-0.126575
-0.127913
-0.129205
-0.130452
-0.131655
-0.132816
-0.133937
-0.13502
-0.136067
-0.137079
-0.138059
-0.139008
-0.13993
-0.140828
-0.141703
-0.142559
-0.1434
-0.144229
-0.14505
-0.145869
-0.146689
-0.147516
-0.148355
-0.149212
-0.150093
-0.151004
-0.151953
-0.152945
-0.153988
-0.15509
-0.156256
-0.157496
-0.158811
-0.15998
-0.160937
-0.161903
-0.162876
-0.163858
-0.164846
-0.165835
-0.166822
-0.167802
-0.168771
-0.169724
-0.170655
-0.17156
-0.172434
-0.17327
-0.174064
-0.174812
-0.17551
-0.176156
-0.176745
-0.177284
-0.177753
-0.178202
-0.178515
-0.179002
-0.102759
-0.0660065
-0.0694934
-0.0718327
-0.0725702
-0.0746548
-0.0771754
-0.0797081
-0.0823003
-0.0849208
-0.0875187
-0.090074
-0.0925783
-0.0950224
-0.0974017
-0.0997131
-0.101956
-0.104129
-0.106232
-0.108268
-0.110237
-0.112139
-0.113978
-0.115754
-0.117469
-0.119126
-0.120724
-0.122268
-0.123757
-0.125195
-0.126582
-0.127921
-0.129212
-0.130458
-0.131661
-0.132822
-0.133943
-0.135025
-0.136071
-0.137082
-0.13806
-0.139008
-0.139928
-0.140822
-0.141693
-0.142544
-0.143378
-0.144199
-0.145011
-0.145817
-0.146622
-0.147431
-0.148248
-0.149079
-0.149929
-0.150803
-0.151707
-0.152647
-0.153629
-0.154658
-0.155738
-0.156877
-0.158073
-0.159126
-0.159979
-0.160833
-0.161686
-0.162537
-0.163384
-0.164222
-0.165047
-0.165854
-0.166641
-0.167403
-0.168135
-0.168834
-0.169495
-0.170116
-0.170695
-0.171228
-0.171715
-0.172155
-0.172546
-0.172895
-0.173189
-0.173464
-0.173637
-0.173947
-0.101361
-0.0662757
-0.0692592
-0.0719374
-0.0726321
-0.0746958
-0.0772222
-0.0797475
-0.0823318
-0.0849474
-0.0875413
-0.0900933
-0.0925949
-0.095037
-0.0974145
-0.0997245
-0.101966
-0.104138
-0.106241
-0.108276
-0.110244
-0.112146
-0.113985
-0.115761
-0.117476
-0.119131
-0.12073
-0.122273
-0.123763
-0.1252
-0.126587
-0.127925
-0.129217
-0.130463
-0.131665
-0.132826
-0.133946
-0.135027
-0.136072
-0.137081
-0.138058
-0.139003
-0.139919
-0.140809
-0.141674
-0.142518
-0.143343
-0.144153
-0.144951
-0.145739
-0.146523
-0.147306
-0.148092
-0.148886
-0.149691
-0.150513
-0.151355
-0.152222
-0.153118
-0.154046
-0.155008
-0.156009
-0.157045
-0.157941
-0.158658
-0.159366
-0.160064
-0.160749
-0.161419
-0.162071
-0.1627
-0.163304
-0.16388
-0.164425
-0.164935
-0.16541
-0.165846
-0.166243
-0.1666
-0.166916
-0.167192
-0.167429
-0.167626
-0.16779
-0.167912
-0.168017
-0.168053
-0.168182
-0.100027
-0.0665325
-0.0691228
-0.0720483
-0.0726704
-0.0747047
-0.07724
-0.0797614
-0.0823431
-0.0849577
-0.0875504
-0.0901011
-0.0926015
-0.0950426
-0.0974192
-0.0997285
-0.101969
-0.104141
-0.106243
-0.108278
-0.110246
-0.112148
-0.113986
-0.115762
-0.117477
-0.119132
-0.120731
-0.122274
-0.123763
-0.125201
-0.126588
-0.127926
-0.129217
-0.130463
-0.131665
-0.132825
-0.133944
-0.135024
-0.136067
-0.137075
-0.138049
-0.13899
-0.139902
-0.140785
-0.141643
-0.142477
-0.143289
-0.144083
-0.144861
-0.145625
-0.146379
-0.147126
-0.147869
-0.148611
-0.149355
-0.150104
-0.150861
-0.151628
-0.152406
-0.153198
-0.154003
-0.15482
-0.155646
-0.156342
-0.156886
-0.157411
-0.157916
-0.1584
-0.15886
-0.159293
-0.159699
-0.160073
-0.160415
-0.160724
-0.160998
-0.161237
-0.16144
-0.161607
-0.16174
-0.161838
-0.161904
-0.161938
-0.161942
-0.161919
-0.161868
-0.1618
-0.161692
-0.161629
-0.0990704
-0.0665722
-0.0690236
-0.0721134
-0.0726977
-0.074713
-0.0772484
-0.0797624
-0.0823396
-0.0849516
-0.0875418
-0.090091
-0.0925902
-0.0950305
-0.0974066
-0.0997156
-0.101956
-0.104128
-0.10623
-0.108265
-0.110233
-0.112135
-0.113974
-0.11575
-0.117465
-0.119121
-0.12072
-0.122263
-0.123753
-0.12519
-0.126577
-0.127916
-0.129207
-0.130453
-0.131654
-0.132814
-0.133932
-0.135012
-0.136053
-0.137058
-0.138029
-0.138966
-0.139872
-0.140748
-0.141597
-0.142418
-0.143215
-0.14399
-0.144744
-0.14548
-0.146198
-0.146903
-0.147594
-0.148275
-0.148946
-0.14961
-0.150266
-0.150917
-0.15156
-0.152197
-0.152823
-0.153436
-0.154032
-0.15451
-0.154869
-0.155203
-0.155511
-0.15579
-0.156041
-0.156261
-0.156451
-0.156608
-0.156734
-0.156828
-0.15689
-0.156921
-0.156922
-0.156894
-0.156839
-0.156757
-0.156651
-0.156522
-0.156372
-0.156204
-0.156018
-0.155819
-0.155602
-0.155394
-0.0986143
-0.0665624
-0.0689731
-0.0721235
-0.0726932
-0.0747019
-0.0772364
-0.0797471
-0.0823218
-0.0849323
-0.0875214
-0.0900698
-0.0925688
-0.0950091
-0.0973854
-0.0996947
-0.101936
-0.104108
-0.106211
-0.108246
-0.110215
-0.112118
-0.113957
-0.115733
-0.117449
-0.119105
-0.120704
-0.122248
-0.123738