/*--------------------------------*- C++ -*----------------------------------*\
| =========                 |                                                 |
| \\      /  F ield         | OpenFOAM: The Open Source CFD Toolbox           |
|  \\    /   O peration     | Version:  2306                                  |
|   \\  /    A nd           | Website:  www.openfoam.com                      |
|    \\/     M anipulation  |                                                 |
\*---------------------------------------------------------------------------*/
FoamFile
{
    version     2.0;
    format      ascii;
    arch        "LSB;label=32;scalar=64";
    class       volScalarField;
    location    "1700";
    object      epsilon;
}
// * * * * * * * * * * * * * * * * * * * * * * * * * * * * * * * * * * * * * //

dimensions      [0 2 -3 0 0 0 0];

internalField   nonuniform List<scalar> 
20540
(
49807.5
79096.6
49796.5
79089.9
49736.6
79059.3
49625
79003.6
49451.7
78917.5
49203.4
78794.3
48863.9
78625.8
48413.7
78402.6
47829.5
78113.6
47083.7
77745.9
46143.8
77284.4
44972.2
76710.7
43526.5
76003.4
41760.1
75137.1
39624.8
74077.2
37074.2
72775.2
34069.6
71164.4
30587.5
69154.6
26632.8
66630.7
22260.1
63430.4
17618.7
59314.3
13021.9
53916.8
8768.88
46942.2
5170.87
38290.8
2636.3
28222.5
1402.82
17531.4
821.907
7889.41
507.19
2443.13
367.678
795.256
312.061
397.235
287.822
301.413
279.847
274.025
280.002
273.575
288.156
299.916
312.297
389.473
365.998
736.871
498.234
2117.11
795.281
6828.4
1325.73
15845.7
2437.23
26210.3
4799.16
36208.6
8254.8
45013.3
12425
52265
17007.8
57982.1
21718
62399.6
26239
65878
30398.4
68654.4
34121.4
70890.9
37385.2
72703.6
40198.4
74178.6
42588.5
75386.8
44594.3
76381.1
46259.3
77201.2
47627.9
77875
48742.2
78424.8
49640.5
78869.8
50356.9
79225.9
50920.8
79507.1
51357.4
79725.2
51688
79890.5
51930.7
80011.9
52100.8
80096.9
52210.6
80152.1
52269.6
80182.5
52284.8
80191.2
6.40362e+06
2.4804e+06
1.95975e+06
1.68837e+06
1.52982e+06
1.43081e+06
1.36369e+06
1.31554e+06
1.2798e+06
1.25252e+06
1.2312e+06
1.21425e+06
1.20058e+06
1.18945e+06
1.18024e+06
1.17264e+06
1.16624e+06
1.16089e+06
1.15635e+06
1.15248e+06
1.14918e+06
1.14635e+06
1.14389e+06
1.14177e+06
1.13993e+06
1.13832e+06
1.13692e+06
1.13567e+06
1.13458e+06
1.13361e+06
1.13275e+06
1.13198e+06
1.1313e+06
1.13068e+06
1.13014e+06
1.12964e+06
1.1292e+06
1.1288e+06
1.12845e+06
1.12814e+06
1.12789e+06
1.12766e+06
1.1275e+06
1.12737e+06
1.12731e+06
1.1273e+06
1.12738e+06
1.12752e+06
1.12778e+06
1.12812e+06
1.12859e+06
1.1292e+06
1.12997e+06
1.13092e+06
1.13208e+06
1.13347e+06
1.13511e+06
1.13707e+06
1.13933e+06
1.14198e+06
1.14502e+06
1.14857e+06
1.1526e+06
1.15651e+06
1.15983e+06
1.16339e+06
1.16711e+06
1.17114e+06
1.17531e+06
1.17978e+06
1.18446e+06
1.18943e+06
1.19466e+06
1.2002e+06
1.20607e+06
1.21223e+06
1.21888e+06
1.22568e+06
1.23344e+06
1.24096e+06
1.25077e+06
1.25875e+06
1.27359e+06
1.27934e+06
1.30628e+06
1.31292e+06
1.37314e+06
1.25771e+06
2.27134e+06
913339
716087
614301
554865
517795
492768
474863
461595
451482
443588
437320
432265
428155
424756
421950
419592
417618
415945
414519
413302
412260
411355
410575
409896
409304
408786
408328
407926
407568
407252
406968
406717
406488
406287
406103
405940
405792
405663
405546
405450
405363
405298
405244
405215
405200
405216
405253
405327
405429
405575
405762
406003
406303
406668
407110
407629
408251
408966
409812
410774
411900
413177
414410
415455
416586
417756
419023
420328
421725
423175
424719
426325
428030
429807
431691
433667
435733
437978
440256
442988
445360
449390
450813
458030
458842
473746
458320
1.14173e+06
526721
430097
375713
341843
320024
305007
294123
285990
279757
274871
270979
267834
265271
263149
261394
259918
258681
257632
256737
255973
255318
254750
254259
253832
253459
253133
252845
252592
252367
252168
251989
251831
251687
251561
251444
251342
251249
251168
251095
251034
250980
250939
250905
250887
250878
250888
250912
250958
251022
251114
251232
251384
251572
251802
252080
252407
252797
253247
253777
254382
255087
255887
256658
257314
258021
258752
259539
260352
261217
262115
263064
264052
265090
266177
267309
268512
269726
271080
272363
273975
275209
277467
278147
281628
281556
287069
286881
700651
335083
283441
253322
233192
219701
210195
203193
197904
193822
190605
188032
185947
184243
182830
181659
180673
179845
179143
178543
178031
177591
177209
176880
176592
176342
176122
175928
175758
175606
175472
175352
175245
175148
175063
174985
174916
174853
174799
174750
174708
174672
174644
174621
174609
174603
174609
174623
174654
174695
174756
174833
174933
175057
175208
175390
175605
175861
176157
176505
176901
177362
177886
178387
178814
179276
179750
180260
180784
181341
181918
182524
183153
183808
184495
185199
185952
186691
187528
188279
189255
189925
191224
191589
193292
193071
195172
194724
489354
227132
194447
176962
164585
155929
149668
144971
141379
138583
136366
134585
133135
131948
130961
130142
129451
128871
128377
127956
127595
127285
127016
126783
126581
126404
126249
126112
125991
125884
125789
125704
125628
125560
125499
125444
125395
125351
125312
125277
125247
125220
125200
125183
125173
125167
125169
125176
125194
125219
125257
125305
125368
125447
125543
125659
125796
125959
126148
126369
126621
126914
127246
127562
127831
128122
128420
128740
129066
129412
129768
130141
130525
130924
131336
131758
132200
132636
133113
133545
134081
134443
135121
135300
136056
135803
136422
137054
369560
163117
138028
127285
119564
113937
109743
106526
104025
102056
100483
99210.8
98171
97316.2
96603.4
96010.4
95509.1
95087
94727.8
94420.4
94157.1
93930.8
93734
93563.8
93415.4
93285.5
93171.9
93071.3
92982.9
92904
92834.4
92771.6
92716.1
92665.7
92621.2
92580.4
92544.3
92511.3
92482.5
92456.2
92433.9
92413.8
92397.9
92384.3
92375.2
92369
92368.4
92371.5
92380.8
92395.3
92417.7
92447
92485.8
92534.4
92594.2
92667
92752.7
92855.5
92973.5
93112.8
93270.4
93454
93660.6
93858.1
94023.6
94204.9
94388.3
94585.4
94784.5
94995.8
95210.2
95435.4
95662.8
95900.3
96139
96386.9
96635
96887.3
97142.6
97387.4
97658.3
97852.1
98171.4
98247.1
98527.8
98324
98200.5
100040
292811
123224
100890
93590.4
88710.8
85071
82273.2
80068.9
78319
76920.3
75790.1
74868.9
74110.7
73484.2
72959.5
72521.5
72150.2
71836.8
71569.4
71340.2
71143.6
70974.4
70827
70699.4
70588.1
70490.5
70405
70329.3
70262.8
70203.3
70150.8
70103.5
70061.6
70023.5
69989.8
69958.9
69931.5
69906.4
69884.4
69864.2
69847
69831.2
69818.5
69807.3
69799.2
69793
69790.6
69790.7
69794.7
69802.1
69814.5
69831.4
69854.3
69883.4
69919.4
69963.7
70015.8
70078.9
70150.8
70236.3
70332.2
70444.5
70569.6
70689.8
70788.6
70898.3
71007.7
71126.1
71243.4
71368.7
71492.8
71624.5
71753.1
71890
72020.6
72161.2
72290.4
72430.7
72554.6
72686.1
72805.6
72901.5
73023.2
73043.1
73093.5
72975
72529.4
74646.5
239377
97198.4
75799.9
70039
66813.6
64474.4
62642.5
61157.9
59948.4
58962.3
58153.5
57486.6
56932.6
56471.5
56083
55757.2
55479.7
55244.9
55043.8
54871.1
54722.6
54594.5
54482.7
54385.8
54301
54226.7
54161.5
54103.7
54052.8
54007.4
53967.2
53930.9
53898.7
53869.4
53843.5
53819.7
53798.6
53779.1
53762
53746.2
53732.7
53720.1
53709.8
53700.3
53693.2
53687.2
53683.7
53681.9
53682.7
53685.5
53691.4
53700.1
53712.5
53728.7
53749.2
53774.6
53804.6
53841.4
53882.9
53932.9
53988.2
54053.7
54125.4
54195.3
54250.8
54314
54375.4
54442.9
54507.7
54577.7
54644.5
54716.9
54783.5
54857.2
54921.4
54994.7
55053.5
55123.4
55172.7
55233.7
55270.9
55307.2
55327.2
55315.9
55271.5
55169.7
54689
56475
200004
79483.8
58538.1
53288.9
50913.1
49378.4
48202.6
47232.1
46419.4
45740.5
45172.8
44697.3
44297.2
43961
43675.3
43434.1
43227.5
43051.9
42900.8
42770.5
42658.2
42561.1
42476
42402.2
42337.5
42280.6
42230.7
42186.3
42147.2
42112.2
42081.2
42053.2
42028.4
42005.7
41985.6
41967.1
41950.7
41935.5
41922.1
41909.7
41898.9
41888.7
41880.3
41872.4
41866.1
41860.5
41856.5
41853.5
41852.4
41852.3
41854.1
41857.5
41863.1
41870.9
41881.1
41894.2
41909.6
41929
41950.6
41977.4
42006.1
42040.9
42077.8
42115
42142.9
42175.8
42206.5
42241
42272.6
42307.4
42338.4
42373.1
42401.8
42435.6
42460.5
42491.4
42510.4
42536.4
42545.5
42563
42559.3
42556.8
42534.9
42502.8
42420.7
42325.5
41916.2
43255.4
169808
66950.6
46471.7
41270
39225.9
38126.4
37366.1
36751
36226.6
35777.6
35393.2
35064.8
34783.9
34544.6
34338.8
34163.7
34012.3
33882.8
33770.8
33673.7
33589.6
33516.6
33452.5
33396.6
33347.6
33304.3
33266.3
33232.4
33202.5
33175.6
33151.8
33130.3
33111.1
33093.6
33078.1
33063.8
33051
33039.1
33028.7
33018.8
33010.3
33002.1
32995.2
32988.6
32983.2
32978
32974.1
32970.5
32968.3
32966.4
32965.8
32965.9
32967.1
32969.5
32973.2
32978.3
32984.4
32992.6
33001.4
33013.1
33024.8
33039.9
33054.7
33070.9
33081.5
33095.1
33106.6
33120.2
33131.4
33144
33153.4
33164.9
33171.2
33180.8
33183
33188.2
33185.8
33185
33175
33167
33143.8
33123.8
33079.6
33040.4
32949.7
32861.4
32539.7
33514.2
145967
57773.7
37897.2
32601.4
30597.3
29671
29135.8
28745.5
28420.5
28139
27892.7
27677.4
27489.3
27326.3
27183.8
27061.1
26953.8
26861.3
26780.6
26710.1
26648.8
26595.2
26547.9
26506.6
26470.1
26437.9
26409.4
26384
26361.5
26341.2
26323.2
26306.9
26292.3
26279
26267.2
26256.2
26246.4
26237.2
26229.1
26221.5
26214.8
26208.3
26202.7
26197.3
26192.7
26188.2
26184.5
26180.8
26178.1
26175.3
26173.3
26171.5
26170.2
26169.3
26168.9
26169.2
26169.4
26170.8
26171.6
26173.9
26175.1
26178.1
26179.2
26182.4
26182.7
26184.4
26184.4
26185.3
26184.6
26183.9
26181
26178.8
26172.6
26168.2
26158.1
26150.5
26134.9
26123.3
26100.1
26083
26048.8
26023.1
25971.4
25931.3
25845.9
25767
25518.8
26230.1
126730
50850.3
31698.2
26317.3
24226
23307.9
22854.5
22581.4
22379.3
22211.2
22064.1
21933.4
21816.5
21713.1
21620.8
21540.2
21468.4
21405.9
21350.7
21302
21259.2
21221.7
21188.3
21158.9
21132.9
21109.7
21089.2
21070.8
21054.5
21039.7
21026.6
21014.6
21003.9
20994
20985.3
20977.1
20969.8
20962.9
20956.8
20951
20945.9
20940.9
20936.6
20932.2
20928.4
20924.6
20921.4
20917.9
20915.1
20912
20909.4
20906.6
20903.9
20901.3
20898.6
20896.1
20893
20890.4
20886.6
20883.6
20878.6
20874.8
20867.8
20863.9
20857.9
20853.6
20846.7
20841.2
20832.9
20826.1
20815.4
20807.1
20793.4
20783.2
20765.8
20753
20730.8
20715
20686.4
20666.4
20628.8
20602.7
20551.5
20514
20438.9
20371.6
20180.6
20701.3
110947
45488.5
27140.7
21731.4
19525.6
18532.9
18066
17826.3
17682
17579.3
17496.2
17424.1
17359
17300.6
17247.1
17199.5
17156.1
17117.8
17083.4
17052.6
17025.2
17001
16979.2
16959.8
16942.6
16927.1
16913.4
16900.9
16889.8
16879.7
16870.7
16862.4
16855
16848.1
16842
16836.3
16831.2
16826.3
16821.9
16817.7
16814
16810.3
16807.1
16803.8
16800.9
16797.8
16795.1
16792.1
16789.5
16786.5
16783.8
16780.7
16777.5
16774.1
16770.3
16766.5
16761.7
16757.2
16750.9
16745.3
16737.1
16729.9
16718.8
16711.3
16702.3
16695.1
16684.7
16676.4
16664.4
16654.9
16640.6
16629.8
16612.9
16600.5
16580.4
16566
16542
16525.2
16496.2
16476.1
16440.1
16415.7
16368.8
16335.7
16271.8
16216.5
16070.6
16450.1
97825.9
41236.2
23739.9
18358
16057.3
14965.3
14433.9
14170.3
14032.5
13953.8
13902.9
13865.1
13833.5
13806
13780.6
13757.6
13736
13716.7
13698.8
13682.5
13667.7
13654.5
13642.2
13631.3
13621.5
13612.5
13604.5
13597.1
13590.5
13584.5
13579
13574
13569.4
13565.2
13561.4
13557.8
13554.5
13551.4
13548.6
13545.8
13543.4
13540.9
13538.7
13536.4
13534.3
13532
13529.9
13527.5
13525.3
13522.7
13520.2
13517.3
13514
13510.6
13506.5
13502.4
13497
13491.8
13484.7
13478.1
13468.7
13460.3
13447.8
13439
13428.8
13420.7
13409.2
13400
13386.9
13376.8
13361.7
13350.4
13333.1
13320.5
13300.6
13286.5
13263.4
13247.3
13220.4
13201.8
13169.6
13147.8
13107.1
13078.9
13025.6
12980.8
12871.3
13147.4
86813.6
37784
21172
15856.8
13493.4
12310
11697.6
11379
11212.8
11125.8
11079.5
11054
11038.5
11028.4
11020.3
11013.6
11007.3
11001.6
10996.2
10990.9
10985.9
10981.4
10976.9
10972.8
10969.1
10965.5
10962.3
10959.3
10956.5
10953.9
10951.6
10949.3
10947.3
10945.3
10943.5
10941.8
10940.2
10938.6
10937.2
10935.8
10934.5
10933.1
10931.9
10930.4
10929.1
10927.6
10926.2
10924.5
10922.8
10920.7
10918.6
10916.1
10913.2
10910.1
10906.2
10902.3
10897
10892
10885
10878.6
10869.2
10860.9
10848.5
10839.8
10829.9
10822
10810.7
10801.9
10789.2
10779.5
10765.2
10754.6
10738.4
10726.7
10708.5
10695.6
10674.9
10660.5
10636.9
10620.5
10592.7
10573.9
10539.7
10516.1
10472.5
10436.4
10356
10556.8
77519.5
34907.8
19218
13991.9
11593.6
10338.4
9649.51
9266.25
9053.21
8936.44
8874.13
8842.46
8827.46
8821.8
8820.69
8821.91
8824.04
8826.57
8829.13
8831.31
8833.24
8835.01
8836.33
8837.47
8838.43
8839.16
8839.81
8840.22
8840.63
8840.84
8841.07
8841.14
8841.2
8841.17
8841.14
8841.01
8840.91
8840.68
8840.52
8840.19
8839.96
8839.51
8839.17
8838.61
8838.03
8837.25
8836.51
8835.44
8834.33
8832.87
8831.25
8829.33
8826.94
8824.4
8821.01
8817.67
8812.97
8808.57
8802.18
8796.44
8787.9
8780.45
8769.2
8761.29
8752.27
8745.14
8734.95
8727.06
8715.64
8706.99
8694.25
8684.8
8670.61
8660.3
8644.48
8633.18
8615.45
8602.94
8582.9
8568.92
8545.63
8529.82
8501.61
8482.39
8447.06
8418.1
8360.17
8505.31
69655.4
32431.8
17726.1
12599.6
10184.5
8877.18
8124.87
7680.54
7415.87
7259.12
7167.98
7116.93
7089.96
7077.75
7074.01
7075.19
7078.99
7084.15
7090.09
7095.9
7101.52
7106.98
7111.86
7116.36
7120.48
7124.16
7127.54
7130.5
7133.23
7135.6
7137.8
7139.68
7141.43
7142.92
7144.32
7145.48
7146.59
7147.47
7148.34
7148.96
7149.61
7150
7150.41
7150.6
7150.65
7150.56
7150.44
7149.99
7149.43
7148.58
7147.53
7146.2
7144.41
7142.51
7139.76
7137.12
7133.18
7129.58
7124.13
7119.32
7111.99
7105.66
7095.99
7089.18
7081.44
7075.31
7066.59
7059.8
7050.07
7042.62
7031.83
7023.7
7011.76
7002.93
6989.7
6980.06
6965.35
6954.77
6938.22
6926.52
6907.44
6894.31
6871.47
6855.93
6827.72
6805.26
6763.22
6867.63
62984.6
30235.8
16588.8
11566.1
9142.85
7797.53
6995.66
6499.63
6186.91
5988.68
5863.59
5785.94
5738.9
5712.02
5697.9
5692.11
5691.67
5693.92
5698.7
5704.18
5710.15
5716.44
5722.43
5728.2
5733.72
5738.83
5743.65
5748
5752.1
5755.77
5759.21
5762.28
5765.15
5767.68
5770.06
5772.15
5774.13
5775.82
5777.45
5778.79
5780.11
5781.16
5782.16
5782.93
5783.58
5784.02
5784.4
5784.41
5784.37
5784.06
5783.54
5782.75
5781.54
5780.26
5778.18
5776.24
5773.11
5770.32
5765.9
5762.05
5756.05
5750.86
5742.93
5737.25
5730.89
5725.77
5718.62
5712.92
5704.95
5698.67
5689.86
5683.01
5673.3
5665.85
5655.12
5647.02
5635.12
5626.28
5612.92
5603.21
5587.89
5577.07
5558.88
5546.37
5524.2
5507.44
5476.51
5551.28
57250.8
28301.9
15728.2
10810.5
8381.35
7005.95
6165.05
5627.09
5273.36
5037.3
4878.81
4772.64
4701.94
4655.83
4626.39
4608.6
4598.8
4594.12
4593.56
4594.94
4598.02
4602.31
4606.88
4611.72
4616.72
4621.57
4626.34
4630.81
4635.12
4639.11
4642.92
4646.39
4649.68
4652.66
4655.47
4658
4660.41
4662.53
4664.57
4666.33
4668.03
4669.47
4670.84
4671.98
4673.02
4673.82
4674.54
4675
4675.31
4675.31
4675.22
4674.83
4674.19
4673.39
4671.92
4670.58
4668.21
4666.13
4662.69
4659.69
4654.95
4650.8
4644.51
4639.88
4634.82
4630.61
4624.93
4620.21
4613.88
4608.66
4601.67
4595.96
4588.25
4582.04
4573.53
4566.78
4557.34
4550.01
4539.42
4531.41
4519.29
4510.44
4496.17
4486.19
4468.99
4456.7
4433.99
4487.11
52212.9
26615.9
15084.5
10273.6
7837.3
6434.91
5561.39
4989.08
4601.35
4332.96
4144.61
4011.58
3917.24
3850.67
3803.79
3771.31
3749.21
3734.46
3725.4
3720.05
3717.5
3717.22
3718.01
3719.84
3722.44
3725.33
3728.52
3731.72
3735.03
3738.23
3741.41
3744.39
3747.31
3750
3752.6
3754.99
3757.3
3759.38
3761.39
3763.17
3764.89
3766.4
3767.83
3769.06
3770.21
3771.15
3772
3772.65
3773.16
3773.43
3773.47
3773.32
3773.08
3772.57
3771.64
3770.72
3768.97
3767.43
3764.81
3762.48
3758.85
3755.54
3750.67
3746.91
3742.98
3739.54
3735.12
3731.25
3726.31
3722.01
3716.55
3711.83
3705.81
3700.67
3694.03
3688.44
3681.07
3675
3666.73
3660.14
3650.7
3643.5
3632.46
3624.57
3611.43
3602.5
3585.92
3623.29
47618.7
25162.5
14606.9
9907.97
7463.77
6034.91
5131.95
4530.18
4113.89
3818.29
3604.42
3447.79
3331.94
3245.98
3181.86
3134.16
3098.72
3072.44
3053.27
3039.33
3029.36
3022.6
3018
3015.14
3013.68
3013.11
3013.33
3013.97
3015.11
3016.44
3017.98
3019.56
3021.28
3022.91
3024.59
3026.19
3027.81
3029.3
3030.78
3032.13
3033.44
3034.62
3035.76
3036.76
3037.69
3038.49
3039.19
3039.78
3040.21
3040.53
3040.56
3040.47
3040.34
3039.97
3039.33
3038.63
3037.31
3036.1
3034.1
3032.23
3029.44
3026.76
3023.01
3019.94
3016.91
3014.09
3010.67
3007.5
3003.67
3000.14
2995.91
2992.03
2987.36
2983.12
2977.97
2973.36
2967.65
2962.66
2956.27
2950.87
2943.61
2937.8
2929.38
2923.21
2913.31
2906.87
2894.82
2920.77
43177.9
23912.7
14244.3
9670.74
7221.94
5767.49
4836.85
4208.58
3767.44
3448.63
3213.1
3036.3
2901.8
2798.66
2718.86
2656.89
2608.56
2570.73
2541.16
2518
2499.82
2485.7
2474.67
2466.08
2459.52
2454.45
2450.68
2447.81
2445.78
2444.31
2443.37
2442.74
2442.48
2442.32
2442.42
2442.64
2442.98
2443.34
2443.79
2444.21
2444.69
2445.13
2445.58
2445.98
2446.36
2446.69
2446.95
2447.17
2447.28
2447.24
2447.19
2446.97
2446.67
2446.28
2445.58
2444.9
2443.77
2442.68
2441.05
2439.42
2437.2
2434.92
2431.95
2429.4
2427.01
2424.68
2422
2419.38
2416.38
2413.48
2410.17
2406.98
2403.34
2399.85
2395.85
2392.07
2387.65
2383.57
2378.66
2374.27
2368.74
2364.09
2357.77
2352.97
2345.63
2341
2332.27
2349.98
38574.2
22749.2
13931.4
9513.9
7073.46
5598.4
4642.97
3990.9
3527.85
3188.94
2934.89
2740.96
2590.6
2472.73
2379.33
2304.79
2244.87
2196.44
2157.12
2125.07
2098.82
2077.29
2059.58
2044.94
2032.86
2022.81
2014.51
2007.55
2001.8
1996.96
1992.95
1989.55
1986.75
1984.33
1982.33
1980.62
1979.21
1977.98
1976.95
1976.05
1975.29
1974.62
1974.03
1973.5
1973.01
1972.56
1972.1
1971.67
1971.19
1970.71
1970.15
1969.58
1968.88
1968.19
1967.28
1966.38
1965.21
1964.02
1962.5
1960.92
1958.96
1956.89
1954.39
1952.17
1950.2
1948.22
1946.03
1943.83
1941.42
1938.99
1936.35
1933.7
1930.82
1927.95
1924.8
1921.71
1918.27
1914.94
1911.17
1907.62
1903.46
1899.73
1895.1
1891.29
1886.07
1882.44
1876.41
1888.18
33396.4
21526.1
13570.9
9372.6
6971.33
5490.03
4517.48
3846.56
3365.42
3009.73
2740.23
2532.01
2368.43
2238.26
2133.44
2048.25
1978.43
1920.79
1872.92
1832.93
1799.34
1771
1747.01
1726.56
1709.13
1694.15
1681.29
1670.15
1660.52
1652.13
1644.83
1638.41
1632.8
1627.83
1623.45
1619.54
1616.09
1612.98
1610.21
1607.7
1605.44
1603.38
1601.51
1599.79
1598.19
1596.71
1595.32
1594.01
1592.73
1591.53
1590.31
1589.13
1587.9
1586.71
1585.41
1584.12
1582.68
1581.22
1579.58
1577.87
1575.94
1573.89
1571.58
1569.53
1567.8
1566.02
1564.14
1562.22
1560.19
1558.11
1555.92
1553.69
1551.34
1548.95
1546.42
1543.88
1541.16
1538.45
1535.53
1532.68
1529.53
1526.58
1523.17
1520.2
1516.48
1513.69
1509.46
1517.06
27306.8
19855.5
13000.1
9147.52
6847.32
5391.68
4419.74
3740.86
3249.01
2881.98
2601.32
2382.4
2208.69
2068.94
1955.1
1861.41
1783.59
1718.44
1663.49
1616.86
1577.05
1542.88
1513.41
1487.86
1465.64
1446.2
1429.16
1414.14
1400.88
1389.09
1378.62
1369.26
1360.89
1353.35
1346.57
1340.43
1334.87
1329.81
1325.21
1320.99
1317.13
1313.58
1310.3
1307.28
1304.46
1301.84
1299.38
1297.07
1294.88
1292.81
1290.8
1288.89
1287.01
1285.18
1283.35
1281.55
1279.7
1277.85
1275.93
1273.95
1271.87
1269.7
1267.36
1265.35
1263.71
1262.03
1260.31
1258.55
1256.74
1254.89
1252.99
1251.05
1249.05
1247.03
1244.93
1242.8
1240.6
1238.39
1236.07
1233.78
1231.36
1229.03
1226.48
1224.19
1221.47
1219.38
1216.3
1221.05
20423.4
16977.1
11961
8681.78
6594.68
5226.19
4290.66
3626.15
3138.44
2770.5
2486.4
2262.73
2083.65
1938.24
1818.68
1719.32
1635.96
1565.43
1505.31
1453.71
1409.15
1370.45
1336.67
1307.04
1280.93
1257.82
1237.31
1219.01
1202.64
1187.94
1174.71
1162.75
1151.92
1142.08
1133.12
1124.93
1117.44
1110.57
1104.25
1098.42
1093.04
1088.06
1083.43
1079.13
1075.11
1071.37
1067.85
1064.55
1061.42
1058.47
1055.66
1052.98
1050.4
1047.92
1045.49
1043.14
1040.81
1038.51
1036.21
1033.9
1031.55
1029.16
1026.69
1024.62
1022.96
1021.3
1019.63
1017.94
1016.24
1014.53
1012.8
1011.05
1009.28
1007.5
1005.69
1003.87
1002.02
1000.17
998.279
996.416
994.489
992.639
990.667
988.888
986.822
985.255
982.902
985.77
12868.2
12443.4
10160
7741.2
6048.18
4874.17
4039.76
3430.98
2975.15
2625.76
2352.4
2134.69
1958.54
1814.09
1694.2
1593.63
1508.49
1435.79
1373.26
1319.09
1271.89
1230.53
1194.09
1161.83
1133.16
1107.56
1084.62
1063.99
1045.38
1028.53
1013.23
999.307
986.597
974.965
964.297
954.489
945.452
937.11
929.393
922.242
915.599
909.423
903.663
898.289
893.257
888.545
884.114
879.948
876.012
872.293
868.759
865.401
862.187
859.113
856.146
853.283
850.494
847.776
845.098
842.458
839.825
837.198
834.539
832.361
830.646
828.952
827.273
825.609
823.953
822.308
820.669
819.037
817.409
815.789
814.169
812.561
810.95
809.358
807.758
806.193
804.605
803.088
801.501
800.079
798.44
797.244
795.333
797.018
5326.07
7176.36
6915.5
6028.15
4984.17
4168.27
3536.94
3051.42
2673.8
2375.91
2137.51
1944.06
1785.04
1652.79
1541.63
1447.3
1366.56
1296.91
1236.41
1183.51
1137
1095.88
1059.35
1026.76
997.552
971.28
947.567
926.089
906.578
888.8
872.561
857.687
844.032
831.468
819.882
809.179
799.269
790.081
781.543
773.6
766.194
759.283
752.818
746.767
741.088
735.755
730.734
726.003
721.532
717.302
713.287
709.472
705.831
702.353
699.013
695.802
692.694
689.683
686.744
683.872
681.039
678.244
675.456
673.203
671.449
669.733
668.052
666.403
664.783
663.19
661.621
660.078
658.556
657.058
655.581
654.128
652.694
651.29
649.899
648.549
647.2
645.919
644.599
643.425
642.075
641.134
639.513
640.478
1399.91
2633.41
3344.2
3406.07
3270.92
2972.74
2652.12
2372.96
2134.48
1933.58
1764.82
1622.49
1501.77
1398.7
1310.09
1233.41
1166.62
1108.11
1056.55
1010.89
970.262
933.948
901.36
872.003
845.466
821.397
799.503
779.53
761.261
744.509
729.114
714.934
701.846
689.743
678.531
668.126
658.453
649.448
641.051
633.211
625.878
619.014
612.576
606.532
600.849
595.499
590.454
585.69
581.183
576.914
572.86
569.005
565.327
561.815
558.446
555.211
552.089
549.071
546.137
543.282
540.481
537.734
535.013
532.834
531.149
529.512
527.919
526.368
524.855
523.38
521.94
520.534
519.161
517.821
516.511
515.235
513.988
512.776
511.589
510.444
509.314
508.244
507.157
506.192
505.092
504.346
502.985
503.496
505.683
748.809
1086.05
1315.31
1460.26
1490.9
1471.9
1424.73
1352.84
1278.48
1206.71
1139.16
1076.95
1020.28
968.938
922.521
880.577
842.648
808.306
777.155
748.846
723.063
699.535
678.017
658.298
640.191
623.534
608.18
594.003
580.891
568.743
557.471
546.997
537.25
528.166
519.691
511.772
504.365
497.428
490.924
484.818
479.081
473.684
468.601
463.808
459.283
455.007
450.959
447.123
443.482
440.019
436.722
433.574
430.563
427.676
424.901
422.226
419.64
417.131
414.691
412.305
409.969
407.666
405.839
404.431
403.07
401.752
400.475
399.238
398.037
396.873
395.744
394.649
393.587
392.558
391.562
390.596
389.664
388.759
387.889
387.043
386.239
385.44
384.717
383.925
383.371
382.364
382.571
326.357
379.031
469.037
558.777
638.698
697.36
731.048
751.613
751.548
746.851
735.635
718.269
699.189
679.19
658.979
639.059
619.75
601.242
583.639
566.988
551.295
536.543
522.702
509.728
497.577
486.198
475.545
465.568
456.224
447.467
439.257
431.556
424.329
417.54
411.161
405.162
399.517
394.201
389.192
384.468
380.011
375.802
371.825
368.063
364.503
361.131
357.934
354.899
352.017
349.274
346.664
344.173
341.795
339.52
337.34
335.245
333.232
331.287
329.41
327.588
325.822
324.098
322.42
321.108
320.108
319.15
318.23
317.348
316.501
315.689
314.91
314.163
313.448
312.763
312.108
311.482
310.883
310.311
309.765
309.244
308.746
308.273
307.819
307.392
306.971
306.609
306.144
306.103
279.303
295.946
329.99
372.946
415.467
455.582
485.942
510.78
525.732
535.158
538.236
537.128
534.036
527.723
519.684
510.55
500.765
490.654
480.453
470.334
460.417
450.785
441.492
432.572
424.042
415.909
408.173
400.826
393.857
387.253
380.999
375.079
369.476
364.174
359.158
354.411
349.918
345.666
341.639
337.826
334.214
330.791
327.547
324.47
321.551
318.781
316.152
313.655
311.283
309.027
306.883
304.842
302.9
301.048
299.285
297.6
295.994
294.456
292.99
291.579
290.236
288.937
287.703
286.759
286.051
285.383
284.751
284.156
283.595
283.069
282.577
282.118
281.692
281.296
280.928
280.587
280.271
279.977
279.703
279.448
279.211
278.989
278.782
278.587
278.405
278.234
278.067
277.933
278.465
294.45
326.194
368.275
409.646
449.636
480.258
505.172
520.934
530.659
534.458
533.608
530.987
525.187
517.516
508.691
499.17
489.285
479.278
469.325
459.549
450.038
440.849
432.018
423.565
415.499
407.82
400.522
393.596
387.03
380.808
374.917
369.339
364.059
359.062
354.333
349.856
345.617
341.604
337.803
334.202
330.791
327.558
324.493
321.589
318.833
316.222
313.746
311.399
309.173
307.065
305.065
303.173
301.378
299.682
298.074
296.558
295.121
293.77
292.491
291.294
290.159
289.106
288.331
287.764
287.24
286.758
286.313
285.905
285.53
285.186
284.872
284.585
284.323
284.086
283.87
283.674
283.498
283.338
283.194
283.063
282.947
282.839
282.743
282.656
282.577
282.506
282.367
322.47
372.538
449.95
537.62
613.223
673.458
708.501
730.95
734.635
731.235
722.451
707.138
689.765
671.261
652.3
633.426
614.991
597.216
580.229
564.095
548.84
534.459
520.932
508.227
496.304
485.121
474.636
464.804
455.584
446.935
438.819
431.199
424.042
417.316
410.991
405.04
399.438
394.162
389.189
384.5
380.077
375.903
371.962
368.24
364.725
361.405
358.267
355.302
352.501
349.856
347.359
345.004
342.784
340.695
338.73
336.886
335.159
333.544
332.039
330.639
329.344
328.148
327.052
326.278
325.723
325.224
324.776
324.376
324.02
323.705
323.429
323.187
322.977
322.796
322.642
322.512
322.405
322.317
322.248
322.195
322.147
322.15
322
321.974
321.99
321.97
321.93
321.801
487.044
712.308
1005.13
1241.53
1384.03
1432.29
1418.85
1381.73
1318.33
1250.31
1183.65
1120.13
1061.12
1007.03
957.774
913.053
872.498
835.713
802.317
771.954
744.303
719.074
696.012
674.89
655.506
637.686
621.272
606.128
592.131
579.173
567.159
556.002
545.628
535.967
526.96
518.551
510.692
503.339
496.451
489.994
483.936
478.246
472.9
467.873
463.144
458.694
454.505
450.563
446.851
443.359
440.074
436.987
434.087
431.369
428.823
426.445
424.226
422.165
420.253
418.491
416.868
415.389
414.039
413.091
412.417
411.815
411.28
410.807
410.391
410.03
409.716
409.447
409.217
409.024
408.865
408.735
408.639
408.546
408.546
408.323
408.287
408.315
408.35
408.229
408.206
408.204
408.203
408.131
1258.18
2374.16
3046.21
3208.38
3103.65
2858.08
2567.87
2309.89
2086.15
1895.75
1734.65
1598
1481.55
1381.74
1295.65
1220.94
1155.72
1098.44
1047.88
1003.02
963.035
927.246
895.083
866.074
839.817
815.978
794.269
774.446
756.296
739.641
724.32
710.198
697.155
685.086
673.897
663.509
653.847
644.85
636.459
628.625
621.3
614.447
608.026
602.009
596.363
591.065
586.09
581.418
577.03
572.912
569.044
565.42
562.021
558.844
555.872
553.106
550.529
548.145
545.937
543.911
542.05
540.363
538.829
537.752
536.988
536.309
535.707
535.178
534.715
534.313
533.968
533.674
533.426
533.22
533.055
532.911
532.857
532.568
532.576
532.354
532.315
532.275
532.289
532.393
532.331
532.364
532.359
532.222
4676.95
6584.93
6456.84
5781.51
4822.35
4060.95
3462.73
2998.13
2634.24
2345.64
2113.73
1924.86
1769.17
1639.33
1529.96
1436.94
1357.17
1288.24
1228.26
1175.74
1129.48
1088.53
1052.1
1019.55
990.348
964.047
940.277
918.725
899.122
881.246
864.895
849.908
836.133
823.45
811.743
800.92
790.894
781.592
772.947
764.901
757.403
750.407
743.872
737.762
732.045
726.694
721.68
716.984
712.582
708.462
704.602
700.995
697.622
694.479
691.55
688.835
686.317
684
681.867
679.927
678.157
676.572
675.145
674.169
673.484
672.887
672.368
671.922
671.541
671.227
670.96
670.751
670.576
670.451
670.339
670.217
670.19
669.995
669.936
669.965
669.921
669.924
670.04
670.039
670.15
670.29
670.271
670.049
11779.6
11643.5
9771.8
7532.2
5924.88
4796.88
3988.64
3395.35
2949.13
2605.84
2336.49
2121.37
1946.96
1803.59
1684.39
1584.2
1499.22
1426.53
1363.9
1309.56
1262.12
1220.48
1183.73
1151.15
1122.14
1096.2
1072.91
1051.94
1032.99
1015.81
1000.18
985.94
972.918
960.99
950.031
939.948
930.645
922.052
914.096
906.72
899.871
893.502
887.574
882.049
876.896
872.088
867.599
863.409
859.495
855.846
852.443
849.277
846.333
843.608
841.086
838.769
836.642
834.709
832.958
831.391
829.996
828.782
827.726
827.058
826.61
826.246
825.949
825.717
825.545
825.457
825.353
825.302
825.231
825.127
825.14
825.242
825.419
825.613
825.812
826.02
826.229
826.454
826.673
826.929
827.14
827.448
827.596
827.359
19100.8
16247.8
11639.7
8525.73
6509.95
5175.7
4258.03
3603.19
3120.87
2755.88
2473.39
2250.41
2071.55
1925.95
1806.03
1706.13
1622.16
1550.94
1490.11
1437.78
1392.49
1353.06
1318.57
1288.23
1261.44
1237.68
1216.51
1197.6
1180.63
1165.37
1151.58
1139.11
1127.77
1117.46
1108.04
1099.43
1091.53
1084.27
1077.58
1071.41
1065.71
1060.44
1055.55
1051.02
1046.82
1042.91
1039.28
1035.92
1032.79
1029.89
1027.21
1024.75
1022.47
1020.4
1018.51
1016.8
1015.27
1013.92
1012.75
1011.74
1010.91
1010.24
1009.74
1009.53
1009.37
1009.34
1009.25
1009.34
1009.51
1009.74
1009.99
1010.27
1010.57
1010.9
1011.25
1011.63
1012.02
1012.42
1012.84
1013.26
1013.68
1014.1
1014.53
1014.96
1015.39
1015.81
1016.24
1015.97
25845.8
19260.9
12746.1
9031.66
6787.26
5355.67
4394.82
3720.97
3231.22
2864.65
2583.69
2363.9
2189.15
2048.11
1932.99
1837.93
1758.77
1692.27
1636.03
1588.12
1547.09
1511.74
1481.14
1454.51
1431.25
1410.83
1392.85
1376.95
1362.83
1350.25
1339.01
1328.94
1319.87
1311.7
1304.3
1297.59
1291.49
1285.93
1280.85
1276.2
1271.93
1268.02
1264.41
1261.09
1258.04
1255.22
1252.63
1250.25
1248.06
1246.07
1244.24
1242.61
1241.12
1239.83
1238.67
1237.69
1236.88
1236.2
1235.73
1235.36
1235.26
1235.18
1235.33
1235.62
1235.98
1236.39
1236.84
1237.34
1237.88
1238.46
1239.06
1239.7
1240.36
1241.03
1241.72
1242.42
1243.13
1243.84
1244.55
1245.25
1245.97
1246.64
1247.36
1247.99
1248.72
1249.28
1250.07
1249.74
31924.8
20975.3
13352.7
9275.43
6918.52
5454.09
4487.94
3818.85
3337.48
2980.43
2709.16
2498.79
2333.1
2200.64
2093.67
2006.29
1934.41
1874.75
1824.97
1783.13
1747.81
1717.83
1692.26
1670.36
1651.53
1635.26
1621.17
1608.9
1598.18
1588.79
1580.52
1573.23
1566.77
1561.04
1555.92
1551.35
1547.25
1543.56
1540.24
1537.24
1534.51
1532.05
1529.81
1527.78
1525.94
1524.28
1522.77
1521.42