/*--------------------------------*- C++ -*----------------------------------*\
| =========                 |                                                 |
| \\      /  F ield         | OpenFOAM: The Open Source CFD Toolbox           |
|  \\    /   O peration     | Version:  2306                                  |
|   \\  /    A nd           | Website:  www.openfoam.com                      |
|    \\/     M anipulation  |                                                 |
\*---------------------------------------------------------------------------*/
FoamFile
{
    version     2.0;
    format      ascii;
    arch        "LSB;label=32;scalar=64";
    class       volScalarField;
    location    "1700";
    object      k;
}
// * * * * * * * * * * * * * * * * * * * * * * * * * * * * * * * * * * * * * //

dimensions      [0 2 -2 0 0 0 0];

internalField   nonuniform List<scalar> 
20540
(
102.648
218.187
102.63
218.176
102.54
218.128
102.37
218.039
102.104
217.899
101.721
217.695
101.194
217.414
100.493
217.038
99.5796
216.543
98.4104
215.903
96.9323
215.083
95.0833
214.041
92.7907
212.719
89.9712
211.045
86.5319
208.924
82.3725
206.227
77.3912
202.781
71.4951
198.348
64.6221
192.592
56.7885
185.03
48.2013
174.94
39.0817
161.572
29.7945
144.12
21.0193
121.95
14.1057
95.1298
10.4815
65.0012
8.72385
35.1555
7.81055
15.5979
7.34295
8.91249
6.98839
7.22352
6.83173
6.70344
6.78737
6.51837
6.78749
6.50923
6.82968
6.67124
6.97171
7.15349
7.30078
8.58711
7.75109
14.1393
8.61194
31.1039
10.2018
59.0811
13.4468
88.2148
19.8987
114.57
28.3672
136.732
37.5163
154.418
46.6396
168.109
55.3519
178.522
63.3975
186.378
70.5386
192.395
76.7342
197.058
82.0272
200.704
86.4954
203.575
90.2305
205.849
93.326
207.657
95.8715
209.096
97.9488
210.243
99.6307
211.154
100.981
211.876
102.053
212.442
102.894
212.883
103.542
213.22
104.031
213.473
104.388
213.657
104.636
213.785
104.795
213.866
104.879
213.91
104.9
213.921
35.5288
18.8777
16.1337
14.6079
13.6785
13.0819
12.6696
12.3696
12.1446
11.9714
11.8351
11.7263
11.6381
11.5661
11.5063
11.4568
11.4152
11.3802
11.3505
11.3252
11.3035
11.285
11.2689
11.255
11.2429
11.2323
11.223
11.2148
11.2077
11.2013
11.1956
11.1905
11.186
11.182
11.1784
11.1751
11.1722
11.1695
11.1673
11.1652
11.1635
11.1621
11.161
11.1601
11.1597
11.1597
11.1602
11.1611
11.1628
11.165
11.1682
11.1722
11.1772
11.1835
11.1911
11.2003
11.211
11.2238
11.2386
11.2561
11.276
11.2992
11.3256
11.351
11.3725
11.3957
11.42
11.4462
11.4734
11.5025
11.5329
11.5652
11.5992
11.6351
11.6731
11.7129
11.7559
11.8001
11.8506
11.8998
11.9643
12.017
12.1155
12.1539
12.3376
12.368
12.8463
11.8173
30.8661
11.7031
9.16279
7.91944
7.21254
6.77447
6.48148
6.27305
6.1188
6.00133
5.90972
5.83702
5.77839
5.73074
5.69131
5.6588
5.63145
5.60859
5.5892
5.57267
5.55858
5.54652
5.53602
5.527
5.51913
5.51227
5.50627
5.50096
5.49631
5.49215
5.48849
5.48517
5.48225
5.47959
5.47724
5.47507
5.47315
5.47138
5.46984
5.46841
5.46719
5.46606
5.46515
5.46432
5.46372
5.46321
5.463
5.46293
5.46317
5.46357
5.46434
5.46538
5.46684
5.46871
5.47104
5.47392
5.47729
5.48144
5.48612
5.49179
5.49808
5.50562
5.51392
5.52199
5.52867
5.53619
5.54363
5.55185
5.55993
5.56874
5.5775
5.58701
5.59629
5.60661
5.61619
5.62757
5.63707
5.64981
5.65863
5.67383
5.68167
5.69892
5.70959
5.71242
5.74497
5.72798
5.79699
5.66369
37.8975
15.904
12.8207
11.2572
10.3398
9.75962
9.36612
9.08338
8.87261
8.71125
8.58489
8.48427
8.40292
8.33666
8.28174
8.2364
8.1982
8.16624
8.13911
8.11596
8.09622
8.0793
8.06459
8.05192
8.04088
8.03124
8.02282
8.01536
8.00882
8.00297
7.99783
7.99318
7.98907
7.98532
7.98203
7.97897
7.97628
7.97379
7.97163
7.96962
7.96792
7.96632
7.96506
7.9639
7.96308
7.96239
7.9621
7.96202
7.96239
7.96299
7.96411
7.96563
7.96774
7.97044
7.97381
7.97796
7.98284
7.98881
7.99556
8.00373
8.01279
8.02362
8.03559
8.04722
8.05693
8.06775
8.07848
8.09028
8.10193
8.11455
8.12715
8.1407
8.15399
8.1686
8.18234
8.19838
8.21205
8.22971
8.24243
8.26267
8.27349
8.29538
8.30831
8.31026
8.3445
8.31515
8.36217
8.31722
43.5933
18.7296
15.3426
13.6926
12.7268
12.1137
11.6962
11.3952
11.17
10.9973
10.8617
10.7536
10.6661
10.5948
10.5356
10.4867
10.4454
10.4109
10.3816
10.3566
10.3352
10.3169
10.301
10.2873
10.2754
10.2649
10.2558
10.2477
10.2407
10.2343
10.2287
10.2237
10.2193
10.2152
10.2116
10.2083
10.2054
10.2027
10.2004
10.1982
10.1964
10.1946
10.1933
10.192
10.1912
10.1904
10.1901
10.1901
10.1905
10.1912
10.1925
10.1942
10.1965
10.1995
10.2033
10.2079
10.2133
10.2199
10.2274
10.2364
10.2465
10.2585
10.2717
10.2846
10.2953
10.3072
10.3191
10.3321
10.345
10.3588
10.3727
10.3876
10.4022
10.4182
10.4333
10.4507
10.4659
10.4848
10.4993
10.5202
10.533
10.5547
10.5695
10.5731
10.604
10.5782
10.6117
10.4546
48.2403
20.4475
16.6051
14.8574
13.8612
13.2337
12.8082
12.5019
12.2729
12.0971
11.9591
11.8491
11.76
11.6873
11.627
11.5772
11.5352
11.5001
11.4702
11.4447
11.4229
11.4043
11.388
11.3741
11.3619
11.3512
11.3419
11.3337
11.3265
11.32
11.3143
11.3092
11.3046
11.3005
11.2968
11.2935
11.2905
11.2877
11.2853
11.2831
11.2812
11.2794
11.2779
11.2766
11.2756
11.2748
11.2743
11.2741
11.2744
11.2748
11.2758
11.2772
11.2792
11.2817
11.285
11.289
11.2937
11.2995
11.306
11.3139
11.3227
11.3332
11.3446
11.3559
11.3652
11.3756
11.3858
11.3971
11.4081
11.4201
11.4318
11.4444
11.4566
11.4701
11.4823
11.4969
11.5088
11.5245
11.5351
11.5523
11.5606
11.5779
11.5856
11.5883
11.605
11.5833
11.5868
11.4008
52.3468
21.8514
17.3965
15.4931
14.4524
13.8092
13.3776
13.0687
12.8384
12.6619
12.5235
12.4131
12.3238
12.251
12.1905
12.1406
12.0985
12.0633
12.0334
12.0078
11.986
11.9674
11.9511
11.9371
11.9249
11.9142
11.9049
11.8967
11.8894
11.883
11.8773
11.8721
11.8676
11.8634
11.8597
11.8563
11.8533
11.8505
11.8481
11.8458
11.8438
11.842
11.8405
11.839
11.838
11.837
11.8364
11.8359
11.8359
11.8361
11.8367
11.8376
11.839
11.8409
11.8433
11.8464
11.85
11.8546
11.8596
11.8658
11.8726
11.8809
11.8897
11.8986
11.9057
11.9139
11.9217
11.9305
11.9388
11.948
11.9566
11.9662
11.9749
11.985
11.9934
12.0043
12.0118
12.0234
12.0292
12.0415
12.0448
12.0565
12.0569
12.0585
12.0613
12.0466
12.0186
11.8429
56.1703
23.2363
18.0573
15.9249
14.8112
14.1429
13.7026
13.3911
13.1603
12.9839
12.846
12.7362
12.6474
12.575
12.515
12.4655
12.4237
12.3888
12.3591
12.3338
12.3122
12.2937
12.2776
12.2637
12.2516
12.2411
12.2318
12.2237
12.2165
12.2101
12.2044
12.1993
12.1948
12.1907
12.187
12.1836
12.1806
12.1778
12.1754
12.1731
12.1711
12.1692
12.1676
12.1661
12.1649
12.1638
12.163
12.1623
12.1621
12.1618
12.162
12.1624
12.1633
12.1644
12.166
12.1681
12.1705
12.1737
12.1771
12.1816
12.1862
12.1921
12.1981
12.2044
12.2093
12.215
12.2203
12.2265
12.232
12.2382
12.2438
12.2502
12.2554
12.262
12.2667
12.2737
12.2773
12.2844
12.2864
12.2932
12.2926
12.2984
12.2938
12.2938
12.286
12.2813
12.2283
12.0623
59.8435
24.6991
18.7314
16.2957
15.0687
14.3578
13.9019
13.5854
13.3534
13.1774
13.0404
12.9317
12.8439
12.7726
12.7134
12.6648
12.6236
12.5894
12.5602
12.5353
12.5142
12.496
12.4802
12.4666
12.4548
12.4444
12.4354
12.4274
12.4204
12.4141
12.4085
12.4035
12.3991
12.395
12.3914
12.3881
12.3851
12.3824
12.3799
12.3776
12.3757
12.3737
12.3721
12.3705
12.3692
12.368
12.367
12.3661
12.3656
12.365
12.3648
12.3647
12.3649
12.3654
12.3661
12.3672
12.3685
12.3703
12.3721
12.3748
12.3773
12.3808
12.3841
12.388
12.3906
12.3941
12.3969
12.4006
12.4033
12.4068
12.4094
12.4128
12.4149
12.4183
12.4196
12.4229
12.4233
12.426
12.4248
12.427
12.423
12.4244
12.4161
12.4143
12.3979
12.3964
12.3459
12.1783
63.4398
26.2722
19.4841
16.6826
15.2941
14.5148
14.0309
13.7037
13.4682
13.2918
13.1556
13.0482
12.9619
12.892
12.8341
12.7866
12.7465
12.7131
12.6848
12.6606
12.6401
12.6225
12.6072
12.5941
12.5826
12.5726
12.5639
12.5561
12.5493
12.5432
12.5379
12.533
12.5287
12.5248
12.5213
12.518
12.5152
12.5124
12.5101
12.5078
12.5058
12.5039
12.5023
12.5006
12.4992
12.4979
12.4968
12.4956
12.4949
12.494
12.4935
12.4929
12.4925
12.4923
12.4923
12.4924
12.4925
12.4931
12.4935
12.4944
12.495
12.4963
12.4971
12.4986
12.4992
12.5005
12.5011
12.5025
12.5028
12.5038
12.5038
12.5045
12.5039
12.5042
12.503
12.5029
12.5006
12.5
12.4959
12.4947
12.4876
12.4859
12.4743
12.4711
12.4487
12.4469
12.4032
12.2437
67.0032
27.969
20.3435
17.1329
15.5349
14.6544
14.1235
13.7757
13.5318
13.3525
13.2161
13.1097
13.0248
12.9564
12.9001
12.8541
12.8153
12.7832
12.756
12.7328
12.7131
12.6963
12.6817
12.6691
12.6582
12.6487
12.6404
12.633
12.6266
12.6208
12.6157
12.611
12.607
12.6032
12.5999
12.5967
12.594
12.5914
12.5891
12.5869
12.585
12.583
12.5814
12.5797
12.5783
12.5769
12.5757
12.5744
12.5734
12.5722
12.5714
12.5704
12.5696
12.5687
12.5679
12.5673
12.5664
12.5658
12.5648
12.5643
12.5631
12.5625
12.5609
12.5605
12.5593
12.5588
12.5573
12.5567
12.5549
12.554
12.5516
12.5502
12.5471
12.5454
12.5413
12.5392
12.5341
12.5315
12.5244
12.5213
12.5115
12.5077
12.4935
12.4889
12.464
12.4592
12.422
12.2809
70.5606
29.7995
21.3207
17.6754
15.8274
14.8097
14.2073
13.8238
13.5629
13.376
13.2368
13.1299
13.0458
12.9789
12.924
12.8797
12.8425
12.8119
12.7859
12.764
12.7454
12.7296
12.7159
12.7041
12.6939
12.685
12.6773
12.6704
12.6644
12.659
12.6543
12.6499
12.6462
12.6426
12.6395
12.6366
12.634
12.6315
12.6294
12.6273
12.6255
12.6236
12.622
12.6203
12.6189
12.6174
12.6162
12.6147
12.6136
12.6122
12.6111
12.6097
12.6085
12.6071
12.6057
12.6044
12.6026
12.6011
12.5989
12.5972
12.5944
12.5923
12.5887
12.5867
12.5838
12.5821
12.5787
12.5767
12.5729
12.5706
12.566
12.5633
12.558
12.5548
12.5485
12.545
12.5376
12.5335
12.5244
12.5198
12.5081
12.5029
12.4871
12.4811
12.4558
12.4475
12.4143
12.3016
74.1276
31.7742
22.42
18.3256
16.1986
15.0101
14.308
13.8692
13.5784
13.376
13.2291
13.119
13.034
12.9675
12.9137
12.8708
12.8351
12.806
12.7816
12.761
12.7438
12.7291
12.7164
12.7057
12.6964
12.6882
12.6812
12.675
12.6695
12.6646
12.6604
12.6565
12.6531
12.6498
12.6471
12.6444
12.642
12.6398
12.6378
12.6358
12.6341
12.6324
12.6309
12.6293
12.6279
12.6264
12.6251
12.6236
12.6224
12.6208
12.6195
12.6178
12.6163
12.6145
12.6126
12.6107
12.6083
12.6061
12.6029
12.6003
12.5962
12.5929
12.5876
12.5845
12.5802
12.5775
12.5726
12.5697
12.5642
12.561
12.5548
12.5511
12.544
12.54
12.532
12.5275
12.5184
12.5134
12.5029
12.4973
12.4845
12.4782
12.4616
12.4543
12.4297
12.4186
12.3879
12.2985
77.7105
33.9044
23.6451
19.0906
16.6667
15.2804
14.451
13.9337
13.5964
13.3668
13.2046
13.0862
12.997
12.9288
12.8748
12.8326
12.7979
12.7702
12.7471
12.7279
12.712
12.6987
12.6871
12.6775
12.6692
12.662
12.6558
12.6503
12.6456
12.6413
12.6376
12.6342
12.6313
12.6284
12.626
12.6237
12.6217
12.6196
12.6179
12.6161
12.6146
12.613
12.6117
12.6101
12.6088
12.6074
12.6061
12.6046
12.6033
12.6017
12.6002
12.5984
12.5966
12.5946
12.5924
12.59
12.5871
12.5843
12.5805
12.5772
12.5722
12.5681
12.5615
12.5576
12.5524
12.5489
12.543
12.5394
12.5328
12.5289
12.5215
12.5172
12.509
12.5044
12.4953
12.4902
12.4801
12.4745
12.4631
12.4569
12.4435
12.4366
12.4197
12.4114
12.3879
12.3748
12.346
12.2752
81.3063
36.2016
25.0015
19.9738
17.2419
15.6392
14.659
14.0402
13.6367
13.3652
13.1767
13.0422
12.9435
12.87
12.8131
12.7697
12.7348
12.7076
12.6854
12.6673
12.6525
12.6404
12.63
12.6215
12.6142
12.608
12.6028
12.5981
12.5942
12.5906
12.5876
12.5847
12.5823
12.58
12.578
12.5761
12.5744
12.5727
12.5713
12.5697
12.5685
12.567
12.5659
12.5645
12.5633
12.5619
12.5608
12.5593
12.558
12.5563
12.5549
12.553
12.5511
12.5489
12.5465
12.5439
12.5407
12.5375
12.5333
12.5295
12.5239
12.5193
12.512
12.5075
12.5018
12.4979
12.4914
12.4873
12.4801
12.4757
12.4677
12.463
12.4542
12.4492
12.4396
12.4341
12.4235
12.4176
12.4058
12.3994
12.3857
12.3784
12.3617
12.3525
12.3305
12.3145
12.2891
12.233
84.9012
38.6757
26.4974
20.9784
17.9296
16.0986
14.9501
14.2096
13.7205
13.39
13.1617
13.0007
12.8846
12.7997
12.7357
12.688
12.6507
12.6223
12.5997
12.5817
12.5675
12.556
12.5465
12.5389
12.5325
12.5272
12.5228
12.519
12.5158
12.513
12.5106
12.5084
12.5066
12.5048
12.5033
12.5018
12.5005
12.4991
12.498
12.4968
12.4958
12.4946
12.4937
12.4924
12.4915
12.4902
12.4892
12.4878
12.4866
12.485
12.4835
12.4816
12.4797
12.4775
12.475
12.4723
12.4689
12.4657
12.4612
12.4572
12.4514
12.4465
12.4389
12.4341
12.4281
12.424
12.4173
12.4129
12.4055
12.4009
12.3927
12.3879
12.3789
12.3737
12.3639
12.3583
12.3477
12.3416
12.3298
12.3232
12.3096
12.302
12.2856
12.276
12.255
12.2374
12.2144
12.1706
88.4678
41.3327
28.1428
22.1094
18.7331
16.6652
15.3369
14.4593
13.8675
13.4614
13.1784
12.9783
12.8344
12.7302
12.6527
12.5957
12.5521
12.5196
12.4943
12.4748
12.4597
12.4479
12.4384
12.431
12.4251
12.4203
12.4165
12.4133
12.4107
12.4085
12.4067
12.405
12.4037
12.4024
12.4014
12.4002
12.3994
12.3983
12.3976
12.3966
12.3959
12.3949
12.3942
12.3932
12.3924
12.3913
12.3904
12.3892
12.3881
12.3866
12.3852
12.3834
12.3815
12.3793
12.3769
12.3742
12.3709
12.3676
12.3631
12.3591
12.3532
12.3483
12.3407
12.3358
12.3299
12.3257
12.3191
12.3146
12.3073
12.3026
12.2946
12.2897
12.2808
12.2756
12.2659
12.2604
12.2499
12.2439
12.2322
12.2255
12.2122
12.2045
12.1883
12.1785
12.1575
12.1422
12.1152
12.0866
91.9598
44.1709
29.9483
23.3737
19.6559
17.343
15.8267
14.8014
14.0937
13.5977
13.2456
12.9932
12.8101
12.6766
12.5773
12.5043
12.4488
12.4077
12.3762
12.3522
12.3339
12.3199
12.3089
12.3005
12.294
12.2889
12.2849
12.2817
12.2793
12.2773
12.2757
12.2743
12.2733
12.2723
12.2715
12.2707
12.2701
12.2693
12.2688
12.2681
12.2676
12.2668
12.2663
12.2654
12.2648
12.2638
12.2631
12.2619
12.2609
12.2595
12.2582
12.2565
12.2548
12.2527
12.2503
12.2477
12.2445
12.2413
12.2369
12.233
12.2273
12.2224
12.2151
12.2103
12.2046
12.2004
12.1941
12.1896
12.1827
12.178
12.1703
12.1653
12.1568
12.1517
12.1423
12.1369
12.1266
12.1207
12.1093
12.1026
12.0895
12.0817
12.0659
12.056
12.0352
12.0214
11.9914
11.9758
95.3022
47.1759
31.9228
24.7795
20.7027
18.1349
16.4236
15.2432
14.4104
13.8135
13.3804
13.0635
12.8295
12.656
12.5256
12.4283
12.354
12.2983
12.2555
12.2227
12.1977
12.1784
12.1634
12.1519
12.143
12.1361
12.1308
12.1265
12.1233
12.1207
12.1187
12.117
12.1158
12.1146
12.1137
12.1128
12.1122
12.1114
12.111
12.1102
12.1097
12.109
12.1085
12.1076
12.1071
12.1061
12.1054
12.1043
12.1033
12.102
12.1007
12.0991
12.0974
12.0954
12.0931
12.0906
12.0875
12.0843
12.0802
12.0763
12.071
12.0662
12.0593
12.0545
12.0492
12.045
12.0391
12.0347
12.0281
12.0234
12.0162
12.0112
12.0032
11.998
11.9892
11.9837
11.9738
11.9679
11.9568
11.9501
11.9372
11.9294
11.9138
11.9039
11.8838
11.8706
11.8396
11.8334
98.374
50.3169
34.0702
26.334
21.8784
19.0435
17.1296
15.7881
14.8237
14.1181
13.5952
13.2042
12.9091
12.6858
12.5148
12.3844
12.2833
12.2059
12.1455
12.0985
12.062
12.0333
12.0107
11.993
11.9791
11.9679
11.9592
11.9521
11.9466
11.942
11.9384
11.9353
11.9329
11.9308
11.9291
11.9275
11.9263
11.925
11.924
11.9229
11.922
11.921
11.9202
11.9191
11.9183
11.9171
11.9162
11.9149
11.9138
11.9124
11.911
11.9093
11.9076
11.9055
11.9032
11.9006
11.8976
11.8945
11.8905
11.8866
11.8815
11.8768
11.8702
11.8655
11.8605
11.8564
11.8509
11.8464
11.8403
11.8355
11.8288
11.8237
11.8162
11.8108
11.8025
11.7968
11.7874
11.7812
11.7705
11.7637
11.7511
11.7431
11.7278
11.7179
11.6987
11.6864
11.6556
11.6558
100.981
53.5424
36.3838
28.0399
23.186
20.0705
17.9454
16.4366
15.3355
14.5161
13.8972
13.425
13.0613
12.7799
12.56
12.3884
12.2529
12.1463
12.0616
11.9942
11.9405
11.8974
11.8626
11.8347
11.812
11.7935
11.7785
11.766
11.7559
11.7473
11.7402
11.7342
11.7291
11.7247
11.721
11.7176
11.7148
11.7121
11.7099
11.7076
11.7057
11.7037
11.7021
11.7002
11.6987
11.6969
11.6954
11.6936
11.692
11.6901
11.6884
11.6863
11.6842
11.6819
11.6793
11.6765
11.6733
11.67
11.666
11.662
11.6569
11.652
11.6457
11.6408
11.6361
11.6319
11.6266
11.6221
11.6163
11.6114
11.605
11.5997
11.5927
11.587
11.5791
11.573
11.5641
11.5574
11.5472
11.5397
11.5278
11.5191
11.5046
11.4945
11.4763
11.4658
11.4354
11.4387
102.805
56.7662
38.836
29.8882
24.6216
21.2131
18.8681
17.1862
15.944
15.0066
14.2878
13.7299
13.2923
12.9471
12.672
12.4527
12.276
12.1338
12.0183
11.9244
11.8477
11.7848
11.7328
11.69
11.6543
11.6246
11.5996
11.5786
11.5608
11.5455
11.5325
11.5213
11.5115
11.5029
11.4955
11.4888
11.4829
11.4775
11.4728
11.4682
11.4643
11.4604
11.4571
11.4537
11.4506
11.4476
11.4448
11.4419
11.4392
11.4363
11.4336
11.4308
11.4279
11.4248
11.4216
11.4182
11.4145
11.4107
11.4063
11.4018
11.3965
11.3911
11.3847
11.3795
11.3748
11.3703
11.3652
11.3603
11.3547
11.3494
11.3432
11.3376
11.3308
11.3246
11.3171
11.3104
11.3019
11.2945
11.2848
11.2766
11.2652
11.256
11.2423
11.232
11.2152
11.2052
11.1784
11.1828
103.366
59.8405
41.3614
31.8459
26.1657
22.4578
19.8872
18.0278
16.6412
15.5834
14.7621
14.1159
13.6014
13.1888
12.8547
12.5831
12.3604
12.1775
12.0262
11.9005
11.7957
11.7079
11.634
11.5716
11.5186
11.4734
11.4348
11.4014
11.3726
11.3475
11.3257
11.3064
11.2895
11.2744
11.261
11.2489
11.2381
11.2282
11.2194
11.2111
11.2037
11.1967
11.1903
11.1842
11.1787
11.1733
11.1683
11.1634
11.1588
11.1542
11.1498
11.1455
11.1412
11.1368
11.1323
11.1278
11.123
11.1181
11.1128
11.1074
11.1013
11.0951
11.0881
11.0822
11.0772
11.0723
11.0669
11.0616
11.0558
11.0501
11.0438
11.0376
11.0308
11.0241
11.0166
11.0093
11.0009
10.9929
10.9834
10.9746
10.9636
10.9539
10.941
10.9307
10.9152
10.9057
10.8823
10.8871
101.913
62.5082
43.8235
33.8344
27.7673
23.7685
20.9749
18.939
17.4083
16.2302
15.3062
14.5712
13.979
13.4978
13.1027
12.7766
12.5053
12.2785
12.0879
11.9269
11.7902
11.6737
11.5739
11.4881
11.4139
11.3495
11.2935
11.2444
11.2012
11.1631
11.1293
11.0992
11.0724
11.0481
11.0264
11.0066
10.9888
10.9724
10.9575
10.9437
10.9311
10.9193
10.9085
10.8983
10.8888
10.8799
10.8715
10.8635
10.8559
10.8486
10.8416
10.8348
10.8282
10.8217
10.8152
10.8088
10.8022
10.7956
10.7888
10.7818
10.7744
10.7668
10.7584
10.7516
10.7459
10.7402
10.7342
10.7282
10.7219
10.7155
10.7087
10.7019
10.6947
10.6874
10.6795
10.6717
10.6631
10.6545
10.645
10.6357
10.6249
10.615
10.6028
10.5926
10.5783
10.5694
10.5488
10.5535
97.3052
64.3086
45.9577
35.6906
29.3164
25.0654
22.0702
19.8706
18.2044
16.9119
15.8899
15.0693
14.4018
13.8534
13.3983
13.018
12.6976
12.4263
12.195
11.9969
11.8264
11.6789
11.5508
11.4389
11.3409
11.2546
11.1784
11.1107
11.0505
10.9966
10.9483
10.9047
10.8654
10.8297
10.7973
10.7676
10.7406
10.7156
10.6927
10.6715
10.6519
10.6337
10.6168
10.6009
10.5862
10.5722
10.5592
10.5468
10.5351
10.5239
10.5133
10.503
10.4931
10.4835
10.4741
10.4649
10.4557
10.4466
10.4374
10.4282
10.4186
10.4089
10.3987
10.3903
10.3835
10.3767
10.3697
10.3627
10.3555
10.3482
10.3406
10.333
10.325
10.317
10.3085
10.3
10.2909
10.2819
10.2721
10.2624
10.2518
10.2417
10.2301
10.2201
10.2069
10.1985
10.1802
10.1842
87.9206
64.553
47.2513
37.0932
30.5947
26.1895
23.0501
20.7237
18.9475
17.5591
16.4527
15.5572
14.8225
14.2134
13.7032
13.2725
12.906
12.5921
12.3216
12.0873
11.8832
11.7045
11.5475
11.4088
11.2859
11.1763
11.0785
10.9908
10.9118
10.8404
10.7758
10.717
10.6635
10.6145
10.5697
10.5284
10.4904
10.4552
10.4228
10.3925
10.3645
10.3383
10.3139
10.2911
10.2697
10.2495
10.2305
10.2126
10.1956
10.1794
10.1641
10.1493
10.1352
10.1216
10.1084
10.0955
10.0829
10.0705
10.0582
10.0459
10.0335
10.021
10.0081
9.99763
9.98931
9.98101
9.97267
9.9643
9.95585
9.94733
9.93869
9.92997
9.92107
9.91206
9.90283
9.89348
9.88384
9.87413
9.86402
9.854
9.84339
9.83322
9.82201
9.81216
9.79996
9.79146
9.77553
9.77869
72.9495
61.0496
46.8334
37.4821
31.202
26.8409
23.6801
21.3087
19.4804
18.0383
16.8792
15.9332
15.1506
14.4962
13.9432
13.4722
13.0677
12.718
12.4138
12.1477
11.9135
11.7066
11.5229
11.359
11.2123
11.0804
10.9615
10.8538
10.7561
10.6671
10.5858
10.5113
10.443
10.38
10.322
10.2682
10.2185
10.1722
10.1293
10.0892
10.0518
10.0168
9.98399
9.9532
9.92427
9.897
9.87128
9.84695
9.82389
9.80199
9.78113
9.76121
9.74211
9.72377
9.70604
9.68889
9.67215
9.65581
9.63969
9.62378
9.60789
9.59202
9.5759
9.5629
9.55269
9.54257
9.53252
9.52251
9.51252
9.50254
9.49254
9.48252
9.47244
9.46233
9.45212
9.44187
9.43149
9.42112
9.41057
9.40013
9.38942
9.3791
9.36815
9.35838
9.34676
9.33868
9.32354
9.32619
52.5696
50.7867
43.2871
35.8845
30.4564
26.5162
23.5665
21.3056
19.534
18.118
16.967
16.0178
15.225
14.5556
13.9847
13.4938
13.0684
12.6972
12.3712
12.0834
11.8279
11.6
11.3959
11.2122
11.0463
10.896
10.7593
10.6347
10.5206
10.416
10.3198
10.2311
10.1492
10.0733
10.003
9.93751
9.8766
9.81975
9.76666
9.71696
9.6704
9.62668
9.58561
9.54693
9.51048
9.47607
9.44353
9.41271
9.38347
9.35566
9.32916
9.30386
9.27962
9.25634
9.23389
9.21221
9.19112
9.17059
9.15044
9.13064
9.11099
9.09148
9.07185
9.0561
9.0438
9.0317
9.01977
9.00798
8.99631
8.98473
8.97325
8.96184
8.95048
8.93919
8.92794
8.91676
8.9056
8.89455
8.8835
8.87264
8.86173
8.85122
8.84037
8.83058
8.81931
8.81151
8.79683
8.79915
27.5057
34.7569
33.8664
30.8701
27.2876
24.4026
22.0603
20.1812
18.6595
17.4121
16.3774
15.5093
14.7733
14.1432
13.5991
13.1255
12.7103
12.3441
12.0191
11.7291
11.4691
11.235
11.0234
10.8313
10.6564
10.4966
10.3501
10.2156
10.0916
9.97715
9.87125
9.77301
9.68177
9.59682
9.51764
9.44368
9.37453
9.30974
9.249
9.19194
9.1383
9.0878
9.0402
8.99527
8.95283
8.91266
8.87461
8.8385
8.80418
8.7715
8.74033
8.71054
8.68197
8.65454
8.62809
8.60253
8.57772
8.55356
8.52993
8.50672
8.48379
8.46106
8.43833
8.42014
8.40601
8.39216
8.37857
8.36522
8.35208
8.33914
8.32639
8.31382
8.30141
8.28918
8.27711
8.26523
8.25349
8.24197
8.2306
8.2195
8.2085
8.19793
8.18723
8.17752
8.16658
8.15909
8.14483
8.14696
11.6587
17.346
20.5729
21.1618
20.6966
19.6336
18.3855
17.2631
16.2682
15.3985
14.6429
13.9847
13.4091
12.9031
12.4561
12.059
11.7045
11.3864
11.0998
10.8404
10.6049
10.3902
10.1938
10.0138
9.84819
9.69551
9.55444
9.42379
9.30256
9.18985
9.0849
8.98699
8.89554
8.80997
8.72983
8.65465
8.58406
8.51769
8.45523
8.39638
8.34088
8.28848
8.23897
8.19211
8.14775
8.10567
8.06573
8.02776
7.99162
7.95715
7.92422
7.89269
7.86245
7.83336
7.8053
7.77816
7.75181
7.72614
7.70104
7.67639
7.65208
7.628
7.604
7.58486
7.57003
7.55556
7.54141
7.52757
7.51402
7.50074
7.48774
7.475
7.46252
7.4503
7.43834
7.42665
7.41521
7.40405
7.39315
7.38257
7.3722
7.36225
7.35234
7.34325
7.33334
7.32627
7.31337
7.31503
7.62634
8.71576
10.3389
11.5946
12.3445
12.6577
12.6113
12.463
12.1744
11.8487
11.5201
11.1977
10.8901
10.6008
10.3308
10.0798
9.84699
9.6311
9.43096
9.24528
9.0729
8.91268
8.76363
8.62478
8.49531
8.37442
8.26144
8.15571
8.05669
7.96383
7.87668
7.7948
7.71781
7.64534
7.57709
7.51274
7.45203
7.3947
7.34054
7.28931
7.24084
7.19492
7.15141
7.11012
7.07093
7.03368
6.99825
6.96449
6.9323
6.90154
6.87213
6.84391
6.81683
6.79074
6.76557
6.74118
6.71752
6.69444
6.67192
6.64977
6.628
6.60643
6.58504
6.56814
6.55512
6.54247
6.53016
6.51818
6.50652
6.49517
6.48413
6.47339
6.46295
6.45281
6.44296
6.43341
6.42415
6.41519
6.40651
6.39813
6.39002
6.38224
6.37464
6.36755
6.36015
6.35453
6.34484
6.34561
6.72368
6.87105
7.20305
7.64468
8.02049
8.3422
8.5248
8.64758
8.67039
8.65291
8.60581
8.52041
8.42209
8.31457
8.2021
8.08791
7.97423
7.86254
7.75387
7.64883
7.54782
7.45104
7.35858
7.27042
7.18649
7.10667
7.03084
6.95882
6.89046
6.82557
6.764
6.70557
6.65013
6.59751
6.54756
6.50014
6.45511
6.41233
6.37169
6.33306
6.29634
6.2614
6.22817
6.19653
6.16641
6.13769
6.11032
6.08419
6.05925
6.03538
6.01256
5.99066
5.96967
5.94946
5.93003
5.91124
5.89311
5.87548
5.85842
5.84171
5.82552
5.80954
5.79402
5.78207
5.77302
5.76433
5.756
5.74801
5.74035
5.73301
5.72598
5.71925
5.71282
5.70667
5.7008
5.69519
5.68983
5.68472
5.67985
5.6752
5.67076
5.66652
5.66247
5.6586
5.65486
5.65142
5.6475
5.64668
6.424
6.43631
6.49189
6.62406
6.78346
6.95907
7.09802
7.21333
7.28629
7.33287
7.34257
7.33527
7.31478
7.27616
7.22649
7.16942
7.10734
7.04213
6.97523
6.90776
6.84056
6.77424
6.70928
6.64598
6.5846
6.52526
6.46806
6.41305
6.36023
6.30959
6.2611
6.2147
6.17034
6.12795
6.08746
6.04881
6.01192
5.97671
5.94312
5.91107
5.8805
5.85134
5.82353
5.79699
5.77169
5.74756
5.72454
5.70258
5.68164
5.66165
5.64259
5.62438
5.60702
5.59042
5.5746
5.55944
5.54501
5.53114
5.51797
5.50525
5.49324
5.48154
5.47063
5.4625
5.45652
5.45091
5.44565
5.44072
5.43611
5.43179
5.42775
5.42397
5.42044
5.41713
5.41404
5.41114
5.40843
5.40588
5.4035
5.40125
5.39912
5.39711
5.39519
5.39335
5.39157
5.38987
5.38818
5.38679
6.41141
6.41968
6.4658
6.58902
6.74411
6.91814
7.06084
7.1741
7.25254
7.30139
7.31533
7.31028
7.29254
7.25857
7.21119
7.15628
7.09612
7.03258
6.96713
6.90091
6.83479
6.76941
6.70526
6.64267
6.58189
6.52309
6.46636
6.41175
6.35928
6.30895
6.26072
6.21456
6.1704
6.12819
6.08787
6.04935
6.01259
5.97749
5.944
5.91204
5.88156
5.85249
5.82477
5.79832
5.77313
5.7491
5.72621
5.70441
5.68366
5.66391
5.64512
5.62724
5.61028
5.59413
5.57884
5.56429
5.55057
5.53752
5.52527
5.51361
5.50277
5.49241
5.48295
5.47621
5.47139
5.46699
5.46297
5.45933
5.45603
5.45306
5.45039
5.448
5.44588
5.44397
5.44229
5.44081
5.4395
5.43836
5.43736
5.4365
5.43562
5.4348
5.43391
5.43298
5.43214
5.43133
5.43039
5.42914
6.68069
6.80581
7.07974
7.50562
7.85872
8.18492
8.38092
8.50289
8.55329
8.54403
8.51017
8.44165
8.35435
8.25708
8.15332
8.04657
7.93927
7.83304
7.72904
7.62802
7.53047
7.43667
7.34677
7.26083
7.17881
7.10066
7.02626
6.9555
6.88822
6.82428
6.76353
6.70583
6.65101
6.59894
6.54947
6.50248
6.45784
6.41541
6.3751
6.33678
6.30037
6.26576
6.23288
6.20162
6.17194
6.14375
6.117
6.09159
6.06751
6.04468
6.02309
6.00267
5.98341
5.96524
5.94819
5.93216
5.91722
5.90325
5.89034
5.87835
5.86743
5.85736
5.84837
5.84243
5.83837
5.83483
5.83179
5.82919
5.82702
5.82524
5.82384
5.82264
5.82231
5.81948
5.81941
5.81896
5.81854
5.81843
5.81712
5.81681
5.81688
5.81701
5.81728
5.81844
5.8199
5.82051
5.82058
5.82053
7.49303
8.47641
9.87578
11.1686
11.9078
12.3079
12.2911
12.1841
11.9574
11.6666
11.3663
11.0684
10.781
10.5085
10.2524
10.0131
9.79004
9.58239
9.3892
9.20943
9.04207
8.88615
8.74075
8.60505
8.47826
8.3597
8.2487
8.1447
8.04714
7.95557
7.86951
7.78858
7.7124
7.64065
7.57301
7.5092
7.44897
7.39208
7.33831
7.28747
7.23938
7.19388
7.15082
7.11006
7.07148
7.03496
7.00042
6.96775
6.93688
6.90772
6.88022
6.85431
6.82996
6.80711
6.78574
6.76578
6.74725
6.73008
6.71428
6.6998
6.68667
6.67478
6.66424
6.65726
6.6526
6.64848
6.64513
6.64219
6.63983
6.63806
6.63663
6.6354
6.63421
6.63308
6.63142
6.63054
6.62939
6.62899
6.6277
6.62831
6.62944
6.63035
6.63136
6.63276
6.63412
6.63608
6.63763
6.637
10.9318
16.0877
19.1753
20.2242
19.8934
19.0623
17.9517
16.9213
15.9999
15.1842
14.469
13.8419
13.2907
12.8041
12.3726
11.9879
11.6435
11.3336
11.0537
10.7999
10.5688
10.3578
10.1645
9.98684
9.82323
9.67216
9.53234
9.40271
9.28223
9.17013
9.06558
8.96798
8.87669
8.79123
8.7111
8.6359
8.56522
8.49876
8.43619
8.37724
8.32166
8.26923
8.21974
8.17302
8.12889
8.08721
8.04785
8.01068
7.97561
7.94254
7.91138
7.88206
7.85452
7.82869
7.80454
7.78201
7.76106
7.74168
7.7238
7.70744
7.69251
7.67903
7.66694
7.65881
7.65322
7.64833
7.64414
7.64051
7.63758
7.6349
7.63317
7.63141
7.62949
7.62759
7.62671
7.6239
7.62351
7.6233
7.62149
7.62133
7.62122
7.62131
7.62306
7.62417
7.62564
7.62714
7.62699
7.62652
24.7898
32.4422
32.0866
29.9092
26.6225
23.9435
21.735
19.9418
18.4814
17.2781
16.2759
15.432
14.7143
14.098
13.5646
13.0991
12.6903
12.3287
12.0072
11.7198
11.4616
11.2287
11.0177
10.8259
10.6509
10.4908
10.3438
10.2086
10.0838
9.96843
9.86149
9.76225
9.66988
9.58385
9.50352
9.42847
9.35817
9.29234
9.23052
9.17249
9.1179
9.06656
9.01819
8.97264
8.92969
8.88921
8.85103
8.81504
8.78112
8.74918
8.7191
8.69084
8.6643
8.63944
8.61619
8.59453
8.57438
8.55575
8.53854
8.5228
8.50841
8.49543
8.48372
8.47582
8.47034
8.46555
8.46139
8.45781
8.45478
8.45222
8.45012
8.44856
8.44647
8.44508
8.44453
8.44173
8.44058
8.43991
8.43923
8.43913
8.43919
8.44048
8.43992
8.44134
8.44238
8.44335
8.443
8.4426
48.8264
48.1839
42.0724
35.2269
30.0607
26.2707
23.4147
21.212
19.4792
18.0898
16.9575
16.0211
15.2375
14.574
14.0073
13.5188
13.0947
12.7238
12.3975
12.1087
11.8518
11.6222
11.4162
11.2304
11.0623
10.9097
10.7706
10.6435
10.527
10.42
10.3214
10.2304
10.1461
10.068
9.99535
9.92782
9.86477
9.80598
9.75093
9.69945
9.65114
9.60585
9.56327
9.52329
9.48566
9.45029
9.41698
9.38565
9.35616
9.32846
9.3024
9.27798
9.25507
9.23367
9.21367
9.19509
9.17784
9.16194
9.14729
9.13394
9.12177
9.11085
9.10104
9.09452
9.09003
9.08614
9.0828
9.07995
9.07761
9.0756
9.07408
9.07277
9.07187
9.07116
9.07065
9.07017
9.06986
9.06954
9.06908
9.06856
9.06807
9.06719
9.06691
9.06768
9.06881
9.06892
9.0691
9.06868
69.0083
59.1765
46.083
37.1623
31.0642
26.7941
23.6856
21.3438
19.5325
18.1
16.9465
16.0027
15.2207
14.5649
14.01
13.5359
13.1282
12.7747
12.4666
12.1963
11.958
11.7468
11.5589
11.3908
11.2399
11.104
10.9811
10.8696
10.7681
10.6754
10.5905
10.5127
10.441
10.3749
10.3138
10.2572
10.2046
10.1557
10.1101
10.0677
10.028
9.99087
9.95607
9.92351
9.89292
9.86425
9.83732
9.81205
9.78833
9.76609
9.74524
9.72575
9.70751
9.69056
9.67474
9.66016
9.64664
9.6343
9.62297
9.61277
9.60353
9.5954
9.58813
9.58357
9.58048
9.5779
9.57575
9.57406
9.5726
9.57176
9.5699
9.56823
9.56749
9.56681
9.56668
9.56654
9.56652
9.56765
9.56758
9.56858
9.56972
9.57083
9.57178
9.573
9.5739
9.57551
9.57583
9.57562
84.1112
63.6042
46.9391
37.0482
30.6554
26.2932
23.1732
20.8534
19.0775
17.6855
16.574
15.6719
14.9307
14.314
13.7967
13.3584
12.9847
12.6636
12.3863
12.1451
11.9345
11.7495
11.5864
11.4418
11.3132
11.1983
11.0953
11.0026
10.9189
10.843
10.774
10.7112
10.6536
10.601
10.5524
10.5079
10.4665
10.4284
10.3929
10.3601
10.3294
10.3009
10.2742
10.2493
10.226
10.2042
10.1838
10.1648
10.1469
10.1302
10.1147
10.1002
10.0866
10.0742
10.0626
10.052
10.0423
10.0336
10.0256
10.0186
10.0124
10.0071
10.0024
9.99993
9.99822
9.99691
9.99605
9.99537
9.9948
9.99459
9.99312
9.9932
9.99377
9.99445
9.99527
9.99623
9.99732
9.99859
9.99988
10.0012
10.0026
10.0041
10.0055
10.007
10.0085
10.0101
10.0114
10.0115
94.2604
63.822
45.9619
35.8501
29.5195
25.2743
22.2731
20.0624
18.3836
17.0774
16.0422
15.2083
14.5287
13.9678
13.5017
13.1101
12.7797
12.4984
12.258
12.051
11.8722
11.7167
11.5812
11.4622
11.3576
11.265
11.1828
11.1095
11.044
10.9851
10.932
10.8841
10.8404
10.8009
10.7645
10.7315
10.7009
10.6729
10.6469
10.6231