/*--------------------------------*- C++ -*----------------------------------*\
| =========                 |                                                 |
| \\      /  F ield         | OpenFOAM: The Open Source CFD Toolbox           |
|  \\    /   O peration     | Version:  2306                                  |
|   \\  /    A nd           | Website:  www.openfoam.com                      |
|    \\/     M anipulation  |                                                 |
\*---------------------------------------------------------------------------*/
FoamFile
{
    version     2.0;
    format      ascii;
    arch        "LSB;label=32;scalar=64";
    class       volScalarField;
    location    "1700";
    object      nut;
}
// * * * * * * * * * * * * * * * * * * * * * * * * * * * * * * * * * * * * * //

dimensions      [0 2 -1 0 0 0 0];

internalField   nonuniform List<scalar> 
20540
(
0.0331998
0.0998572
0.0219792
0.0722811
0.0188916
0.0650391
0.0174133
0.0611234
0.0164445
0.0580779
0.0157415
0.0556098
0.0152225
0.0536149
0.014842
0.05199
0.0145681
0.050647
0.0143759
0.0495158
0.0142438
0.0485385
0.0141518
0.0476657
0.0140797
0.0468536
0.0140054
0.0460621
0.013904
0.0452533
0.0137462
0.0443903
0.0134981
0.043433
0.0131223
0.0423315
0.0125851
0.0410128
0.0118742
0.0393681
0.0110247
0.0372498
0.0100501
0.0345713
0.0090604
0.0312695
0.00849025
0.0273142
0.0096335
0.0227203
0.0164401
0.0175438
0.0143703
0.012418
0.0127444
0.010239
0.0153103
0.0173526
0.0207022
0.0239368
0.0258906
0.0249314
0.0280072
0.0265286
0.0280144
0.0265708
0.0259879
0.0249514
0.0211128
0.0238748
0.0159094
0.0181163
0.0131277
0.0100281
0.0143174
0.0114513
0.0174056
0.0162601
0.00986838
0.0213085
0.00841941
0.0257877
0.00888169
0.0296486
0.00985559
0.0328779
0.0108577
0.0354953
0.0117515
0.0375571
0.0125083
0.0391459
0.013087
0.0404103
0.0134968
0.0414594
0.0137703
0.0423646
0.0139439
0.0431747
0.0140513
0.0439253
0.0141213
0.0446473
0.0141786
0.0453713
0.0142441
0.0461299
0.0143371
0.0469585
0.0144756
0.0478961
0.0146779
0.0489879
0.0149646
0.050287
0.0153602
0.0518595
0.0158971
0.0537896
0.016622
0.0561797
0.017619
0.0591381
0.019127
0.0629371
0.0222182
0.0698182
0.0333415
0.0957204
2.07631e-05
1.62176e-05
1.53239e-05
1.48057e-05
1.44785e-05
1.42618e-05
1.41092e-05
1.39965e-05
1.39109e-05
1.38444e-05
1.37916e-05
1.37492e-05
1.37147e-05
1.36863e-05
1.36627e-05
1.36432e-05
1.36266e-05
1.36127e-05
1.36009e-05
1.35908e-05
1.35822e-05
1.35747e-05
1.35683e-05
1.35627e-05
1.35579e-05
1.35536e-05
1.35499e-05
1.35466e-05
1.35437e-05
1.35412e-05
1.35389e-05
1.35368e-05
1.3535e-05
1.35334e-05
1.35319e-05
1.35306e-05
1.35294e-05
1.35284e-05
1.35274e-05
1.35266e-05
1.35259e-05
1.35252e-05
1.35248e-05
1.35244e-05
1.35242e-05
1.3524e-05
1.35241e-05
1.35244e-05
1.35249e-05
1.35256e-05
1.35266e-05
1.35279e-05
1.35296e-05
1.35317e-05
1.35343e-05
1.35374e-05
1.3541e-05
1.35453e-05
1.35503e-05
1.35562e-05
1.35629e-05
1.35708e-05
1.35796e-05
1.35881e-05
1.35952e-05
1.36029e-05
1.36109e-05
1.36196e-05
1.36286e-05
1.36382e-05
1.36481e-05
1.36587e-05
1.36698e-05
1.36815e-05
1.36937e-05
1.37067e-05
1.37202e-05
1.37348e-05
1.37503e-05
1.37671e-05
1.37869e-05
1.38055e-05
1.38369e-05
1.38498e-05
1.39129e-05
1.39161e-05
1.41204e-05
1.34114e-05
4.74538e-05
1.74741e-05
1.39783e-05
1.23761e-05
1.14953e-05
1.09536e-05
1.05959e-05
1.03436e-05
1.01571e-05
1.00153e-05
9.90493e-06
9.81737e-06
9.74676e-06
9.68941e-06
9.64193e-06
9.60285e-06
9.56993e-06
9.54247e-06
9.51916e-06
9.49928e-06
9.48236e-06
9.46788e-06
9.45525e-06
9.44442e-06
9.43498e-06
9.42673e-06
9.41952e-06
9.41313e-06
9.40754e-06
9.40253e-06
9.39812e-06
9.39411e-06
9.39058e-06
9.38734e-06
9.38448e-06
9.38181e-06
9.37944e-06
9.37721e-06
9.37525e-06
9.37337e-06
9.37174e-06
9.37011e-06
9.36872e-06
9.36729e-06
9.36609e-06
9.3648e-06
9.36376e-06
9.3627e-06
9.36175e-06
9.36073e-06
9.35984e-06
9.35889e-06
9.35802e-06
9.35713e-06
9.35622e-06
9.35533e-06
9.35423e-06
9.35329e-06
9.35191e-06
9.35076e-06
9.34893e-06
9.34741e-06
9.34496e-06
9.34286e-06
9.34058e-06
9.33905e-06
9.33639e-06
9.33414e-06
9.3306e-06
9.32744e-06
9.32296e-06
9.31895e-06
9.31289e-06
9.30808e-06
9.29952e-06
9.29442e-06
9.28162e-06
9.27704e-06
9.25678e-06
9.25556e-06
9.22265e-06
9.22618e-06
9.17691e-06
9.15867e-06
9.10946e-06
9.05836e-06
8.9599e-06
8.74085e-06
0.000132166
4.36782e-05
3.45454e-05
3.06017e-05
2.84848e-05
2.71915e-05
2.63393e-05
2.57386e-05
2.52946e-05
2.49565e-05
2.4693e-05
2.44837e-05
2.43148e-05
2.41775e-05
2.40637e-05
2.39701e-05
2.38911e-05
2.38252e-05
2.37692e-05
2.37215e-05
2.36809e-05
2.36461e-05
2.36158e-05
2.35898e-05
2.35671e-05
2.35473e-05
2.353e-05
2.35146e-05
2.35012e-05
2.34891e-05
2.34785e-05
2.34689e-05
2.34604e-05
2.34526e-05
2.34457e-05
2.34392e-05
2.34335e-05
2.34281e-05
2.34234e-05
2.34188e-05
2.34149e-05
2.34109e-05
2.34075e-05
2.3404e-05
2.3401e-05
2.33978e-05
2.33951e-05
2.33924e-05
2.33899e-05
2.33872e-05
2.33847e-05
2.3382e-05
2.33795e-05
2.33768e-05
2.3374e-05
2.33711e-05
2.33676e-05
2.33644e-05
2.336e-05
2.3356e-05
2.33502e-05
2.3345e-05
2.33373e-05
2.33308e-05
2.3324e-05
2.33191e-05
2.33114e-05
2.33047e-05
2.32949e-05
2.3286e-05
2.32738e-05
2.32628e-05
2.32468e-05
2.32342e-05
2.32122e-05
2.31995e-05
2.31675e-05
2.3157e-05
2.31073e-05
2.31059e-05
2.30254e-05
2.30374e-05
2.29194e-05
2.28797e-05
2.27611e-05
2.26574e-05
2.24419e-05
2.19907e-05
0.000308436
9.37752e-05
7.21672e-05
6.39382e-05
5.98839e-05
5.75273e-05
5.60242e-05
5.49896e-05
5.42363e-05
5.36688e-05
5.32297e-05
5.28832e-05
5.26048e-05
5.23793e-05
5.21929e-05
5.204e-05
5.19111e-05
5.18041e-05
5.17132e-05
5.16358e-05
5.157e-05
5.15138e-05
5.14648e-05
5.14228e-05
5.13862e-05
5.13543e-05
5.13264e-05
5.13016e-05
5.128e-05
5.12605e-05
5.12435e-05
5.12279e-05
5.12142e-05
5.12016e-05
5.11905e-05
5.118e-05
5.11707e-05
5.11619e-05
5.11541e-05
5.11466e-05
5.114e-05
5.11333e-05
5.11275e-05
5.11214e-05
5.11161e-05
5.11102e-05
5.11051e-05
5.10997e-05
5.10946e-05
5.10887e-05
5.1083e-05
5.10765e-05
5.10699e-05
5.10626e-05
5.10546e-05
5.10459e-05
5.10355e-05
5.10249e-05
5.10113e-05
5.09979e-05
5.09799e-05
5.09624e-05
5.09391e-05
5.0919e-05
5.08996e-05
5.08827e-05
5.08611e-05
5.08412e-05
5.08154e-05
5.07911e-05
5.07609e-05
5.07329e-05
5.06956e-05
5.06651e-05
5.06173e-05
5.05881e-05
5.05233e-05
5.04999e-05
5.04063e-05
5.04007e-05
5.02584e-05
5.02799e-05
5.00861e-05
5.00338e-05
4.98511e-05
4.97545e-05
4.9519e-05
4.84929e-05
0.000593946
0.000172803
0.000125906
0.000109426
0.000101995
9.79546e-05
9.55023e-05
9.38794e-05
9.27308e-05
9.18831e-05
9.12377e-05
9.07348e-05
9.03344e-05
9.00132e-05
8.97488e-05
8.95338e-05
8.9353e-05
8.9204e-05
8.90776e-05
8.89704e-05
8.88796e-05
8.88023e-05
8.87348e-05
8.86774e-05
8.86273e-05
8.85837e-05
8.85457e-05
8.85118e-05
8.84825e-05
8.84559e-05
8.84328e-05
8.84114e-05
8.83928e-05
8.83754e-05
8.83603e-05
8.83457e-05
8.8333e-05
8.83206e-05
8.83099e-05
8.82991e-05
8.82898e-05
8.82799e-05
8.82714e-05
8.8262e-05
8.82537e-05
8.82442e-05
8.82354e-05
8.82256e-05
8.82166e-05
8.82051e-05
8.81934e-05
8.81799e-05
8.81654e-05
8.81489e-05
8.81303e-05
8.81096e-05
8.80848e-05
8.80586e-05
8.80258e-05
8.79919e-05
8.79488e-05
8.79049e-05
8.78492e-05
8.7801e-05
8.77556e-05
8.77133e-05
8.76633e-05
8.76163e-05
8.75591e-05
8.75044e-05
8.74396e-05
8.7379e-05
8.7303e-05
8.72393e-05
8.71474e-05
8.70871e-05
8.69711e-05
8.69205e-05
8.67673e-05
8.67416e-05
8.65315e-05
8.65424e-05
8.62729e-05
8.62079e-05
8.59702e-05
8.59503e-05
8.56931e-05
8.39755e-05
0.000995956
0.000291506
0.000200214
0.000168459
0.000154929
0.000148007
0.000144018
0.000141497
0.00013978
0.000138549
0.000137634
0.000136935
0.000136387
0.000135953
0.000135599
0.000135316
0.000135078
0.000134885
0.000134721
0.000134584
0.000134468
0.00013437
0.000134284
0.000134212
0.000134149
0.000134094
0.000134047
0.000134005
0.000133968
0.000133935
0.000133907
0.00013388
0.000133857
0.000133835
0.000133816
0.000133798
0.000133782
0.000133766
0.000133752
0.000133738
0.000133726
0.000133713
0.000133701
0.000133688
0.000133676
0.000133662
0.000133649
0.000133633
0.000133619
0.0001336
0.000133581
0.000133557
0.000133532
0.000133503
0.00013347
0.000133432
0.000133387
0.000133339
0.000133279
0.000133217
0.000133139
0.000133058
0.000132958
0.000132871
0.000132791
0.000132714
0.000132626
0.000132542
0.000132444
0.00013235
0.000132241
0.000132138
0.000132014
0.000131908
0.000131765
0.000131665
0.000131496
0.000131405
0.000131204
0.000131132
0.00013089
0.000130845
0.000130552
0.000130461
0.00013024
0.000130285
0.000130318
0.00012637
0.00152567
0.000464311
0.0003045
0.000246255
0.000221857
0.000209865
0.000203243
0.000199239
0.00019662
0.000194807
0.000193499
0.000192526
0.000191779
0.0001912
0.000190736
0.000190369
0.000190066
0.000189822
0.000189619
0.000189448
0.000189307
0.000189188
0.000189085
0.000188999
0.000188924
0.00018886
0.000188804
0.000188755
0.000188712
0.000188674
0.00018864
0.000188609
0.000188582
0.000188557
0.000188535
0.000188513
0.000188494
0.000188475
0.000188459
0.000188442
0.000188427
0.00018841
0.000188396
0.000188379
0.000188363
0.000188344
0.000188327
0.000188303
0.000188284
0.000188257
0.000188228
0.000188194
0.000188156
0.000188112
0.000188062
0.000188006
0.000187937
0.000187864
0.000187774
0.00018768
0.000187562
0.000187441
0.00018729
0.000187162
0.000187045
0.00018693
0.000186801
0.000186679
0.000186537
0.000186401
0.000186248
0.000186102
0.000185933
0.000185783
0.000185597
0.000185453
0.000185251
0.000185106
0.000184897
0.000184748
0.000184539
0.00018439
0.000184186
0.000184017
0.000183994
0.000183925
0.000185028
0.000177293
0.0022014
0.000706994
0.000452375
0.000351463
0.000308411
0.000287566
0.000276354
0.000269795
0.00026566
0.000262896
0.000260966
0.000259572
0.000258533
0.000257747
0.000257129
0.000256653
0.000256266
0.000255962
0.000255712
0.000255505
0.000255337
0.000255198
0.000255078
0.000254979
0.000254895
0.000254823
0.000254761
0.000254706
0.00025466
0.000254618
0.000254582
0.000254548
0.000254519
0.000254491
0.000254468
0.000254443
0.000254423
0.000254401
0.000254383
0.000254363
0.000254347
0.000254327
0.00025431
0.000254289
0.00025427
0.000254247
0.000254225
0.000254194
0.000254169
0.000254133
0.000254097
0.000254051
0.000254001
0.000253943
0.000253876
0.0002538
0.000253709
0.000253612
0.000253492
0.000253366
0.00025321
0.00025305
0.000252852
0.000252685
0.000252535
0.000252386
0.000252219
0.000252063
0.000251885
0.000251714
0.000251525
0.000251341
0.000251142
0.000250954
0.000250749
0.00025056
0.000250364
0.000250156
0.000249988
0.000249758
0.000249642
0.000249388
0.000249389
0.000249064
0.000249457
0.000248902
0.000252325
0.000240479
0.00304618
0.0010354
0.000660831
0.000496403
0.000422969
0.000387083
0.000367924
0.00035692
0.00035016
0.00034577
0.000342793
0.000340705
0.000339192
0.00033808
0.000337229
0.000336591
0.000336084
0.000335697
0.000335386
0.000335135
0.000334935
0.000334774
0.000334637
0.000334528
0.000334436
0.000334359
0.000334295
0.000334238
0.000334191
0.000334148
0.000334113
0.000334078
0.00033405
0.000334022
0.000333999
0.000333974
0.000333954
0.000333931
0.000333913
0.000333892
0.000333875
0.000333852
0.000333835
0.00033381
0.00033379
0.000333762
0.000333737
0.000333701
0.000333671
0.000333626
0.000333585
0.000333528
0.000333469
0.000333399
0.000333318
0.000333227
0.000333116
0.000333
0.000332854
0.000332704
0.000332518
0.000332328
0.000332093
0.000331898
0.000331724
0.000331552
0.000331361
0.000331182
0.000330982
0.00033079
0.000330584
0.000330378
0.000330172
0.000329961
0.000329768
0.000329554
0.000329395
0.000329164
0.00032906
0.000328797
0.000328812
0.000328486
0.00032877
0.000328238
0.000329319
0.000327989
0.00033421
0.000319412
0.00408558
0.00146541
0.000949048
0.000697302
0.000577393
0.00051703
0.000484466
0.000465805
0.000454478
0.000447252
0.000442452
0.000439162
0.000436835
0.000435168
0.000433925
0.000433018
0.000432316
0.000431796
0.000431389
0.000431071
0.000430825
0.000430634
0.000430476
0.000430354
0.000430256
0.000430175
0.000430112
0.000430055
0.000430012
0.000429972
0.000429941
0.00042991
0.000429886
0.00042986
0.000429842
0.000429819
0.000429801
0.00042978
0.000429764
0.000429743
0.000429728
0.000429704
0.000429688
0.000429662
0.000429641
0.00042961
0.000429585
0.000429545
0.000429513
0.000429462
0.000429419
0.000429354
0.000429291
0.000429213
0.000429123
0.000429025
0.000428901
0.000428778
0.000428616
0.000428457
0.000428252
0.000428054
0.000427799
0.000427598
0.000427415
0.000427244
0.000427042
0.000426869
0.000426663
0.000426487
0.000426278
0.000426098
0.000425896
0.000425718
0.00042554
0.000425375
0.000425246
0.000425078
0.000425043
0.000424822
0.000425006
0.000424644
0.000425323
0.000424535
0.00042659
0.000424403
0.000433365
0.000416839
0.00534585
0.00201348
0.00133694
0.000973884
0.000787671
0.000689597
0.000635312
0.000603814
0.000584663
0.000572506
0.000564505
0.000559089
0.000555318
0.000552659
0.000550716
0.000549325
0.000548273
0.000547511
0.000546931
0.000546489
0.000546159
0.000545912
0.000545714
0.000545568
0.000545456
0.000545369
0.000545304
0.000545249
0.000545211
0.000545176
0.000545152
0.000545127
0.000545111
0.000545091
0.000545079
0.000545061
0.00054505
0.000545031
0.000545021
0.000545002
0.000544991
0.000544969
0.000544956
0.00054493
0.000544911
0.00054488
0.000544858
0.000544817
0.000544787
0.000544734
0.000544692
0.000544626
0.000544564
0.000544487
0.000544397
0.000544303
0.000544178
0.000544064
0.0005439
0.000543759
0.000543551
0.000543383
0.000543124
0.000542967
0.00054278
0.000542659
0.000542454
0.000542343
0.000542137
0.000542039
0.000541837
0.000541748
0.000541566
0.000541491
0.000541351
0.000541293
0.000541243
0.000541176
0.000541291
0.000541144
0.00054159
0.000541214
0.000542416
0.000541359
0.000544619
0.000541733
0.000553285
0.000535681
0.0068518
0.0026972
0.00184387
0.00134807
0.00107389
0.000921306
0.000833605
0.00078145
0.00074929
0.00072874
0.000715191
0.00070603
0.000699681
0.00069523
0.000692008
0.000689715
0.000688006
0.000686778
0.000685858
0.00068517
0.000684665
0.000684293
0.000684004
0.000683798
0.000683645
0.000683531
0.000683452
0.000683389
0.000683349
0.000683314
0.000683296
0.000683275
0.000683267
0.000683252
0.000683249
0.000683236
0.000683232
0.000683218
0.000683215
0.000683198
0.000683195
0.000683173
0.000683167
0.000683141
0.000683128
0.000683098
0.000683082
0.000683042
0.000683019
0.000682969
0.000682935
0.000682875
0.000682822
0.000682757
0.000682679
0.000682604
0.000682496
0.000682411
0.00068227
0.000682174
0.000681994
0.000681894
0.000681671
0.000681598
0.000681441
0.000681404
0.000681236
0.000681227
0.000681065
0.000681084
0.000680941
0.000680985
0.000680881
0.000680952
0.000680919
0.000681011
0.000681111
0.000681189
0.000681529
0.000681502
0.000682307
0.000681952
0.000683821
0.000682524
0.000687188
0.000683847
0.000698109
0.000678885
0.00862383
0.0035355
0.00248785
0.001842
0.00145915
0.00123309
0.00109706
0.00101336
0.000960486
0.000926144
0.000903242
0.000887633
0.00087676
0.000869102
0.000863558
0.000859593
0.000856645
0.000854514
0.000852921
0.00085173
0.000850854
0.000850206
0.000849708
0.00084935
0.000849085
0.000848888
0.000848751
0.000848644
0.000848576
0.00084852
0.00084849
0.000848459
0.000848449
0.00084843
0.000848429
0.000848415
0.000848414
0.000848399
0.0008484
0.000848383
0.000848384
0.000848362
0.00084836
0.000848334
0.000848326
0.000848297
0.000848288
0.000848253
0.000848239
0.000848196
0.000848177
0.00084813
0.000848098
0.000848054
0.000848005
0.000847965
0.000847896
0.000847863
0.000847774
0.000847755
0.000847643
0.000847652
0.000847519
0.000847575
0.000847492
0.000847578
0.000847496
0.000847629
0.000847569
0.000847748
0.000847725
0.00084795
0.000847987
0.000848255
0.000848398
0.000848696
0.000849019
0.000849302
0.00084994
0.000850094
0.000851356
0.000851064
0.000853769
0.000852302
0.000858601
0.000854987
0.00087222
0.000850935
0.0106737
0.00454863
0.00328485
0.00247593
0.00196734
0.00164921
0.00144797
0.00131898
0.0012349
0.00117894
0.0011409
0.00111458
0.00109601
0.00108278
0.00107312
0.00106613
0.0010609
0.00105706
0.00105416
0.00105197
0.00105034
0.0010491
0.00104815
0.00104744
0.0010469
0.00104649
0.00104619
0.00104595
0.00104578
0.00104564
0.00104555
0.00104547
0.00104542
0.00104537
0.00104534
0.0010453
0.00104528
0.00104525
0.00104524
0.00104521
0.0010452
0.00104517
0.00104516
0.00104513
0.00104512
0.00104509
0.00104508
0.00104505
0.00104504
0.00104501
0.00104501
0.00104498
0.00104498
0.00104496
0.00104496
0.00104497
0.00104496
0.001045
0.001045
0.00104509
0.00104509
0.00104525
0.00104527
0.0010455
0.00104554
0.00104579
0.00104585
0.00104617
0.00104627
0.00104666
0.00104682
0.00104727
0.00104752
0.00104804
0.00104843
0.00104899
0.00104961
0.00105017
0.00105118
0.00105158
0.00105342
0.00105325
0.00105697
0.00105545
0.00106371
0.00105974
0.00108034
0.00105671
0.0129973
0.00575782
0.00424814
0.00326627
0.00262023
0.00219469
0.0019118
0.0017223
0.00159411
0.00150619
0.00144493
0.00140164
0.00137055
0.00134802
0.00133134
0.00131906
0.00130976
0.00130281
0.00129749
0.00129341
0.00129029
0.00128788
0.00128599
0.00128454
0.0012834
0.0012825
0.00128181
0.00128125
0.00128082
0.00128046
0.00128019
0.00127995
0.00127978
0.00127961
0.0012795
0.00127938
0.00127929
0.0012792
0.00127914
0.00127905
0.00127901
0.00127893
0.0012789
0.00127883
0.0012788
0.00127874
0.00127873
0.00127868
0.00127867
0.00127864
0.00127865
0.00127863
0.00127866
0.00127868
0.00127873
0.0012788
0.00127888
0.00127901
0.00127912
0.00127935
0.00127951
0.00127985
0.00128008
0.00128053
0.00128075
0.00128119
0.00128146
0.00128199
0.00128232
0.00128296
0.00128337
0.0012841
0.00128462
0.00128546
0.00128615
0.00128705
0.00128804
0.00128893
0.00129042
0.00129112
0.00129368
0.00129371
0.00129865
0.00129723
0.00130778
0.00130349
0.00132767
0.00130103
0.0155641
0.00718502
0.00538731
0.00422388
0.00343439
0.0028917
0.00251411
0.0022498
0.00206381
0.00193181
0.00183713
0.00176849
0.00171809
0.00168082
0.00165274
0.00163167
0.00161546
0.00160312
0.0015935
0.00158599
0.00158013
0.00157551
0.00157181
0.00156889
0.00156654
0.00156465
0.00156313
0.00156187
0.00156086
0.00156
0.00155931
0.00155871
0.00155823
0.00155779
0.00155745
0.00155711
0.00155685
0.00155658
0.00155638
0.00155616
0.001556
0.00155582
0.00155569
0.00155553
0.00155544
0.00155531
0.00155524
0.00155514
0.00155511
0.00155504
0.00155504
0.00155502
0.00155507
0.0015551
0.00155521
0.00155533
0.00155549
0.00155572
0.00155596
0.00155633
0.00155669
0.00155724
0.00155773
0.00155842
0.00155887
0.00155953
0.00156005
0.00156085
0.00156145
0.00156238
0.00156309
0.00156416
0.00156501
0.00156621
0.00156727
0.00156857
0.00157
0.0015713
0.00157338
0.00157446
0.00157788
0.00157826
0.00158463
0.00158355
0.00159657
0.00159245
0.00161934
0.00158979
0.0183067
0.00885201
0.00670675
0.00535256
0.00441851
0.00375551
0.00327609
0.00292661
0.00267087
0.00248276
0.00234345
0.00223955
0.00216133
0.00210211
0.0020566
0.00202172
0.00199441
0.00197321
0.00195638
0.00194303
0.00193239
0.00192383
0.00191687
0.00191125
0.00190664
0.00190283
0.0018997
0.00189707
0.00189489
0.00189302
0.00189146
0.0018901
0.00188896
0.00188793
0.00188707
0.00188628
0.00188561
0.00188498
0.00188445
0.00188393
0.00188351
0.00188307
0.00188274
0.00188237
0.00188211
0.00188181
0.0018816
0.00188137
0.00188123
0.00188106
0.00188099
0.00188091
0.00188093
0.00188094
0.00188106
0.00188119
0.00188143
0.00188173
0.0018821
0.0018826
0.00188316
0.00188391
0.0018847
0.00188565
0.00188634
0.00188726
0.00188807
0.00188914
0.00189007
0.00189131
0.00189238
0.00189381
0.00189504
0.00189666
0.00189816
0.00189993
0.00190186
0.00190367
0.00190642
0.00190803
0.00191245
0.00191344
0.00192145
0.00192101
0.00193677
0.00193257
0.00196224
0.0019294
0.0211144
0.0107701
0.00820311
0.0066474
0.00557121
0.00479092
0.00420961
0.00377097
0.00343824
0.00318483
0.00299093
0.00284192
0.00272665
0.00263715
0.00256685
0.00251172
0.0024677
0.00243291
0.00240473
0.00238201
0.00236358
0.00234845
0.00233597
0.00232569
0.00231712
0.00230993
0.00230389
0.00229875
0.0022944
0.00229064
0.00228743
0.00228461
0.00228218
0.00228001
0.00227813
0.00227643
0.00227495
0.00227357
0.00227239
0.00227126
0.00227029
0.00226935
0.00226856
0.00226777
0.00226712
0.00226648
0.00226595
0.00226545
0.00226506
0.00226466
0.0022644
0.00226414
0.00226403
0.00226391
0.00226397
0.00226404
0.00226427
0.00226457
0.00226503
0.00226561
0.00226634
0.00226726
0.00226833
0.00226952
0.00227047
0.00227163
0.00227274
0.0022741
0.00227538
0.00227696
0.00227842
0.00228023
0.00228191
0.00228398
0.00228599
0.00228828
0.00229082
0.00229327
0.00229679
0.00229918
0.00230472
0.0023067
0.00231651
0.00231714
0.00233575
0.00233111
0.00236412
0.00232713
0.0238406
0.0129092
0.00986147
0.00809326
0.00687945
0.00598966
0.00531302
0.00478859
0.00437851
0.00405621
0.00380182
0.00360043
0.00344023
0.00331254
0.00320991
0.00312747
0.00306037
0.0030061
0.00296141
0.00292477
0.00289446
0.00286915
0.002848
0.00283026
0.00281522
0.00280245
0.00279154
0.00278215
0.00277407
0.00276702
0.0027609
0.0027555
0.00275077
0.00274654
0.00274282
0.00273945
0.00273647
0.00273373
0.0027313
0.00272903
0.00272704
0.00272515
0.00272349
0.0027219
0.00272052
0.0027192
0.00271806
0.00271698
0.00271607
0.00271524
0.00271454
0.00271392
0.00271346
0.00271305
0.00271287
0.00271272
0.00271282
0.00271299
0.00271341
0.00271395
0.00271476
0.00271576
0.00271704
0.00271843
0.00271961
0.00272099
0.0027224
0.00272403
0.00272566
0.00272758
0.00272946
0.00273167
0.00273387
0.00273641
0.00273904
0.00274193
0.00274522
0.00274844
0.00275291
0.00275639
0.00276323
0.00276668
0.00277843
0.00278053
0.00280196
0.00279662
0.00283362
0.00279147
0.0262958
0.0151924
0.0116503
0.00966312
0.00831755
0.00732895
0.00656847
0.00596814
0.00548769
0.00510011
0.00478574
0.00452995
0.00432098
0.00415004
0.00400935
0.00389363
0.00379751
0.00371796
0.00365135
0.00359562
0.00354876
0.00350897
0.00347525
0.00344649
0.00342175
0.00340045
0.00338201
0.00336597
0.00335197
0.00333965
0.00332881
0.00331919
0.00331064
0.00330298
0.00329616
0.00328997
0.00328443
0.00327934
0.00327478
0.00327055
0.00326676
0.0032632
0.00326002
0.00325703
0.00325434
0.00325182
0.00324957
0.00324745
0.0032456
0.00324388
0.00324243
0.00324111
0.00323998
0.00323898
0.00323826
0.00323762
0.00323733
0.00323714
0.00323731
0.00323763
0.00323834
0.00323926
0.0032406
0.0032421
0.00324345
0.00324499
0.00324666
0.00324854
0.00325051
0.00325275
0.00325509
0.00325773
0.0032605
0.00326359
0.00326696
0.00327057
0.00327481
0.003279
0.00328473
0.00328958
0.00329808
0.00330339
0.00331727
0.00332111
0.00334518
0.00333921
0.00338079
0.00333177
0.02825
0.0174845
0.0135153
0.0113161
0.00984672
0.00877138
0.00794119
0.00727923
0.00674125
0.00629885
0.00593216
0.00562679
0.00537136
0.00515736
0.00497719
0.00482553
0.00469702
0.00458826
0.00449558
0.00441647
0.00434879
0.00429046
0.00424014
0.0041966
0.00415865
0.00412553
0.00409647
0.00407092
0.00404832
0.00402825
0.00401039
0.00399443
0.00398009
0.00396719
0.00395558
0.003945
0.00393544
0.00392665
0.00391869
0.00391132
0.00390463
0.0038984
0.00389273
0.00388744
0.00388262
0.00387811
0.00387403
0.0038702
0.00386676
0.00386354
0.00386077
0.00385822
0.00385592
0.00385388
0.00385217
0.00385065
0.00384959
0.0038487
0.00384827
0.00384808
0.00384839
0.00384899
0.00385016
0.00385164
0.00385303
0.00385467
0.00385653
0.00385861
0.00386091
0.00386348
0.0038663
0.00386942
0.00387287
0.00387664
0.00388091
0.00388546
0.0038909
0.00389641
0.0039037
0.00391039
0.00392085
0.00392843
0.00394454
0.00395022
0.0039768
0.00396951
0.00401771
0.00395994
0.0294531
0.019592
0.0153736
0.0129943
0.0114145
0.0102656
0.00938056
0.00867296
0.00809348
0.00761134
0.0072057
0.006862
0.00656902
0.0063186
0.00610351
0.00591867
0.005759
0.00562108
0.00550144
0.0053974
0.00530679
0.00522751
0.00515796
0.00509685
0.00504288
0.00499513
0.00495271
0.00491493
0.00488116
0.00485086
0.00482361
0.00479905
0.00477678
0.00475662
0.0047383
0.0047215
0.00470619
0.00469208
0.00467919
0.00466725
0.00465631
0.00464612
0.00463677
0.00462804
0.00462003
0.00461252
0.00460565
0.0045992
0.00459334
0.00458792
0.00458296
0.00457841
0.00457431
0.00457055
0.00456733
0.00456438
0.00456201
0.00455995
0.00455848
0.00455736
0.00455689
0.00455686
0.00455754
0.0045588
0.00456011
0.00456176
0.00456374
0.004566
0.00456861
0.00457155
0.00457491
0.00457864
0.00458289
0.00458757
0.00459297
0.00459881
0.00460577
0.00461308
0.00462229
0.00463131
0.00464399
0.00465419
0.00467242
0.00468002
0.00470876
0.00470002
0.00475563
0.00468753
0.0296272
0.0213082
0.0171086
0.0146181
0.0129529
0.0117466
0.010822
0.0100846
0.00948004
0.00897476
0.00854634
0.00817949
0.00786277
0.00758805
0.0073484
0.00713893
0.006955
0.00679326
0.00665062
0.00652448
0.00641274
0.0063135
0.00622508
0.00614621
0.00607561
0.00601228
0.00595532
0.00590395
0.00585752
0.00581543
0.00577717
0.00574235
0.00571053
0.00568141
0.00565476
0.00563019
0.00560762
0.00558671
0.00556746
0.00554955
0.00553303
0.0055176
0.00550335
0.00549
0.00547766
0.00546609
0.00545541
0.00544538
0.00543615
0.00542753
0.00541963
0.00541228
0.00540563
0.00539946
0.005394
0.00538903
0.00538475
0.00538098
0.00537794
0.00537545
0.00537378
0.00537273
0.00537262
0.00537348
0.00537458
0.00537618
0.00537822
0.00538068
0.00538364
0.00538708
0.0053911
0.00539567
0.00540096
0.0054069
0.00541377
0.00542138
0.00543026
0.00543987
0.00545138
0.00546315
0.00547817
0.00549117
0.00551119
0.00552078
0.005551
0.00554124
0.00560437
0.00552455
0.0284966
0.0224153
0.0185643
0.0160762
0.0143723
0.0131337
0.0121875
0.0114361
0.010822
0.0103093
0.00987397
0.00949983
0.00917484
0.0088906
0.00864021
0.00841878
0.00822197
0.00804654
0.00788968
0.00774902
0.0076226
0.00750875
0.00740591
0.00731287
0.00722852
0.00715185
0.00708206
0.00701834
0.00696011
0.00690674
0.00685774
0.00681267
0.00677115
0.00673277
0.00669735
0.00666447
0.00663404
0.00660567
0.00657936
0.00655476
0.00653189
0.00651046
0.00649053
0.0064718
0.00645437
0.00643798
0.00642275
0.00640842
0.00639513
0.00638265
0.00637114
0.00636038
0.00635053
0.0063414
0.00633314
0.0063256
0.00631893
0.00631301
0.00630799
0.00630377
0.00630057
0.00629826
0.00629716
0.00629754
0.00629843
0.00630002
0.00630221
0.006305
0.00630848
0.00631266
0.00631764
0.00632341
0.00633014
0.0063378
0.00634661
0.00635647
0.00636774
0.00638006
0.00639418
0.00640885
0.00642617
0.00644179
0.00646319
0.00647465
0.00650573
0.00649523
0.00656579
0.00647341
0.0258318
0.0228219
0.019526
0.017207
0.0155481
0.0143219
0.0133812
0.0126352
0.0120275
0.011522
0.0110942
0.010727
0.010408
0.0101285
0.00988137
0.0096616
0.00946497
0.00928823
0.00912873
0.0089843
0.00885308
0.00873357
0.00862444
0.00852454
0.00843293
0.00834869
0.00827115
0.00819958
0.00813345
0.00807222
0.00801545
0.00796271
0.00791369
0.00786798
0.00782541
0.0077856
0.00774845
0.00771359
0.00768102
0.0076504
0.00762173
0.00759474
0.00756945
0.00754561
0.00752328
0.00750222
0.0074825
0.00746392
0.00744657
0.00743025
0.00741507
0.00740087
0.00738775
0.00737558
0.00736445
0.00735429
0.00734517
0.00733705
0.00733004
0.0073241
0.00731945
0.00731598
0.00731407
0.0073142
0.00731511
0.00731698
0.00731966
0.00732315
0.00732757
0.00733296
0.00733939
0.00734691
0.00735562
0.00736555
0.00737682
0.00738938
0.0074034
0.00741861
0.00743538
0.00745274
0.00747206
0.00748983
0.00751208
0.00752512
0.00755638
0.00754503
0.00762308
0.00751824
0.0219777
0.02199
0.0197262
0.017799
0.0163068
0.0151653
0.0142756
0.0135653
0.0129865
0.0125058
0.0121001
0.0117531
0.0114527
0.0111901
0.0109583
0.0107522
0.0105676
0.0104012
0.0102506
0.0101135
0.00998824
0.00987334
0.00976763
0.00967004
0.00957979
0.00949606
0.00941829
0.00934585
0.00927832
0.0092152
0.00915619
0.00910086
0.00904901
0.00900026
0.00895449
0.00891136
0.0088708
0.0088325
0.00879644
0.00876234
0.0087302
0.00869979
0.00867111
0.00864396
0.00861837
0.00859416
0.00857136
0.00854983
0.00852961
0.00851057
0.00849276
0.0084761
0.00846062
0.00844628
0.00843311
0.00842111
0.00841033
0.00840076
0.00839254
0.00838562
0.00838032
0.00837651
0.00837468
0.00837536
0.00837697
0.00837983
0.00838371
0.00838865
0.00839477
0.00840212
0.00841076
0.00842073
0.00843208
0.00844483
0.00845901
0.00847453
0.0084914
0.00850936
0.00852851
0.00854804
0.00856881
0.00858809
0.0086106
0.00862483
0.0086554
0.00864444
0.00872705
0.00861233
0.0176929
0.0192516
0.0187981
0.017565
0.0164213
0.0154822
0.0147168
0.0140901
0.0135723
0.0131398
0.0127746
0.0124629
0.012194
0.0119598
0.011754
0.0115716
0.0114088
0.0112624
0.01113
0.0110095
0.0108993
0.0107981
0.0107047
0.0106182
0.0105378
0.0104629
0.010393
0.0103274
0.0102659
0.010208
0.0101536
0.0101022
0.0100537
0.0100078
0.00996436
0.00992321
0.00988424
0.00984724
0.00981217
0.00977883
0.00974722
0.00971716
0.00968867
0.00966159
0.00963593
0.00961159
0.00958858
0.00956681
0.0095463
0.00952699
0.0095089
0.00949201
0.00947634
0.00946189
0.0094487
0.00943679
0.00942625
0.0094171
0.00940952
0.00940348
0.00939939
0.0093971
0.00939727
0.00940015
0.0094038
0.00940896
0.00941534
0.00942298
0.00943201
0.00944245
0.00945434
0.00946767
0.00948244
0.00949859
0.00951606
0.0095347
0.0095544
0.00957486
0.00959603
0.00961725
0.00963904
0.00965931
0.00968176
0.00969693
0.00972632
0.00971663
0.00980126
0.00968114
0.0129962
0.0156612
0.0163417
0.0162573
0.0156419
0.0150582
0.0145132
0.014039
0.0136339
0.0132888
0.012994
0.0127411
0.0125226
0.0123324
0.0121658
0.0120189
0.0118883
0.0117715
0.0116665
0.0115713
0.0114847
0.0114054
0.0113324
0.0112649
0.0112023
0.0111439
0.0110894
0.0110382
0.0109901
0.0109446
0.0109018
0.0108611
0.0108226
0.0107861
0.0107513
0.0107182
0.0106867
0.0106567
0.0106281
0.0106008
0.0105748
0.01055
0.0105264
0.010504
0.0104826
0.0104624
0.0104432
0.0104252
0.0104082
0.0103923
0.0103775
0.0103638
0.0103514
0.0103401
0.0103302
0.0103217
0.0103146
0.0103091
0.0103054
0.0103036
0.010304
0.0103067
0.0103123
0.0103204
0.0103284
0.0103382
0.0103493
0.0103619
0.0103759
0.0103914
0.0104083
0.0104266
0.0104461
0.0104669
0.0104887
0.0105112
0.0105344
0.010558
0.0105817
0.0106051
0.0106285
0.0106503
0.0106735
0.0106903
0.0107193
0.0107125
0.0107971
0.010678
0.0117725
0.0124855
0.0135092
0.0139425
0.0140091
0.0138791