/*--------------------------------*- C++ -*----------------------------------*\
| =========                 |                                                 |
| \\      /  F ield         | OpenFOAM: The Open Source CFD Toolbox           |
|  \\    /   O peration     | Version:  2306                                  |
|   \\  /    A nd           | Website:  www.openfoam.com                      |
|    \\/     M anipulation  |                                                 |
\*---------------------------------------------------------------------------*/
FoamFile
{
    version     2.0;
    format      ascii;
    arch        "LSB;label=32;scalar=64";
    class       volScalarField;
    location    "1700";
    object      p;
}
// * * * * * * * * * * * * * * * * * * * * * * * * * * * * * * * * * * * * * //

dimensions      [0 2 -2 0 0 0 0];

internalField   nonuniform List<scalar> 
20540
(
239.263
-25.124
237.622
-37.1863
236.488
-44.5131
236.073
-47.1826
235.887
-48.2665
235.745
-48.971
235.631
-49.5042
235.548
-49.8952
235.491
-50.1776
235.453
-50.3803
235.43
-50.5195
235.416
-50.6026
235.406
-50.6322
235.394
-50.6083
235.376
-50.529
235.343
-50.3908
235.288
-50.1891
235.205
-49.9183
235.089
-49.5721
234.939
-49.1454
234.759
-48.635
234.558
-48.04
234.348
-47.3646
234.138
-46.6231
233.877
-45.8127
233.434
-44.8153
232.781
-43.4367
232.076
-41.8115
231.351
-40.3113
230.559
-39.0427
229.909
-38.1552
229.578
-37.7355
229.566
-37.7637
229.869
-38.2414
230.477
-39.18
231.222
-40.4413
231.914
-41.903
232.595
-43.512
233.253
-44.9243
233.725
-45.9554
234.009
-46.7771
234.231
-47.5219
234.452
-48.2015
234.669
-48.8025
234.866
-49.3209
235.035
-49.7581
235.17
-50.1175
235.269
-50.4047
235.337
-50.6259
235.38
-50.7869
235.405
-50.8926
235.42
-50.9465
235.431
-50.9513
235.442
-50.9081
235.459
-50.8162
235.486
-50.6724
235.528
-50.4687
235.59
-50.1887
235.679
-49.8035
235.8
-49.2793
235.949
-48.5826
236.145
-47.5
236.571
-44.8611
237.714
-37.7597
239.362
-26.2221
-100.78
-60.3394
-66.6408
-68.6089
-69.944
-72.2643
-74.8606
-77.4458
-80.0599
-82.676
-85.2564
-87.7861
-90.2588
-92.6673
-95.0087
-97.2808
-99.4831
-101.616
-103.679
-105.675
-107.604
-109.468
-111.269
-113.008
-114.687
-116.308
-117.873
-119.383
-120.841
-122.247
-123.604
-124.913
-126.177
-127.396
-128.573
-129.709
-130.806
-131.865
-132.89
-133.881
-134.842
-135.774
-136.68
-137.563
-138.427
-139.274
-140.108
-140.935
-141.757
-142.582
-143.413
-144.258
-145.122
-146.014
-146.939
-147.907
-148.925
-150.003
-151.152
-152.382
-153.705
-155.137
-156.687
-158.099
-159.27
-160.468
-161.707
-162.985
-164.305
-165.667
-167.072
-168.522
-170.02
-171.569
-173.165
-174.825
-176.527
-178.319
-180.146
-182.124
-184.113
-186.397
-188.608
-191.464
-193.998
-198.057
-201.489
-209.832
-100.786
-60.3395
-66.6406
-68.6088
-69.9439
-72.2642
-74.8605
-77.4458
-80.0598
-82.676
-85.2563
-87.7861
-90.2587
-92.6673
-95.0087
-97.2807
-99.4831
-101.616
-103.679
-105.675
-107.604
-109.468
-111.269
-113.008
-114.687
-116.308
-117.873
-119.383
-120.841
-122.247
-123.604
-124.913
-126.177
-127.396
-128.573
-129.709
-130.806
-131.865
-132.89
-133.881
-134.842
-135.774
-136.68
-137.563
-138.427
-139.274
-140.108
-140.935
-141.757
-142.582
-143.413
-144.258
-145.122
-146.014
-146.939
-147.907
-148.925
-150.003
-151.152
-152.382
-153.705
-155.137
-156.687
-158.099
-159.27
-160.468
-161.707
-162.986
-164.305
-165.667
-167.072
-168.523
-170.02
-171.569
-173.165
-174.825
-176.528
-178.319
-180.146
-182.124
-184.113
-186.398
-188.608
-191.465
-193.999
-198.059
-201.488
-209.762
-100.803
-60.34
-66.6403
-68.6085
-69.9437
-72.2641
-74.8604
-77.4457
-80.0598
-82.6759
-85.2563
-87.7861
-90.2587
-92.6673
-95.0087
-97.2807
-99.4831
-101.616
-103.679
-105.675
-107.604
-109.468
-111.269
-113.008
-114.687
-116.308
-117.873
-119.383
-120.841
-122.247
-123.604
-124.913
-126.177
-127.396
-128.573
-129.709
-130.805
-131.865
-132.89
-133.881
-134.842
-135.774
-136.68
-137.563
-138.427
-139.274
-140.108
-140.935
-141.757
-142.582
-143.413
-144.258
-145.122
-146.014
-146.939
-147.907
-148.925
-150.004
-151.152
-152.382
-153.705
-155.137
-156.688
-158.1
-159.27
-160.468
-161.707
-162.986
-164.306
-165.667
-167.072
-168.523
-170.02
-171.57
-173.166
-174.826
-176.528
-178.32
-180.147
-182.126
-184.115
-186.399
-188.61
-191.467
-194.001
-198.064
-201.481
-209.616
-100.834
-60.341
-66.6398
-68.6079
-69.9432
-72.2637
-74.8601
-77.4454
-80.0596
-82.6757
-85.2562
-87.786
-90.2586
-92.6672
-95.0086
-97.2807
-99.483
-101.616
-103.679
-105.675
-107.604
-109.468
-111.269
-113.008
-114.687
-116.308
-117.873
-119.383
-120.841
-122.247
-123.604
-124.913
-126.177
-127.396
-128.573
-129.709
-130.805
-131.865
-132.89
-133.881
-134.842
-135.774
-136.68
-137.563
-138.427
-139.274
-140.108
-140.935
-141.757
-142.582
-143.413
-144.258
-145.122
-146.014
-146.939
-147.907
-148.925
-150.004
-151.152
-152.383
-153.705
-155.138
-156.688
-158.1
-159.27
-160.469
-161.708
-162.987
-164.306
-165.668
-167.073
-168.524
-170.021
-171.571
-173.167
-174.827
-176.53
-178.322
-180.149
-182.128
-184.117
-186.403
-188.613
-191.472
-194.005
-198.073
-201.461
-209.441
-100.885
-60.3433
-66.6396
-68.6072
-69.9426
-72.2632
-74.8597
-77.4451
-80.0593
-82.6755
-85.256
-87.7858
-90.2585
-92.6671
-95.0085
-97.2806
-99.483
-101.616
-103.679
-105.675
-107.604
-109.468
-111.269
-113.008
-114.687
-116.308
-117.873
-119.383
-120.84
-122.247
-123.604
-124.913
-126.177
-127.396
-128.573
-129.709
-130.805
-131.865
-132.89
-133.881
-134.842
-135.774
-136.68
-137.563
-138.427
-139.274
-140.108
-140.935
-141.757
-142.582
-143.413
-144.258
-145.123
-146.014
-146.939
-147.907
-148.925
-150.004
-151.152
-152.383
-153.706
-155.138
-156.689
-158.101
-159.271
-160.47
-161.709
-162.988
-164.308
-165.669
-167.074
-168.526
-170.023
-171.573
-173.169
-174.83
-176.532
-178.325
-180.152
-182.132
-184.121
-186.407
-188.618
-191.478
-194.009
-198.081
-201.423
-209.225
-100.964
-60.3483
-66.6401
-68.6066
-69.9418
-72.2625
-74.8591
-77.4446
-80.0589
-82.6752
-85.2557
-87.7856
-90.2583
-92.6669
-95.0084
-97.2804
-99.4829
-101.615
-103.679
-105.675
-107.604
-109.468
-111.269
-113.008
-114.687
-116.308
-117.873
-119.383
-120.84
-122.247
-123.604
-124.913
-126.177
-127.396
-128.573
-129.709
-130.805
-131.865
-132.89
-133.881
-134.842
-135.774
-136.68
-137.563
-138.427
-139.274
-140.108
-140.935
-141.758
-142.582
-143.413
-144.258
-145.123
-146.014
-146.939
-147.907
-148.925
-150.004
-151.153
-152.383
-153.706
-155.139
-156.689
-158.101
-159.272
-160.471
-161.71
-162.989
-164.309
-165.671
-167.076
-168.528
-170.025
-171.575
-173.172
-174.832
-176.535
-178.328
-180.156
-182.136
-184.125
-186.413
-188.623
-191.484
-194.012
-198.085
-201.364
-208.937
-101.075
-60.3575
-66.6422
-68.6064
-69.9411
-72.2618
-74.8585
-77.4441
-80.0584
-82.6748
-85.2554
-87.7853
-90.258
-92.6667
-95.0082
-97.2803
-99.4827
-101.615
-103.679
-105.675
-107.604
-109.468
-111.269
-113.008
-114.687
-116.308
-117.873
-119.383
-120.84
-122.247
-123.604
-124.913
-126.177
-127.396
-128.573
-129.708
-130.805
-131.865
-132.89
-133.881
-134.842
-135.774
-136.68
-137.563
-138.427
-139.274
-140.108
-140.935
-141.758
-142.582
-143.414
-144.258
-145.123
-146.014
-146.94
-147.907
-148.926
-150.005
-151.153
-152.384
-153.707
-155.14
-156.69
-158.103
-159.273
-160.472
-161.711
-162.99
-164.311
-165.673
-167.078
-168.53
-170.028
-171.578
-173.175
-174.836
-176.539
-178.332
-180.16
-182.141
-184.13
-186.419
-188.627
-191.489
-194.013
-198.081
-201.283
-208.556
-101.223
-60.3724
-66.6466
-68.607
-69.9405
-72.2611
-74.8578
-77.4434
-80.0579
-82.6743
-85.2549
-87.7849
-90.2577
-92.6664
-95.0079
-97.2801
-99.4825
-101.615
-103.679
-105.675
-107.604
-109.468
-111.269
-113.008
-114.687
-116.308
-117.873
-119.383
-120.84
-122.247
-123.604
-124.913
-126.177
-127.396
-128.573
-129.708
-130.805
-131.865
-132.89
-133.881
-134.842
-135.774
-136.68
-137.563
-138.427
-139.274
-140.108
-140.935
-141.758
-142.582
-143.414
-144.258
-145.123
-146.014
-146.94
-147.908
-148.926
-150.005
-151.154
-152.384
-153.708
-155.141
-156.691
-158.104
-159.275
-160.473
-161.713
-162.992
-164.313
-165.675
-167.081
-168.533
-170.031
-171.581
-173.178
-174.84
-176.543
-178.337
-180.164
-182.146
-184.135
-186.424
-188.632
-191.492
-194.01
-198.061
-201.174
-208.078
-101.413
-60.3948
-66.6544
-68.609
-69.9406
-72.2605
-74.857
-77.4427
-80.0572
-82.6737
-85.2544
-87.7844
-90.2573
-92.6661
-95.0076
-97.2798
-99.4823
-101.615
-103.679
-105.674
-107.604
-109.468
-111.269
-113.008
-114.687
-116.308
-117.873
-119.383
-120.84
-122.247
-123.604
-124.913
-126.177
-127.396
-128.572
-129.708
-130.805
-131.865
-132.89
-133.881
-134.842
-135.774
-136.68
-137.563
-138.427
-139.274
-140.108
-140.935
-141.758
-142.582
-143.414
-144.259
-145.123
-146.014
-146.94
-147.908
-148.927
-150.006
-151.154
-152.385
-153.708
-155.142
-156.693
-158.105
-159.276
-160.475
-161.715
-162.994
-164.315
-165.678
-167.083
-168.536
-170.034
-171.585
-173.182
-174.844
-176.547
-178.341
-180.169
-182.151
-184.139
-186.428
-188.634
-191.49
-194
-198.02
-201.028
-207.503
-101.652
-60.4265
-66.667
-68.6133
-69.9416
-72.2604
-74.8564
-77.442
-80.0565
-82.673
-85.2538
-87.7839
-90.2568
-92.6656
-95.0072
-97.2794
-99.4819
-101.615
-103.678
-105.674
-107.603
-109.468
-111.268
-113.008
-114.687
-116.308
-117.873
-119.383
-120.84
-122.247
-123.604
-124.913
-126.176
-127.396
-128.572
-129.708
-130.805
-131.865
-132.89
-133.881
-134.842
-135.774
-136.68
-137.563
-138.427
-139.274
-140.108
-140.935
-141.758
-142.582
-143.414
-144.259
-145.123
-146.015
-146.94
-147.908
-148.927
-150.006
-151.155
-152.386
-153.709
-155.143
-156.694
-158.107
-159.278
-160.477
-161.717
-162.997
-164.317
-165.68
-167.086
-168.539
-170.037
-171.588
-173.186
-174.847
-176.551
-178.346
-180.173
-182.155
-184.142
-186.431
-188.634
-191.481
-193.98
-197.948
-200.835
-206.83
-101.945
-60.4695
-66.6856
-68.6209
-69.9443
-72.2611
-74.8563
-77.4414
-80.0558
-82.6723
-85.2531
-87.7833
-90.2562
-92.6651
-95.0067
-97.279
-99.4816
-101.614
-103.678
-105.674
-107.603
-109.467
-111.268
-113.007
-114.687
-116.308
-117.872
-119.383
-120.84
-122.246
-123.603
-124.913
-126.176
-127.396
-128.572
-129.708
-130.805
-131.865
-132.89
-133.881
-134.842
-135.774
-136.68
-137.563
-138.427
-139.274
-140.108
-140.935
-141.758
-142.582
-143.414
-144.259
-145.123
-146.015
-146.941
-147.909
-148.928
-150.007
-151.156
-152.387
-153.71
-155.144
-156.695
-158.108
-159.28
-160.479
-161.719
-162.999
-164.32
-165.683
-167.089
-168.542
-170.04
-171.592
-173.189
-174.851
-176.554
-178.349
-180.176
-182.157
-184.143
-186.428
-188.628
-191.461
-193.943
-197.834
-200.582
-206.059
-102.297
-60.5259
-66.7118
-68.633
-69.9495
-72.2633
-74.8569
-77.4413
-80.0553
-82.6717
-85.2524
-87.7826
-90.2556
-92.6645
-95.0062
-97.2785
-99.4811
-101.614
-103.678
-105.674
-107.603
-109.467
-111.268
-113.007
-114.686
-116.307
-117.872
-119.382
-120.84
-122.246
-123.603
-124.913
-126.176
-127.395
-128.572
-129.708
-130.805
-131.865
-132.89
-133.881
-134.842
-135.774
-136.68
-137.563
-138.427
-139.274
-140.108
-140.935
-141.758
-142.582
-143.414
-144.259
-145.124
-146.015
-146.941
-147.909
-148.928
-150.007
-151.156
-152.388
-153.711
-155.145
-156.697
-158.11
-159.281
-160.481
-161.721
-163.001
-164.322
-165.685
-167.091
-168.544
-170.042
-171.594
-173.191
-174.853
-176.556
-178.35
-180.176
-182.155
-184.139
-186.419
-188.612
-191.422
-193.883
-197.665
-200.257
-205.194
-102.712
-60.5984
-66.7467
-68.6508
-69.9583
-72.2677
-74.8589
-77.442
-80.0553
-82.6713
-85.2519
-87.782
-90.255
-92.6639
-95.0056
-97.2779
-99.4806
-101.613
-103.677
-105.673
-107.603
-109.467
-111.268
-113.007
-114.686
-116.307
-117.872
-119.382
-120.84
-122.246
-123.603
-124.913
-126.176
-127.395
-128.572
-129.708
-130.805
-131.865
-132.889
-133.881
-134.842
-135.774
-136.68
-137.563
-138.427
-139.274
-140.108
-140.935
-141.758
-142.582
-143.414
-144.259
-145.124
-146.015
-146.941
-147.909
-148.928
-150.008
-151.157
-152.388
-153.712
-155.146
-156.698
-158.111
-159.282
-160.482
-161.722
-163.002
-164.323
-165.686
-167.092
-168.545
-170.043
-171.594
-173.191
-174.852
-176.554
-178.346
-180.171
-182.147
-184.127
-186.397
-188.582
-191.357
-193.786
-197.424
-199.847
-204.24
-103.189
-60.6901
-66.7915
-68.6758
-69.9718
-72.2753
-74.8631
-77.4441
-80.0562
-82.6716
-85.2518
-87.7816
-90.2545
-92.6633
-95.005
-97.2774
-99.48
-101.613
-103.677
-105.673
-107.602
-109.466
-111.267
-113.006
-114.686
-116.307
-117.872
-119.382
-120.839
-122.246
-123.603
-124.912
-126.176
-127.395
-128.572
-129.708
-130.805
-131.865
-132.889
-133.881
-134.841
-135.774
-136.68
-137.563
-138.426
-139.274
-140.108
-140.935
-141.758
-142.582
-143.414
-144.259
-145.124
-146.016
-146.941
-147.91
-148.929
-150.008
-151.157
-152.389
-153.712
-155.146
-156.698
-158.111
-159.282
-160.482
-161.722
-163.002
-164.323
-165.685
-167.091
-168.543
-170.041
-171.591
-173.187
-174.846
-176.546
-178.336
-180.157
-182.128
-184.103
-186.356
-188.529
-191.253
-193.638
-197.095
-199.338
-203.206
-103.721
-60.8047
-66.847
-68.7088
-69.9911
-72.2871
-74.8703
-77.4484
-80.0587
-82.6729
-85.2524
-87.7817
-90.2543
-92.663
-95.0046
-97.2769
-99.4795
-101.612
-103.676
-105.672
-107.602
-109.466
-111.267
-113.006
-114.685
-116.307
-117.871
-119.382
-120.839
-122.246
-123.603
-124.912
-126.176
-127.395
-128.572
-129.708
-130.805
-131.865
-132.889
-133.881
-134.841
-135.773
-136.68
-137.563
-138.426
-139.273
-140.108
-140.935
-141.758
-142.582
-143.414
-144.259
-145.124
-146.015
-146.941
-147.909
-148.928
-150.008
-151.157
-152.388
-153.712
-155.145
-156.697
-158.109
-159.281
-160.48
-161.719
-162.999
-164.319
-165.681
-167.086
-168.537
-170.034
-171.582
-173.176
-174.832
-176.53
-178.315
-180.131
-182.092
-184.058
-186.288
-188.441
-191.094
-193.418
-196.656
-198.718
-202.098
-104.293
-60.9467
-66.9142
-68.751
-70.0172
-72.3042
-74.8817
-77.4558
-80.0635
-82.676
-85.2543
-87.7829
-90.2549
-92.6633
-95.0046
-97.2767
-99.4793
-101.612
-103.676
-105.672
-107.601
-109.465
-111.266
-113.006
-114.685
-116.306
-117.871
-119.381
-120.839
-122.245
-123.602
-124.912
-126.175
-127.395
-128.571
-129.707
-130.805
-131.864
-132.889
-133.881
-134.841
-135.773
-136.679
-137.563
-138.426
-139.273
-140.108
-140.934
-141.757
-142.582
-143.414
-144.259
-145.123
-146.015
-146.941
-147.909
-148.927
-150.007
-151.155
-152.387
-153.71
-155.143
-156.694
-158.105
-159.276
-160.475
-161.713
-162.992
-164.311
-165.672
-167.076
-168.525
-170.019
-171.565
-173.154
-174.807
-176.499
-178.276
-180.085
-182.03
-183.984
-186.178
-188.301
-190.86
-193.105
-196.09
-197.973
-200.915
-104.879
-61.1214
-66.9939
-68.803
-70.0507
-72.3274
-74.8979
-77.4672
-80.0715
-82.6815
-85.2581
-87.7855
-90.2567
-92.6645
-95.0053
-97.2771
-99.4794
-101.612
-103.676
-105.672
-107.601
-109.465
-111.266
-113.005
-114.685
-116.306
-117.871
-119.381
-120.839
-122.245
-123.602
-124.912
-126.175
-127.394
-128.571
-129.707
-130.804
-131.864
-132.889
-133.88
-134.841
-135.773
-136.679
-137.562
-138.426
-139.273
-140.108
-140.934
-141.757
-142.582
-143.413
-144.258
-145.122
-146.014
-146.939
-147.907
-148.925
-150.004
-151.153
-152.383
-153.706
-155.138
-156.687
-158.097
-159.267
-160.465
-161.701
-162.978
-164.296
-165.654
-167.055
-168.501
-169.991
-171.533
-173.117
-174.762
-176.446
-178.211
-180.008
-181.931
-183.863
-186.007
-188.088
-190.526
-192.668
-195.377
-197.088
-199.65
-105.443
-61.3339
-67.0868
-68.8655
-70.092
-72.3571
-74.9198
-77.4833
-80.0834
-82.6905
-85.2648
-87.7905
-90.2604
-92.6672
-95.0074
-97.2786
-99.4805
-101.613
-103.676
-105.672
-107.601
-109.465
-111.266
-113.005
-114.685
-116.306
-117.871
-119.381
-120.838
-122.245
-123.602
-124.911
-126.175
-127.394
-128.571
-129.707
-130.804
-131.864
-132.889
-133.88
-134.841
-135.773
-136.679
-137.562
-138.426
-139.273
-140.107
-140.934
-141.756
-142.581
-143.412
-144.257
-145.121
-146.012
-146.937
-147.904
-148.922
-150
-151.147
-152.377
-153.698
-155.128
-156.676
-158.083
-159.251
-160.447
-161.681
-162.955
-164.269
-165.624
-167.021
-168.462
-169.946
-171.479
-173.055
-174.688
-176.36
-178.107
-179.886
-181.775
-183.676
-185.751
-187.77
-190.06
-192.079
-194.499
-196.047
-198.287
-105.935
-61.5877
-67.1935
-68.939
-70.1412
-72.3934
-74.9477
-77.5047
-80.1001
-82.7035
-85.275
-87.7985
-90.2667
-92.6722
-95.0113
-97.2818
-99.483
-101.615
-103.678
-105.673
-107.602
-109.466
-111.267
-113.006
-114.685
-116.306
-117.871
-119.381
-120.839
-122.245
-123.602
-124.911
-126.175
-127.394
-128.571
-129.707
-130.804
-131.864
-132.889
-133.88
-134.841
-135.773
-136.679
-137.562
-138.425
-139.272
-140.107
-140.933
-141.755
-142.579
-143.41
-144.255
-145.118
-146.009
-146.933
-147.899
-148.916
-149.993
-151.138
-152.366
-153.685
-155.112
-156.656
-158.06
-159.224
-160.417
-161.647
-162.917
-164.226
-165.575
-166.964
-168.397
-169.872
-171.394
-172.956
-174.572
-176.226
-177.945
-179.696
-181.538
-183.393
-185.379
-187.313
-189.431
-191.303
-193.438
-194.829
-196.799
-106.299
-61.8839
-67.3141
-69.024
-70.198
-72.4362
-74.9814
-77.5315
-80.1216
-82.7209
-85.2893
-87.8102
-90.2763
-92.6801
-95.0178
-97.2872
-99.4875
-101.619
-103.681
-105.676
-107.604
-109.468
-111.268
-113.007
-114.686
-116.307
-117.872
-119.382
-120.839
-122.246
-123.603
-124.912
-126.175
-127.395
-128.571
-129.707
-130.804
-131.864
-132.889
-133.88
-134.841
-135.773
-136.679
-137.562
-138.425
-139.272
-140.106
-140.932
-141.754
-142.577
-143.408
-144.251
-145.114
-146.003
-146.926
-147.891
-148.906
-149.981
-151.124
-152.349
-153.664
-155.087
-156.626
-158.023
-159.182
-160.37
-161.594
-162.856
-164.157
-165.497
-166.876
-168.297
-169.757
-171.261
-172.804
-174.394
-176.019
-177.7
-179.409
-181.187
-182.975
-184.849
-186.672
-188.599
-190.306
-192.171
-193.411
-195.151
-106.474
-62.2196
-67.4475
-69.1213
-70.2622
-72.4848
-75.0205
-77.5633
-80.1478
-82.7428
-85.3077
-87.8258
-90.2895
-92.6914
-95.0275
-97.2954
-99.4946
-101.625
-103.686
-105.681
-107.608
-109.472
-111.272
-113.01
-114.689
-116.309
-117.874
-119.384
-120.841
-122.247
-123.604
-124.913
-126.177
-127.396
-128.572
-129.708
-130.805
-131.865
-132.889
-133.881
-134.841
-135.773
-136.679
-137.562
-138.424
-139.271
-140.105
-140.93
-141.752
-142.574
-143.404
-144.246
-145.108
-145.996
-146.917
-147.879
-148.891
-149.963
-151.102
-152.322
-153.631
-155.047
-156.577
-157.966
-159.117
-160.297
-161.511
-162.762
-164.051
-165.377
-166.74
-168.142
-169.581
-171.059
-172.572
-174.126
-175.71
-177.336
-178.986
-180.68
-182.376
-184.115
-185.8
-187.524
-189.053
-190.669
-191.764
-193.301
-106.406
-62.5886
-67.5907
-69.2319
-70.3335
-72.5385
-75.0643
-77.5993
-80.178
-82.7686
-85.3299
-87.845
-90.3063
-92.7061
-95.0404
-97.3068
-99.5047
-101.634
-103.694
-105.688
-107.615
-109.477
-111.277
-113.015
-114.693
-116.313
-117.877
-119.387
-120.844
-122.25
-123.606
-124.915
-126.179
-127.398
-128.574
-129.71
-130.807
-131.866
-132.891
-133.882
-134.842
-135.774
-136.679
-137.562
-138.424
-139.27
-140.103
-140.928
-141.748
-142.57
-143.398
-144.239
-145.098
-145.984
-146.902
-147.861
-148.869
-149.935
-151.068
-152.28
-153.581
-154.987
-156.504
-157.878
-159.018
-160.186
-161.386
-162.621
-163.891
-165.197
-166.536
-167.91
-169.317
-170.758
-172.228
-173.73
-175.255
-176.808
-178.374
-179.961
-181.538
-183.123
-184.645
-186.163
-187.508
-188.894
-189.853
-191.202
-106.053
-62.9806
-67.7374
-69.3569
-70.4116
-72.5965
-75.1118
-77.6386
-80.2112
-82.7974
-85.3551
-87.8673
-90.3261
-92.7237
-95.0562
-97.3211
-99.5175
-101.645
-103.705
-105.697
-107.624
-109.485
-111.284
-113.021
-114.699
-116.319
-117.883
-119.392
-120.848
-122.254
-123.61
-124.919
-126.182
-127.401
-128.577
-129.713
-130.81
-131.869
-132.893
-133.884
-134.844
-135.775
-136.68
-137.562
-138.424
-139.269
-140.101
-140.925
-141.744
-142.564
-143.39
-144.228
-145.084
-145.966
-146.879
-147.833
-148.834
-149.893
-151.017
-152.218
-153.506
-154.896
-156.394
-157.748
-158.871
-160.02
-161.198
-162.409
-163.653
-164.927
-166.232
-167.566
-168.927
-170.315
-171.725
-173.155
-174.599
-176.056
-177.512
-178.968
-180.4
-181.812
-183.156
-184.467
-185.628
-186.803
-187.63
-188.8
-105.404
-63.3762
-67.8776
-69.4975
-70.4967
-72.6583
-75.1624
-77.6803
-80.2464
-82.828
-85.3822
-87.8914
-90.3478
-92.7434
-95.0742
-97.3375
-99.5326
-101.659
-103.718
-105.709
-107.635
-109.496
-111.294
-113.03
-114.707
-116.327
-117.89
-119.399
-120.855
-122.26
-123.616
-124.925
-126.188
-127.406
-128.582
-129.717
-130.814
-131.873
-132.897
-133.887
-134.847
-135.777
-136.682
-137.563
-138.424
-139.268
-140.099
-140.921
-141.738
-142.555
-143.378
-144.212
-145.064
-145.939
-146.846
-147.792
-148.783
-149.83
-150.941
-152.126
-153.394
-154.76
-156.23
-157.555
-158.653
-159.774
-160.921
-162.097
-163.302
-164.532
-165.787
-167.064
-168.361
-169.675
-171.002
-172.337
-173.674
-175.008
-176.328
-177.629
-178.893
-180.119
-181.275
-182.383
-183.364
-184.342
-185.04
-186.035
-104.474
-63.7405
-67.997
-69.6551
-70.5887
-72.7234
-75.2157
-77.7238
-80.2826
-82.8595
-85.4099
-87.9162
-90.3703
-92.7639
-95.093
-97.3549
-99.5488
-101.674
-103.732
-105.722
-107.647
-109.507
-111.305
-113.041
-114.717
-116.336
-117.899
-119.407
-120.863
-122.268
-123.624
-124.932
-126.195
-127.413
-128.589
-129.723
-130.819
-131.878
-132.902
-133.892
-134.85
-135.781
-136.684
-137.564
-138.424
-139.266
-140.095
-140.914
-141.728
-142.541
-143.359
-144.188
-145.032
-145.9
-146.797
-147.73
-148.707
-149.737
-150.828
-151.989
-153.229
-154.56
-155.988
-157.273
-158.333
-159.414
-160.517
-161.643
-162.791
-163.958
-165.143
-166.342
-167.551
-168.767
-169.984
-171.197
-172.399
-173.584
-174.742
-175.867
-176.947
-177.979
-178.942
-179.852
-180.656
-181.447
-182.017
-182.838
-103.282
-64.0371
-68.0691
-69.8296
-70.6876
-72.7913
-75.2715
-77.7686
-80.3194
-82.8909
-85.4375
-87.9406
-90.3923
-92.784
-95.1115
-97.372
-99.5648
-101.689
-103.746
-105.736
-107.66
-109.519
-111.316
-113.052
-114.728
-116.346
-117.909
-119.417
-120.872
-122.277
-123.632
-124.94
-126.202
-127.42
-128.596
-129.73
-130.826
-131.884
-132.907
-133.897
-134.855
-135.784
-136.686
-137.565
-138.423
-139.262
-140.088
-140.903
-141.713
-142.52
-143.331
-144.151
-144.986
-145.841
-146.723
-147.639
-148.595
-149.601
-150.662
-151.788
-152.986
-154.268
-155.637
-156.862
-157.87
-158.894
-159.933
-160.988
-162.058
-163.139
-164.229
-165.322
-166.416
-167.504
-168.582
-169.644
-170.684
-171.695
-172.67
-173.604
-174.488
-175.32
-176.089
-176.805
-177.435
-178.048
-178.487
-179.136
-101.867
-64.269
-68.0433
-70.0114
-70.7915
-72.8605
-75.3293
-77.8146
-80.3562
-82.922
-85.4643
-87.9641
-90.4131
-92.8028
-95.1286
-97.3878
-99.5795
-101.703
-103.759
-105.748
-107.671
-109.531
-111.327
-113.062
-114.738
-116.356
-117.918
-119.426
-120.881
-122.286
-123.641
-124.948
-126.21
-127.428
-128.603
-129.737
-130.833
-131.89
-132.913
-133.901
-134.858
-135.786
-136.687
-137.563
-138.418
-139.255
-140.076
-140.886
-141.688
-142.488
-143.289
-144.096
-144.916
-145.753
-146.614
-147.504
-148.431
-149.4
-150.419
-151.495
-152.634
-153.845
-155.13
-156.272
-157.206
-158.15
-159.101
-160.06
-161.024
-161.991
-162.955
-163.912
-164.859
-165.79
-166.7
-167.584
-168.436
-169.253
-170.029
-170.76
-171.441
-172.073
-172.648
-173.175
-173.633
-174.071
-174.377
-174.853
-100.377
-64.4765
-67.8825
-70.1677
-70.888
-72.9243
-75.3865
-77.8605
-80.3925
-82.9523
-85.49
-87.9861
-90.4323
-92.8198
-95.1439
-97.4017
-99.5922
-101.715
-103.77
-105.758
-107.681
-109.54
-111.336
-113.071
-114.746
-116.364
-117.926
-119.434
-120.889
-122.293
-123.648
-124.955
-126.217
-127.434
-128.609
-129.743
-130.838
-131.895
-132.917
-133.904
-134.86
-135.786
-136.684
-137.557
-138.408
-139.24
-140.055
-140.857
-141.65
-142.437
-143.224
-144.014
-144.812
-145.623
-146.453
-147.307
-148.191
-149.109
-150.068
-151.073
-152.128
-153.24
-154.409
-155.437
-156.271
-157.105
-157.938
-158.77
-159.597
-160.415
-161.221
-162.01
-162.779
-163.522
-164.238
-164.92
-165.566
-166.173
-166.738
-167.259
-167.735
-168.165
-168.547
-168.888
-169.174
-169.443
-169.612
-169.915
-99.0112
-64.7394
-67.6538
-70.2699
-70.9485
-72.9643
-75.4322
-77.8989
-80.4234
-82.9783
-85.5121
-88.005
-90.4486
-92.834
-95.1565
-97.4129
-99.6023
-101.724
-103.778
-105.766
-107.689
-109.547
-111.343
-113.077
-114.752
-116.37
-117.932
-119.439
-120.894
-122.298
-123.653
-124.96
-126.222
-127.439
-128.613
-129.747
-130.841
-131.897
-132.918
-133.904
-134.857
-135.781
-136.676
-137.545
-138.39
-139.215
-140.021
-140.812
-141.591
-142.361
-143.127
-143.892
-144.66
-145.435
-146.222
-147.024
-147.847
-148.694
-149.568
-150.475
-151.415
-152.392
-153.404
-154.28
-154.981
-155.672
-156.353
-157.023
-157.677
-158.314
-158.929
-159.519
-160.082
-160.613
-161.112
-161.575
-162.002
-162.389
-162.738
-163.047
-163.316
-163.548
-163.741
-163.9
-164.02
-164.123
-164.157
-164.284
-97.708
-64.9902
-67.5205
-70.3782
-70.9859
-72.973
-75.4496
-77.9126
-80.4344
-82.9884
-85.521
-88.0125
-90.455
-92.8395
-95.1611
-97.4168
-99.6056
-101.727
-103.781
-105.768
-107.69
-109.548
-111.344
-113.078
-114.753
-116.371
-117.932
-119.44
-120.895
-122.299
-123.653
-124.961
-126.222
-127.439
-128.613
-129.746
-130.839
-131.895
-132.913
-133.898
-134.849
-135.769
-136.659
-137.522
-138.36
-139.174
-139.968
-140.743
-141.503
-142.249
-142.986
-143.716
-144.442
-145.166
-145.893
-146.625
-147.364
-148.113
-148.873
-149.647
-150.433
-151.231
-152.038
-152.718
-153.249
-153.762
-154.256
-154.728
-155.177
-155.601
-155.997
-156.363
-156.697
-156.999
-157.266
-157.499
-157.698
-157.861
-157.991
-158.087
-158.151
-158.184
-158.188
-158.166
-158.116
-158.049
-157.944
-157.882
-96.774
-65.029
-67.4237
-70.4418
-71.0126
-72.9812
-75.4578
-77.9135
-80.431
-82.9824
-85.5126
-88.0027
-90.444
-92.8277
-95.1487
-97.4042
-99.5928
-101.714
-103.768
-105.756
-107.678
-109.536
-111.332
-113.067
-114.742
-116.36
-117.922
-119.429
-120.884
-122.288
-123.643
-124.951
-126.212
-127.429
-128.603
-129.735
-130.828
-131.882
-132.899
-133.881
-134.829
-135.745
-136.63
-137.486
-138.314
-139.117
-139.896
-140.652
-141.389
-142.107
-142.81
-143.497
-144.173
-144.838
-145.494
-146.142
-146.783
-147.418
-148.047
-148.669
-149.281
-149.88
-150.461
-150.928
-151.279
-151.606
-151.906
-152.179
-152.424
-152.639
-152.824
-152.978
-153.101
-153.193
-153.254
-153.284
-153.285
-153.258
-153.203
-153.123
-153.02
-152.894
-152.747
-152.583
-152.401
-152.207
-151.995
-151.792
-96.3284
-65.0194
-67.3743
-70.4517
-71.0082
-72.9704
-75.4461
-77.8986
-80.4135
-82.9635
-85.4926
-87.982
-90.4231
-92.8068
-95.128
-97.3838
-99.5728
-101.694
-103.749
-105.737
-107.66
-109.519
-111.315
-113.05
-114.726
-116.344
-117.907
-119.415
-120.87
-122.274
-123.63
-124.937
-126.199
-127.415
-128.589
-129.721
-130.813
-131.866
-132.882
-133.862
-134.807
-135.718
-136.598
-137.446
-138.265
-139.056
-139.819
-140.557
-141.27
-141.959
-142.626
-143.271
-143.896
-144.5
-145.085
-145.649
-146.193
-146.716
-147.216
-147.69
-148.135
-148.547
-148.919
-149.192
-149.381
-149.541
-149.671
-149.771
-149.84
-149.879
-149.888
-149.867
-149.816
-149.738
-149.633
-149.502
-149.347
-149.169
-148.971
-148.754
-148.52
-148.271
-148.008
-147.734
-147.45
-147.159
-146.863
-146.564
-96.2846
-65.0071
-67.3785
-70.447
-71.0062
-72.9694
-75.445
-77.8975
-80.4125
-82.9626
-85.4918
-87.9811
-90.4223
-92.806
-95.1273
-97.3832
-99.5722
-101.694
-103.749
-105.737
-107.66
-109.518
-111.315
-113.05
-114.726
-116.344
-117.906
-119.414
-120.87
-122.274
-123.629
-124.937
-126.198
-127.414
-128.588
-129.719
-130.81
-131.862
-132.876
-133.853
-134.795
-135.702
-136.575
-137.416
-138.226
-139.004
-139.752
-140.47
-141.159
-141.82
-142.451
-143.054
-143.627
-144.172
-144.686
-145.168
-145.617
-146.031
-146.406
-146.74
-147.027
-147.264
-147.444
-147.541
-147.584
-147.594
-147.574
-147.522
-147.439
-147.326
-147.184
-147.015
-146.819
-146.6
-146.358
-146.095
-145.813
-145.515
-145.203
-144.878
-144.542
-144.198
-143.847
-143.49
-143.131
-142.769
-142.408
-142.039
-96.6392
-64.9898
-67.4368
-70.4287
-71.0084
-72.9798
-75.4559
-77.9117
-80.4294
-82.9809
-85.5114
-88.0014
-90.4428
-92.8265
-95.1476
-97.4031
-99.5918
-101.713
-103.767
-105.755
-107.677
-109.535
-111.331
-113.066
-114.741
-116.359
-117.921
-119.428
-120.883
-122.287
-123.642
-124.949
-126.21
-127.426
-128.598
-129.729
-130.819
-131.869
-132.881
-133.855
-134.794
-135.696
-136.564
-137.397
-138.197
-138.963
-139.695
-140.394
-141.06
-141.691
-142.288
-142.848
-143.372
-143.858
-144.303
-144.706
-145.063
-145.372
-145.63
-145.831
-145.971
-146.045
-146.048
-145.986
-145.897
-145.776
-145.624
-145.44
-145.227
-144.986
-144.72
-144.429
-144.116
-143.783
-143.432
-143.066
-142.687
-142.296
-141.896
-141.488
-141.076
-140.66
-140.242
-139.824
-139.407
-138.992
-138.584
-138.164
-97.4628
-64.9257
-67.5423
-70.3587
-70.9804
-72.9721
-75.447
-77.9109
-80.4342
-82.9877
-85.5205
-88.0123
-90.4547
-92.8391
-95.1607
-97.4164
-99.6052
-101.726
-103.78
-105.768
-107.69
-109.548
-111.343
-113.078
-114.753
-116.37
-117.932
-119.439
-120.894
-122.297
-123.652
-124.958
-126.219
-127.434
-128.606
-129.736
-130.824
-131.873
-132.883
-133.855
-134.79
-135.688
-136.55
-137.377
-138.167
-138.921
-139.639
-140.32
-140.963
-141.567
-142.131
-142.652
-143.129
-143.56
-143.941
-144.27
-144.542
-144.755
-144.905
-144.986
-144.994
-144.924
-144.773
-144.573
-144.372
-144.139
-143.876
-143.583
-143.262
-142.916
-142.546
-142.156
-141.748
-141.324
-140.887
-140.438
-139.98
-139.516
-139.047
-138.576
-138.103
-137.631
-137.162
-136.696
-136.235
-135.778
-135.334
-134.877
-98.6428
-64.6778
-67.6769
-70.2492
-70.9421
-72.9649
-75.4303
-77.8986
-80.4252
-82.9792
-85.5131
-88.006
-90.4495
-92.8348
-95.1572
-97.4135
-99.6029
-101.724
-103.779
-105.767
-107.689
-109.547
-111.343
-113.077
-114.752
-116.37
-117.932
-119.439
-120.893
-122.297
-123.651
-124.958
-126.218
-127.433
-128.604
-129.734
-130.822
-131.869
-132.878
-133.848
-134.78
-135.675
-136.533
-137.353
-138.136
-138.881
-139.587
-140.253
-140.878
-141.46
-141.997
-142.486
-142.925
-143.312
-143.641
-143.91
-144.116
-144.252
-144.317
-144.303
-144.209
-144.028
-143.758
-143.453
-143.167