/*--------------------------------*- C++ -*----------------------------------*\
| =========                 |                                                 |
| \\      /  F ield         | OpenFOAM: The Open Source CFD Toolbox           |
|  \\    /   O peration     | Version:  2306                                  |
|   \\  /    A nd           | Website:  www.openfoam.com                      |
|    \\/     M anipulation  |                                                 |
\*---------------------------------------------------------------------------*/
FoamFile
{
    version     2.0;
    format      ascii;
    arch        "LSB;label=32;scalar=64";
    class       surfaceScalarField;
    location    "1700";
    object      phi;
}
// * * * * * * * * * * * * * * * * * * * * * * * * * * * * * * * * * * * * * //

dimensions      [0 3 -1 0 0 0 0];

oriented        oriented;

internalField   nonuniform List<scalar> 
40747
(
7.23893e-06
7.64157e-06
2.52838e-06
4.71054e-06
8.76567e-06
1.68772e-05
4.18509e-06
7.10897e-06
1.06213e-05
2.80326e-05
5.21787e-06
9.58856e-06
1.28781e-05
4.14985e-05
5.8443e-06
1.22516e-05
1.56257e-05
5.77417e-05
6.1584e-06
1.53116e-05
1.89765e-05
7.73179e-05
6.18492e-06
1.895e-05
2.30706e-05
0.000100886
5.91393e-06
2.33416e-05
2.80838e-05
0.000129221
5.31736e-06
2.86803e-05
3.42381e-05
0.000163236
4.35815e-06
3.51973e-05
4.18154e-05
0.000203987
2.99768e-06
4.31758e-05
5.11761e-05
0.000252695
1.20444e-06
5.29693e-05
6.2784e-05
0.000310742
-1.03377e-06
6.50222e-05
7.72405e-05
0.000379675
-3.69212e-06
7.98989e-05
9.53312e-05
0.000461174
-6.68257e-06
9.83216e-05
0.00011809
0.000557
-9.81625e-06
0.000121223
0.000146888
0.000668893
-1.27505e-05
0.000149822
0.000183556
0.000798391
-1.49162e-05
0.000185722
0.000230559
0.000946542
-1.54223e-05
0.000231065
0.00029123
0.00111345
-1.29349e-05
0.000288743
0.000370108
0.00129756
-5.53728e-06
0.00036271
0.000473382
0.00149463
9.39622e-06
0.000458448
0.000609477
0.00169622
3.52344e-05
0.000583638
0.000789663
0.00188773
7.58129e-05
0.000749085
0.00102816
0.00204651
0.000134107
0.000969869
0.00134042
0.00214197
0.000208091
0.00126644
0.00174219
0.00213681
0.000285924
0.00166436
0.00225033
0.0019878
0.00034812
0.00218814
0.00284588
0.00168396
0.000361479
0.00283252
0.0034726
0.00128653
0.000305922
0.00352816
0.00418616
0.000820484
0.000212234
0.00427985
0.00399079
0.000394195
0.000112949
0.00409008
0.00398059
-2.18915e-05
1.06494e-05
0.00408289
0.00398036
-0.000437742
-9.15201e-05
0.00408252
0.00398985
-0.000863082
-0.000190645
0.00408897
0.00405602
-0.00131184
-0.000282789
0.00414817
0.00338526
-0.00169623
-0.000341174
0.00344364
0.00279772
-0.00199754
-0.000336406
0.00279295
0.00223616
-0.00215696
-0.000282146
0.0021819
0.00174765
-0.00217697
-0.00020986
0.00167536
0.00135678
-0.00209654
-0.000138156
0.00128508
0.00104958
-0.00195051
-7.95989e-05
0.000991024
0.000812175
-0.00176806
-3.76099e-05
0.000770186
0.000631022
-0.00157166
-1.00766e-05
0.000603489
0.000493057
-0.00137639
6.40996e-06
0.00047657
0.000387612
-0.00119138
1.50359e-05
0.000378986
0.000306566
-0.00102159
1.83774e-05
0.000303225
0.000243876
-0.000869185
1.83728e-05
0.000243881
0.000195064
-0.000734585
1.64112e-05
0.000197025
0.000156809
-0.000617148
1.34496e-05
0.00015977
0.000126637
-0.000515641
1.01214e-05
0.000129965
0.000102696
-0.000428546
6.82553e-06
0.000105992
8.35915e-05
-0.000354251
3.79648e-06
8.66206e-05
6.82654e-05
-0.000291171
1.157e-06
7.09049e-05
5.59112e-05
-0.000237817
-1.04321e-06
5.81114e-05
4.59092e-05
-0.000192828
-2.7998e-06
4.76658e-05
3.77796e-05
-0.000154991
-4.13456e-06
3.91143e-05
3.11489e-05
-0.000123234
-5.08211e-06
3.20964e-05
2.5724e-05
-9.66272e-05
-5.6806e-06
2.63225e-05
2.12737e-05
-7.43671e-05
-5.96494e-06
2.1558e-05
1.76141e-05
-5.57657e-05
-5.96036e-06
1.76096e-05
1.45988e-05
-4.02369e-05
-5.67394e-06
1.43123e-05
1.21097e-05
-2.72836e-05
-5.07849e-06
1.15142e-05
1.0052e-05
-1.64859e-05
-4.07882e-06
9.05238e-06
8.34905e-06
-7.49014e-06
-2.46106e-06
6.73128e-06
6.93893e-06
4.47788e-06
2.46674e-06
2.2438e-06
1.69153e-06
7.7521e-07
1.50539e-06
1.86131e-07
1.39659e-06
1.08808e-07
1.32832e-06
6.82653e-08
1.28286e-06
4.54607e-08
1.2506e-06
3.22627e-08
1.22674e-06
2.38523e-08
1.20861e-06
1.81308e-08
1.1945e-06
1.4115e-08
1.1833e-06
1.11954e-08
1.17429e-06
9.01123e-09
1.16696e-06
7.33388e-09
1.16092e-06
6.03669e-09
1.15591e-06
5.00624e-09
1.15173e-06
4.1803e-09
1.14822e-06
3.51577e-09
1.14525e-06
2.96632e-09
1.14273e-06
2.52586e-09
1.14057e-06
2.15777e-09
1.13872e-06
1.84636e-09
1.13713e-06
1.59354e-09
1.13575e-06
1.38027e-09
1.13455e-06
1.19607e-09
1.13351e-06
1.04359e-09
1.1326e-06
9.12059e-10
1.1318e-06
8.01852e-10
1.13109e-06
7.06506e-10
1.13047e-06
6.25074e-10
1.12991e-06
5.54483e-10
1.12942e-06
4.93955e-10
1.12898e-06
4.40946e-10
1.12859e-06
3.94568e-10
1.12823e-06
3.53101e-10
1.12792e-06
3.16862e-10
1.12763e-06
2.84477e-10
1.12738e-06
2.54251e-10
1.12716e-06
2.25139e-10
1.12696e-06
1.97993e-10
1.12679e-06
1.70176e-10
1.12665e-06
1.43417e-10
1.12653e-06
1.14219e-10
1.12645e-06
8.36523e-11
1.1264e-06
5.01549e-11
1.12639e-06
1.27937e-11
1.12642e-06
-3.09498e-11
1.1265e-06
-8.06764e-11
1.12664e-06
-1.38517e-10
1.12684e-06
-2.02533e-10
1.12711e-06
-2.74924e-10
1.12747e-06
-3.61147e-10
1.12793e-06
-4.57978e-10
1.12849e-06
-5.71241e-10
1.12919e-06
-6.97371e-10
1.13002e-06
-8.43107e-10
1.13101e-06
-1.00233e-09
1.13218e-06
-1.18883e-09
1.13355e-06
-1.39197e-09
1.13515e-06
-1.62792e-09
1.137e-06
-1.88471e-09
1.13914e-06
-2.18399e-09
1.1416e-06
-2.50486e-09
1.14442e-06
-2.88388e-09
1.1465e-06
-2.1605e-09
1.14871e-06
-2.32141e-09
1.15107e-06
-2.47808e-09
1.15359e-06
-2.64636e-09
1.15624e-06
-2.80588e-09
1.15905e-06
-2.96238e-09
1.16201e-06
-3.13375e-09
1.16514e-06
-3.29968e-09
1.16845e-06
-3.46925e-09
1.17196e-06
-3.64241e-09
1.17565e-06
-3.82143e-09
1.17958e-06
-4.02446e-09
1.18372e-06
-4.23941e-09
1.18817e-06
-4.50152e-09
1.19288e-06
-4.75186e-09
1.19809e-06
-5.15792e-09
1.20368e-06
-5.43036e-09
1.21012e-06
-6.07618e-09
1.21723e-06
-6.52379e-09
1.22559e-06
-7.38924e-09
1.23536e-06
-8.41099e-09
1.24971e-06
-1.24646e-08
1.27169e-06
-1.93259e-08
1.26267e-06
1.18314e-08
-1.00831e-06
2.27341e-06
5.50585e-06
3.84692e-06
4.29771e-06
1.98335e-06
3.92876e-06
5.55074e-07
3.69843e-06
3.39138e-07
3.54895e-06
2.17743e-07
3.44754e-06
1.46874e-07
3.37462e-06
1.05184e-07
3.32022e-06
7.82461e-08
3.27863e-06
5.97242e-08
3.2461e-06
4.66422e-08
3.22021e-06
3.70851e-08
3.19932e-06
2.99068e-08
3.18227e-06
2.4377e-08
3.16822e-06
2.00898e-08
3.15655e-06
1.6678e-08
3.14679e-06
1.39386e-08
3.13857e-06
1.17314e-08
3.13164e-06
9.90461e-09
3.12572e-06
8.43766e-09
3.12067e-06
7.21149e-09
3.11634e-06
6.17377e-09
3.11261e-06
5.32948e-09
3.10937e-06
4.61761e-09
3.10657e-06
4.00267e-09
3.10412e-06
3.49296e-09
3.10198e-06
3.05337e-09
3.1001e-06
2.68464e-09
3.09844e-06
2.36569e-09
3.09697e-06
2.09314e-09
3.09567e-06
1.85685e-09
3.09451e-06
1.65408e-09
3.09348e-06
1.47647e-09
3.09256e-06
1.32099e-09
3.09173e-06
1.182e-09
3.09099e-06
1.06019e-09
3.09032e-06
9.5123e-10
3.08973e-06
8.49471e-10
3.08921e-06
7.51294e-10
3.08875e-06
6.59371e-10
3.08836e-06
5.65029e-10
3.08803e-06
4.7363e-10
3.08777e-06
3.73902e-10
3.08759e-06
2.68823e-10
3.08748e-06
1.53468e-10
3.08747e-06
2.40481e-11
3.08757e-06
-1.27112e-10
3.08779e-06
-2.98088e-10
3.08815e-06
-4.99249e-10
3.08866e-06
-7.22656e-10
3.08936e-06
-9.74489e-10
3.09027e-06
-1.27448e-09
3.09141e-06
-1.61153e-09
3.09284e-06
-2.00539e-09
3.09457e-06
-2.44456e-09
3.09665e-06
-2.95253e-09
3.09913e-06
-3.50808e-09
3.10206e-06
-4.1591e-09
3.10549e-06
-4.86864e-09
3.10948e-06
-5.69246e-09
3.11411e-06
-6.58994e-09
3.11945e-06
-7.63221e-09
3.1256e-06
-8.75637e-09
3.13264e-06
-1.00715e-08
3.13782e-06
-7.52315e-09
3.14338e-06
-8.11768e-09
3.14929e-06
-8.64839e-09
3.15559e-06
-9.23839e-09
3.16224e-06
-9.77782e-09
3.16928e-06
-1.03458e-08
3.17671e-06
-1.09144e-08
3.18458e-06
-1.15126e-08
3.19287e-06
-1.20807e-08
3.20165e-06
-1.26955e-08
3.2109e-06
-1.33294e-08
3.22072e-06
-1.40281e-08
3.23113e-06
-1.48467e-08
3.24222e-06
-1.56919e-08
3.25418e-06
-1.67628e-08
3.26708e-06
-1.79215e-08
3.28133e-06
-1.9329e-08
3.29698e-06
-2.09559e-08
3.31509e-06
-2.34089e-08
3.33493e-06
-2.52687e-08
3.35979e-06
-3.05793e-08
3.39182e-06
-4.08336e-08
3.44422e-06
-6.66056e-08
3.48138e-06
-2.0124e-08
-1.76317e-06
4.2401e-06
8.84451e-06
4.59097e-06
7.6663e-06
3.16155e-06
7.2005e-06
1.02088e-06
6.87601e-06
6.63625e-07
6.65457e-06
4.39177e-07
6.50035e-06
3.01094e-07
6.38737e-06
2.18172e-07
6.30206e-06
1.63553e-07
6.23632e-06
1.25458e-07
6.18462e-06
9.83438e-08
6.14329e-06
7.84203e-08
6.10981e-06
6.33802e-08
6.08244e-06
5.17529e-08
6.05982e-06
4.27104e-08
6.04099e-06
3.55008e-08
6.02523e-06
2.97004e-08
6.01194e-06
2.50188e-08
6.00071e-06
2.11405e-08
5.99113e-06
1.80176e-08
5.98293e-06
1.54086e-08
5.97591e-06
1.31997e-08
5.96984e-06
1.13965e-08
5.96458e-06
9.87746e-09
5.96002e-06
8.56587e-09
5.95604e-06
7.47574e-09
5.95256e-06
6.53643e-09
5.9495e-06
5.74686e-09
5.9468e-06
5.06441e-09
5.94441e-06
4.48061e-09
5.9423e-06
3.97431e-09
5.94042e-06
3.53926e-09
5.93874e-06
3.158e-09
5.93724e-06
2.82409e-09
5.9359e-06
2.52544e-09
5.9347e-06
2.2624e-09
5.93362e-06
2.02659e-09
5.93267e-06
1.80609e-09
5.93183e-06
1.59264e-09
5.9311e-06
1.39112e-09
5.93049e-06
1.18365e-09
5.92998e-06
9.79858e-10
5.9296e-06
7.57355e-10
5.92935e-06
5.20059e-10
5.92925e-06
2.58459e-10
5.92931e-06
-3.79342e-11
5.92957e-06
-3.83146e-10
5.93004e-06
-7.70863e-10
5.93077e-06
-1.2347e-09
5.9318e-06
-1.75343e-09
5.93316e-06
-2.33635e-09
5.93491e-06
-3.03051e-09
5.9371e-06
-3.81182e-09
5.9398e-06
-4.72303e-09
5.94308e-06
-5.74333e-09
5.94702e-06
-6.91954e-09
5.9517e-06
-8.21451e-09
5.95721e-06
-9.71916e-09
5.96365e-06
-1.13729e-08
5.97116e-06
-1.3276e-08
5.97985e-06
-1.53707e-08
5.98988e-06
-1.7777e-08
6.0014e-06
-2.04075e-08
6.01463e-06
-2.34586e-08
6.02439e-06
-1.74819e-08
6.0348e-06
-1.87988e-08
6.04587e-06
-1.99956e-08
6.05765e-06
-2.13326e-08
6.07011e-06
-2.25865e-08
6.08329e-06
-2.38875e-08
6.09721e-06
-2.52081e-08
6.11191e-06
-2.65784e-08
6.12745e-06
-2.79564e-08
6.14384e-06
-2.93683e-08
6.16122e-06
-3.09634e-08
6.1795e-06
-3.25073e-08
6.19907e-06
-3.46124e-08
6.21961e-06
-3.6324e-08
6.24205e-06
-3.92588e-08
6.26556e-06
-4.12684e-08
6.29223e-06
-4.56208e-08
6.32004e-06
-4.79504e-08
6.35366e-06
-5.57509e-08
6.38833e-06
-5.79259e-08
6.43442e-06
-7.39415e-08
6.48562e-06
-8.83572e-08
6.57509e-06
-1.50927e-07
6.67344e-06
-1.13364e-07
-2.24065e-06
7.15454e-06
1.23111e-05
4.53148e-06
1.13072e-05
4.16549e-06
1.08037e-05
1.5244e-06
1.04035e-05
1.06381e-06
1.01157e-05
7.26988e-07
9.91017e-06
5.06582e-07
9.75718e-06
3.71158e-07
9.64051e-06
2.80226e-07
9.55005e-06
2.15917e-07
9.47859e-06
1.69805e-07
9.42127e-06
1.35742e-07
9.37473e-06
1.09913e-07
9.3366e-06
8.98836e-08
9.30505e-06
7.42643e-08
9.27876e-06
6.17923e-08
9.25672e-06
5.17409e-08
9.23812e-06
4.36165e-08
9.22238e-06
3.68816e-08
9.20895e-06
3.14448e-08
9.19745e-06
2.69056e-08
9.18759e-06
2.30615e-08
9.17908e-06
1.99135e-08
9.17169e-06
1.7264e-08
9.16528e-06
1.49778e-08
9.15969e-06
1.30726e-08
9.15479e-06
1.14324e-08
9.15049e-06
1.0051e-08
9.1467e-06
8.85797e-09
9.14334e-06
7.83639e-09
9.14037e-06
6.95009e-09
9.13773e-06
6.18765e-09
9.13537e-06
5.51922e-09
9.13326e-06
4.93362e-09
9.13138e-06
4.40976e-09
9.1297e-06
3.94642e-09
9.1282e-06
3.53032e-09
9.12686e-06
3.14098e-09
9.1257e-06
2.76338e-09
9.12469e-06
2.40451e-09
9.12384e-06
2.03448e-09
9.12315e-06
1.66701e-09
9.12265e-06
1.26598e-09
9.12233e-06
8.34476e-10
9.12224e-06
3.574e-10
9.12239e-06
-1.86692e-10
9.12282e-06
-8.19478e-10
9.12358e-06
-1.52615e-09
9.12472e-06
-2.37998e-09
9.1263e-06
-3.3407e-09
9.12838e-06
-4.41968e-09
9.13105e-06
-5.70229e-09
9.13437e-06
-7.14736e-09
9.13847e-06
-8.83059e-09
9.14342e-06
-1.07211e-08
9.14937e-06
-1.28943e-08
9.15642e-06
-1.52993e-08
9.16472e-06
-1.80746e-08
9.17443e-06
-2.1144e-08
9.18572e-06
-2.46519e-08
9.19879e-06
-2.85418e-08
9.21386e-06
-3.2974e-08
9.23118e-06
-3.78643e-08
9.25104e-06
-4.34992e-08
9.26572e-06
-3.23722e-08
9.28136e-06
-3.47249e-08
9.29794e-06
-3.68851e-08
9.31557e-06
-3.93006e-08
9.33423e-06
-4.16194e-08
9.35394e-06
-4.39885e-08
9.37476e-06
-4.64296e-08
9.39672e-06
-4.89145e-08
9.41993e-06
-5.15266e-08
9.44434e-06
-5.40802e-08
9.47026e-06
-5.71589e-08
9.49741e-06
-5.98583e-08
9.52656e-06
-6.39601e-08
9.55686e-06
-6.67353e-08
9.59018e-06
-7.26203e-08
9.62448e-06
-7.54012e-08
9.66382e-06
-8.45478e-08
9.70373e-06
-8.69966e-08
9.75266e-06
-1.03322e-07
9.80159e-06
-1.04746e-07
9.86806e-06
-1.37542e-07
9.93605e-06
-1.52505e-07
1.0057e-05
-2.66481e-07
1.01858e-05
-2.36902e-07
-2.62413e-06
1.0573e-05
1.61692e-05
3.67394e-06
1.54095e-05
4.92522e-06
1.49215e-05
2.01239e-06
1.44571e-05
1.52816e-06
1.41006e-05
1.08353e-06
1.38383e-05
7.68816e-07
1.36396e-05
5.69847e-07
1.34865e-05
4.33401e-07
1.33669e-05
3.35471e-07
1.3272e-05
2.6468e-07
1.31957e-05
2.12099e-07
1.31335e-05
1.72051e-07
1.30825e-05
1.40899e-07
1.30403e-05
1.16542e-07
1.3005e-05
9.70642e-08
1.29754e-05
8.13413e-08
1.29504e-05
6.86153e-08
1.29292e-05
5.80594e-08
1.29111e-05
4.95182e-08
1.28956e-05
4.23906e-08
1.28824e-05
3.63533e-08
1.28709e-05
3.13956e-08
1.28609e-05
2.72253e-08
1.28523e-05
2.36295e-08
1.28447e-05
2.06257e-08
1.28381e-05
1.80415e-08
1.28323e-05
1.58615e-08
1.28272e-05
1.39799e-08
1.28226e-05
1.23674e-08
1.28186e-05
1.0968e-08
1.28151e-05
9.76286e-09
1.28119e-05
8.70612e-09
1.2809e-05
7.78012e-09
1.28065e-05
6.95179e-09
1.28042e-05
6.2168e-09
1.28022e-05
5.55594e-09
1.28004e-05
4.9376e-09
1.27988e-05
4.33749e-09
1.27975e-05
3.7645e-09
1.27963e-05
3.1736e-09
1.27954e-05
2.58227e-09
1.27948e-05
1.93774e-09
1.27944e-05
1.24021e-09
1.27943e-05
4.67751e-10
1.27945e-05
-4.16313e-10
1.27951e-05
-1.44415e-09
1.27962e-05
-2.58775e-09
1.27978e-05
-3.97381e-09
1.28e-05
-5.54192e-09
1.28028e-05
-7.30697e-09
1.28065e-05
-9.39777e-09
1.28111e-05
-1.17541e-08
1.28168e-05
-1.44974e-08
1.28236e-05
-1.75842e-08
1.28318e-05
-2.11252e-08
1.28415e-05
-2.50582e-08
1.2853e-05
-2.9574e-08
1.28663e-05
-3.45891e-08
1.28819e-05
-4.02923e-08
1.28999e-05
-4.66463e-08
1.29206e-05
-5.38451e-08
1.29444e-05
-6.18353e-08
1.29717e-05
-7.09912e-08
1.29919e-05
-5.27811e-08
1.30133e-05
-5.65325e-08
1.30361e-05
-5.9983e-08
1.30602e-05
-6.38309e-08
1.30858e-05
-6.75891e-08
1.31127e-05
-7.13891e-08
1.31412e-05
-7.53435e-08
1.31712e-05
-7.93032e-08
1.32028e-05
-8.35894e-08
1.3236e-05
-8.76363e-08
1.32713e-05
-9.27308e-08
1.33081e-05
-9.68933e-08
1.33476e-05
-1.03702e-07
1.33885e-05
-1.07732e-07
1.34335e-05
-1.17614e-07
1.34793e-05
-1.21102e-07
1.3532e-05
-1.36725e-07
1.35847e-05
-1.38785e-07
1.36493e-05
-1.66409e-07
1.37129e-05
-1.66013e-07
1.37996e-05
-2.21099e-07
1.38838e-05
-2.32404e-07
1.40346e-05
-4.11516e-07
1.41805e-05
-3.76942e-07
-2.96201e-06
1.45224e-05
2.06637e-05
1.96024e-06
2.02124e-05
5.3765e-06
1.98086e-05
2.41618e-06
1.93033e-05
2.03351e-06
1.88797e-05
1.50715e-06
1.85557e-05
1.09277e-06
1.83048e-05
8.20803e-07
1.81087e-05
6.29491e-07
1.79543e-05
4.89801e-07
1.78312e-05
3.87836e-07
1.77317e-05
3.11614e-07
1.76504e-05
2.53274e-07
1.75836e-05
2.07736e-07
1.75281e-05
1.72028e-07
1.74818e-05
1.43425e-07
1.74428e-05
1.20296e-07
1.74099e-05
1.01548e-07
1.73819e-05
8.5986e-08
1.73581e-05
7.33657e-08
1.73376e-05
6.28369e-08
1.73201e-05
5.39172e-08
1.73049e-05
4.65736e-08
1.72917e-05
4.03982e-08
1.72803e-05
3.5077e-08
1.72703e-05
3.06222e-08
1.72616e-05
2.67917e-08
1.72539e-05
2.35554e-08
1.72471e-05
2.07635e-08
1.72411e-05
1.8369e-08
1.72358e-05
1.62903e-08
1.7231e-05
1.44986e-08
1.72268e-05
1.29272e-08
1.7223e-05
1.155e-08
1.72197e-05
1.03184e-08
1.72167e-05
9.22278e-09
1.7214e-05
8.23679e-09
1.72116e-05
7.31477e-09
1.72096e-05
6.42005e-09
1.72078e-05
5.56296e-09
1.72063e-05
4.67991e-09
1.72051e-05
3.79129e-09
1.72042e-05
2.82463e-09
1.72036e-05
1.7745e-09
1.72035e-05
6.10631e-10
1.72038e-05
-7.23145e-10
1.72046e-05
-2.27438e-09
1.7206e-05
-3.99785e-09
1.72081e-05
-6.08139e-09
1.72111e-05
-8.45062e-09
1.72149e-05
-1.11301e-08
1.72197e-05
-1.4288e-08
1.72258e-05
-1.78472e-08
1.72333e-05
-2.19905e-08
1.72423e-05
-2.6657e-08
1.72532e-05
-3.20019e-08
1.7266e-05
-3.79541e-08
1.72811e-05
-4.47629e-08
1.72988e-05
-5.23453e-08
1.73193e-05
-6.09363e-08
1.73431e-05
-7.05358e-08
1.73704e-05
-8.13669e-08
1.74018e-05
-9.34347e-08
1.74378e-05
-1.07197e-07
1.74644e-05
-7.96349e-08
1.74927e-05
-8.52143e-08
1.75226e-05
-9.03366e-08
1.75543e-05
-9.60159e-08
1.75879e-05
-1.01633e-07
1.76233e-05
-1.07274e-07
1.76606e-05
-1.1318e-07
1.76998e-05
-1.19015e-07
1.77412e-05
-1.25454e-07
1.77845e-05
-1.31378e-07
1.78305e-05
-1.39055e-07
1.78783e-05
-1.45018e-07
1.79296e-05
-1.55262e-07
1.79826e-05
-1.60787e-07
1.80406e-05
-1.75683e-07
1.80996e-05
-1.79916e-07
1.8167e-05
-2.03556e-07
1.82342e-05
-2.04906e-07
1.83159e-05
-2.46403e-07
1.83957e-05
-2.43178e-07
1.8504e-05
-3.25806e-07
1.86055e-05
-3.29209e-07
1.87863e-05
-5.85721e-07
1.89565e-05
-5.40655e-07
-3.2353e-06
1.92343e-05
2.6018e-05
-7.1616e-07
2.5943e-05
5.45153e-06
2.57062e-05
2.65297e-06
2.52005e-05
2.53919e-06
2.4721e-05
1.98663e-06
2.43343e-05
1.47949e-06
2.40257e-05
1.12942e-06
2.37802e-05
8.74987e-07
2.35848e-05
6.85175e-07
2.34277e-05
5.44899e-07
2.33002e-05
4.39196e-07
2.31956e-05
3.57808e-07
2.31094e-05
2.9401e-07
2.30376e-05
2.43812e-07
2.29775e-05
2.03516e-07
2.29269e-05
1.70866e-07
2.28841e-05
1.44357e-07
2.28478e-05
1.22332e-07
2.28167e-05
1.04429e-07
2.279e-05
8.94924e-08
2.27671e-05
7.6836e-08
2.27473e-05
6.63893e-08
2.27301e-05
5.76048e-08
2.27151e-05
5.00399e-08
2.27021e-05
4.36936e-08
2.26906e-05
3.82388e-08
2.26806e-05
3.36229e-08
2.26717e-05
2.96422e-08
2.26638e-05
2.62258e-08
2.26569e-05
2.32592e-08
2.26507e-05
2.06997e-08
2.26452e-05
1.84547e-08
2.26402e-05
1.64866e-08
2.26358e-05
1.47275e-08
2.26319e-05
1.31593e-08
2.26284e-05
1.17471e-08
2.26253e-05
1.04278e-08
2.26225e-05
9.1485e-09
2.26202e-05
7.92018e-09
2.26182e-05
6.65685e-09
2.26166e-05
5.38042e-09
2.26155e-05
3.99528e-09
2.26148e-05
2.48703e-09
2.26146e-05
8.1497e-10
2.26149e-05
-1.10078e-09
2.2616e-05
-3.32964e-09
2.26178e-05
-5.8085e-09
2.26205e-05
-8.78571e-09
2.26242e-05
-1.21854e-08
2.26292e-05
-1.60542e-08
2.26354e-05
-2.05877e-08
2.26433e-05
-2.56995e-08
2.26529e-05
-3.16482e-08
2.26646e-05
-3.83503e-08
2.26785e-05
-4.60178e-08
2.26951e-05
-5.45741e-08
2.27146e-05
-6.43325e-08
2.27373e-05
-7.52197e-08
2.27638e-05
-8.75202e-08
2.27943e-05
-1.01289e-07
2.28295e-05
-1.16776e-07
2.28699e-05
-1.34073e-07
2.29162e-05
-1.53717e-07
2.29503e-05
-1.14105e-07
2.29866e-05
-1.22018e-07
2.3025e-05
-1.29263e-07
2.30657e-05
-1.37234e-07
2.31087e-05
-1.45185e-07
2.31539e-05
-1.53139e-07
2.32016e-05
-1.61491e-07
2.32516e-05
-1.69655e-07
2.33044e-05
-1.78777e-07
2.33596e-05
-1.87014e-07
2.3418e-05
-1.97877e-07
2.34787e-05
-2.06037e-07
2.35435e-05
-2.20457e-07
2.36104e-05
-2.2781e-07
2.36833e-05
-2.48683e-07
2.37576e-05
-2.53883e-07
2.38416e-05
-2.86931e-07
2.39254e-05
-2.87525e-07
2.40263e-05
-3.45269e-07
2.41246e-05
-3.38434e-07
2.42562e-05
-4.53353e-07
2.43785e-05
-4.46052e-07
2.45874e-05
-7.87209e-07
2.47957e-05
-7.41738e-07
-3.43928e-06
2.50048e-05
3.24691e-05
-4.50487e-06
3.28432e-05
5.07736e-06
3.28656e-05
2.63061e-06
3.24197e-05
2.98507e-06
3.19101e-05
2.49624e-06
3.14674e-05
1.92222e-06
3.10992e-05
1.49755e-06
3.07991e-05
1.1751e-06
3.05566e-05
9.27686e-07
3.03597e-05
7.41835e-07
3.01985e-05
6.00312e-07
3.00658e-05
4.90512e-07
2.99559e-05
4.03972e-07
2.98641e-05
3.35585e-07
2.97871e-05
2.80533e-07
2.97221e-05
2.35817e-07
2.96671e-05
1.99433e-07
2.96202e-05
1.69169e-07
2.95801e-05
1.44504e-07
2.95457e-05
1.23918e-07
2.95161e-05
1.06469e-07
2.94905e-05
9.20298e-08
2.94682e-05
7.98842e-08
2.94488e-05
6.94299e-08
2.94318e-05
6.06417e-08
2.9417e-05
5.30897e-08
2.94039e-05
4.66889e-08
2.93924e-05
4.11697e-08
2.93822e-05
3.64295e-08
2.93732e-05
3.23125e-08
2.93651e-05
2.8757e-08
2.93579e-05
2.56377e-08
2.93515e-05
2.29027e-08
2.93458e-05
2.04593e-08
2.93407e-05
1.82775e-08
2.93361e-05
1.63115e-08
2.93321e-05
1.44772e-08
2.93286e-05
1.27006e-08
2.93255e-05
1.09922e-08
2.93229e-05
9.2394e-09
2.93208e-05
7.4632e-09
2.93193e-05
5.54132e-09
2.93183e-05
3.44609e-09
2.9318e-05
1.1236e-09
2.93185e-05
-1.53414e-09
2.93198e-05
-4.62535e-09
2.9322e-05
-8.07347e-09
2.93254e-05
-1.21807e-08
2.93301e-05
-1.68841e-08
2.93363e-05
-2.2268e-08
2.93442e-05
-2.85448e-08
2.93542e-05
-3.56307e-08
2.93663e-05
-4.38675e-08
2.93811e-05
-5.31469e-08
2.93988e-05
-6.37541e-08
2.94197e-05
-7.56096e-08
2.94444e-05
-8.90985e-08
2.94732e-05
-1.04164e-07
2.95066e-05
-1.21149e-07
2.95453e-05
-1.40177e-07
2.95898e-05
-1.6153e-07
2.96408e-05
-1.85411e-07
2.96992e-05
-2.12443e-07
2.97422e-05
-1.57571e-07
2.9788e-05
-1.68408e-07
2.98364e-05
-1.78309e-07
2.98876e-05
-1.89106e-07
2.99417e-05
-1.9993e-07
2.99985e-05
-2.1074e-07
3.00584e-05
-2.22093e-07
3.01211e-05
-2.3311e-07
3.01871e-05
-2.45496e-07
3.02561e-05
-2.56551e-07
3.0329e-05
-2.71235e-07
3.04046e-05
-2.8208e-07
3.04852e-05
-3.01404e-07
3.05683e-05
-3.11067e-07
3.06583e-05
-3.38818e-07
3.07502e-05
-3.45409e-07
3.08531e-05
-3.89112e-07
3.09563e-05
-3.89242e-07
3.10786e-05
-4.65275e-07
3.11983e-05
-4.54677e-07
3.13552e-05
-6.05532e-07
3.15031e-05
-5.87792e-07
3.17373e-05
-1.01305e-06
3.19921e-05
-9.88374e-07
-3.59226e-06
3.21507e-05
4.0291e-05
-9.59862e-06
4.1195e-05
4.17334e-06
4.15737e-05
2.25188e-06
4.12658e-05
3.29305e-06
4.07703e-05
2.99166e-06
4.02908e-05
2.40177e-06
3.98683e-05
1.92008e-06
3.95118e-05
1.53156e-06
3.92176e-05
1.22191e-06
3.89753e-05
9.84152e-07
3.8775e-05
8.00526e-07
3.86089e-05
6.56616e-07
3.84705e-05
5.42366e-07
3.83545e-05
4.51577e-07
3.82569e-05
3.78207e-07
3.81743e-05
3.18421e-07
3.81041e-05
2.69641e-07
3.80442e-05
2.28999e-07
3.7993e-05
1.95778e-07
3.79488e-05
1.68027e-07
3.79108e-05
1.44495e-07
3.78779e-05
1.24967e-07
3.78492e-05
1.0853e-07
3.78243e-05
9.43863e-08
3.78025e-05
8.24721e-08
3.77833e-05
7.22338e-08
3.77665e-05
6.35415e-08
3.77516e-05
5.60459e-08
3.77385e-05
4.96028e-08
3.77268e-05
4.40057e-08
3.77164e-05
3.91669e-08
3.77071e-05
3.49208e-08
3.76988e-05
3.11967e-08
3.76914e-05
2.78716e-08
3.76848e-05
2.48981e-08
3.76789e-05
2.22173e-08
3.76737e-05
1.97199e-08
3.76691e-05
1.73052e-08
3.76651e-05
1.49807e-08
3.76617e-05
1.2603e-08
3.7659e-05
1.01888e-08
3.7657e-05
7.58501e-09
3.76557e-05
4.74571e-09
3.76552e-05
1.59991e-09
3.76557e-05
-1.99331e-09
3.76572e-05
-6.16737e-09
3.766e-05
-1.08418e-08
3.76642e-05
-1.63646e-08
3.767e-05
-2.26995e-08
3.76777e-05
-2.99813e-08
3.76875e-05
-3.84376e-08
3.76999e-05
-4.80015e-08
3.77151e-05
-5.9097e-08
3.77335e-05
-7.15966e-08
3.77555e-05
-8.58743e-08
3.77816e-05
-1.01851e-07
3.78124e-05
-1.19994e-07
3.78483e-05
-1.40269e-07
3.789e-05
-1.63088e-07
3.79382e-05
-1.88658e-07
3.79936e-05
-2.17301e-07
3.80572e-05
-2.4935e-07
3.81298e-05
-2.85544e-07
3.81833e-05
-2.11617e-07
3.82403e-05
-2.26059e-07
3.83005e-05
-2.39236e-07
3.8364e-05
-2.53482e-07
3.8431e-05
-2.67793e-07
3.85014e-05
-2.82086e-07
3.85755e-05
-2.97058e-07
3.8653e-05
-3.11535e-07
3.87345e-05
-3.27816e-07
3.88196e-05
-3.42284e-07
3.89092e-05
-3.61451e-07
3.90022e-05
-3.75579e-07
3.91009e-05
-4.00532e-07
3.92028e-05
-4.13129e-07
3.93125e-05
-4.48627e-07
3.94247e-05
-4.57249e-07
3.95491e-05
-5.12706e-07
3.96747e-05
-5.13081e-07
3.98211e-05
-6.0897e-07
3.9966e-05
-5.95551e-07
4.01501e-05
-7.8423e-07
4.03296e-05
-7.60355e-07
4.05872e-05
-1.2614e-06
4.0888e-05
-1.28014e-06
-3.71886e-06
4.10208e-05
4.98121e-05
-1.62349e-05
5.13385e-05
2.64694e-06
5.2174e-05
1.41636e-06
5.20958e-05
3.37123e-06
5.16793e-05
3.40818e-06
5.11994e-05
2.88169e-06
5.0739e-05
2.38039e-06
5.03314e-05
1.93923e-06
4.99847e-05
1.56863e-06
4.96934e-05
1.2754e-06
4.94494e-05
1.04453e-06
4.92449e-05
8.61108e-07
4.90732e-05
7.1405e-07
4.89285e-05
5.96315e-07
4.8806e-05
5.00661e-07
4.87021e-05
4.22382e-07
4.86134e-05
3.58284e-07
4.85377e-05
3.04751e-07
4.84726e-05
2.60844e-07
4.84165e-05
2.24109e-07
4.83681e-05
1.92934e-07
4.83261e-05
1.66987e-07
4.82895e-05
1.45121e-07
4.82576e-05
1.26307e-07
4.82296e-05
1.10424e-07
4.82051e-05
9.67717e-08
4.81835e-05
8.51596e-08
4.81644e-05
7.51428e-08
4.81475e-05
6.65241e-08
4.81325e-05
5.90351e-08
4.81191e-05
5.25532e-08
4.81072e-05
4.68633e-08
4.80965e-05
4.18712e-08
4.8087e-05
3.74164e-08
4.80784e-05
3.34277e-08
4.80708e-05
2.98296e-08
4.80641e-05
2.64831e-08
4.80582e-05
2.32542e-08
4.8053e-05
2.01441e-08
4.80486e-05
1.69741e-08
4.80451e-05
1.37514e-08
4.80424e-05
1.0288e-08
4.80406e-05
6.51376e-09
4.80399e-05
2.33531e-09
4.80403e-05
-2.42687e-09
4.80421e-05
-7.94633e-09
4.80454e-05
-1.41527e-08
4.80505e-05
-2.14334e-08
4.80576e-05
-2.97914e-08
4.8067e-05
-3.94219e-08
4.80791e-05
-5.05734e-08
4.80943e-05
-6.32099e-08
4.8113e-05
-7.78341e-08
4.81356e-05
-9.43152e-08
4.81627e-05
-1.13123e-07
4.81949e-05
-1.34188e-07
4.82328e-05
-1.5807e-07
4.82771e-05
-1.84761e-07
4.83285e-05
-2.14769e-07
4.83878e-05
-2.48375e-07
4.84561e-05
-2.85977e-07
4.85343e-05
-3.28036e-07
4.86236e-05
-3.75477e-07
4.86894e-05
-2.78037e-07
4.87593e-05
-2.96863e-07
4.88332e-05
-3.14035e-07
4.89112e-05
-3.32449e-07
4.89932e-05
-3.50947e-07
4.90795e-05
-3.69434e-07
4.917e-05
-3.88721e-07
4.92648e-05
-4.07358e-07
4.93642e-05
-4.28229e-07
4.94679e-05
-4.46799e-07
4.95769e-05
-4.71167e-07
4.96901e-05
-4.89271e-07
4.98097e-05
-5.20625e-07
4.99332e-05
-5.36902e-07
5.00655e-05
-5.80996e-07
5.02012e-05
-5.92551e-07
5.03501e-05
-6.60672e-07
5.05016e-05
-6.62556e-07
5.0675e-05
-7.79245e-07
5.08494e-05
-7.65396e-07
5.10629e-05
-9.91586e-07
5.12801e-05
-9.6977e-07
5.15618e-05
-1.53297e-06
5.1903e-05
-1.61161e-06
-3.83694e-06
5.20276e-05
6.14315e-05
-2.46971e-05
6.369e-05
3.88443e-07
6.50866e-05
1.97926e-08
6.53389e-05
3.11889e-06
6.50849e-05
3.66225e-06
6.46616e-05
3.30495e-06
6.41967e-05
2.84535e-06
6.37543e-05
2.38158e-06
6.33616e-05
1.96134e-06
6.30223e-05
1.6147e-06
6.27324e-05
1.33441e-06
6.2486e-05
1.10753e-06
6.22769e-05
9.23162e-07
6.20991e-05
7.74064e-07
6.19478e-05
6.52029e-07
6.18186e-05
5.51579e-07
6.17079e-05
4.68928e-07
6.1613e-05
3.99666e-07
6.15312e-05
3.42622e-07
6.14606e-05
2.94781e-07
6.13994e-05
2.5413e-07
6.13462e-05
2.20183e-07
6.12998e-05
1.91524e-07
6.12592e-05
1.66857e-07
6.12237e-05
1.45984e-07
6.11924e-05
1.28032e-07
6.11649e-05
1.12731e-07
6.11405e-05
9.95238e-08
6.11189e-05
8.8146e-08
6.10997e-05
7.8256e-08
6.10826e-05
6.96847e-08
6.10673e-05
6.21572e-08
6.10536e-05
5.55497e-08
6.10414e-05
4.96559e-08
6.10305e-05
4.43729e-08
6.10207e-05
3.96044e-08
6.1012e-05
3.51766e-08
6.10044e-05
3.09146e-08
6.09978e-05
2.68088e-08
6.09921e-05
2.26403e-08
6.09875e-05
1.84e-08
6.09839e-05
1.38602e-08
6.09815e-05
8.91995e-09
6.09804e-05
3.45651e-09
6.09807e-05
-2.75521e-09
6.09827e-05
-9.93194e-09
6.09866e-05
-1.80307e-08
6.09926e-05
-2.74772e-08
6.10011e-05
-3.83226e-08
6.10125e-05
-5.08324e-08
6.10272e-05
-6.52852e-08
6.10456e-05
-8.16913e-08
6.10684e-05
-1.00627e-07
6.10959e-05
-1.21986e-07
6.1129e-05
-1.46326e-07
6.11682e-05
-1.73612e-07
6.12144e-05
-2.04497e-07
6.12684e-05
-2.39015e-07
6.1331e-05
-2.77784e-07
6.14033e-05
-3.21169e-07
6.14865e-05
-3.69666e-07
6.15817e-05
-4.23877e-07
6.16905e-05
-4.84989e-07
6.17705e-05
-3.58851e-07
6.18555e-05
-3.82937e-07
6.19453e-05
-4.04938e-07
6.20399e-05
-4.28341e-07
6.21395e-05
-4.51833e-07
6.22441e-05
-4.75313e-07
6.23537e-05
-4.99711e-07
6.24684e-05
-5.23295e-07
6.25886e-05
-5.49539e-07
6.27138e-05
-5.72994e-07
6.28451e-05
-6.03363e-07
6.29815e-05
-6.26254e-07
6.31251e-05
-6.64821e-07
6.32736e-05
-6.85704e-07
6.34317e-05
-7.39182e-07
6.35946e-05
-7.54912e-07
6.37714e-05
-8.36371e-07
6.39529e-05
-8.41704e-07
6.41565e-05
-9.79409e-07
6.43655e-05
-9.69123e-07
6.4611e-05
-1.2303e-06
6.48711e-05
-1.22134e-06
6.51791e-05
-1.83027e-06
6.55548e-05
-1.97708e-06
-3.95719e-06
6.56818e-05
7.56393e-05
-3.53142e-05
7.8762e-05
-2.73428e-06
8.08308e-05
-2.04902e-06
8.15195e-05
2.43022e-06
8.15259e-05
3.65582e-06
8.12374e-05
3.59346e-06
8.08215e-05
3.26124e-06
8.03774e-05
2.8256e-06
7.99572e-05
2.38159e-06
7.95789e-05
1.99296e-06
7.92465e-05
1.66681e-06
7.89582e-05
1.39588e-06
7.87097e-05
1.17159e-06
7.84961e-05
9.877e-07
7.83125e-05
8.35632e-07
7.81546e-05
7.09461e-07
7.80186e-05
6.04963e-07
7.79013e-05
5.16975e-07
7.77998e-05
4.44132e-07
7.77117e-05
3.82823e-07
7.76352e-05
3.30624e-07
7.75686e-05
2.86867e-07
7.75103e-05
2.49831e-07
7.74592e-05
2.17927e-07
7.74143e-05
1.90857e-07
7.73748e-05
1.67553e-07
7.73399e-05
1.47643e-07
7.7309e-05
1.30438e-07
7.72816e-05
1.15595e-07
7.72572e-05
1.02685e-07
7.72354e-05
9.14797e-08
7.7216e-05
8.16322e-08
7.71986e-05
7.29831e-08
7.7183e-05
6.52695e-08
7.7169e-05
5.83487e-08
7.71565e-05
5.2097e-08
7.71454e-05
4.63004e-08
7.71356e-05
4.07361e-08
7.71271e-05
3.53761e-08
7.71198e-05
2.9957e-08
7.71138e-05
2.44443e-08
7.71091e-05
1.85649e-08
7.71058e-05
1.21808e-08
7.71042e-05
5.12989e-09
7.71043e-05
-2.86666e-09
7.71064e-05
-1.20699e-08
7.71109e-05
-2.24843e-08
7.7118e-05
-3.45777e-08
7.71281e-05
-4.84576e-08
7.71417e-05
-6.44695e-08
7.71593e-05
-8.29302e-08
7.71814e-05
-1.0392e-07
7.72088e-05
-1.28079e-07
7.7242e-05
-1.5536e-07
7.72819e-05
-1.86398e-07
7.73293e-05
-2.21223e-07
7.73851e-05
-2.60573e-07
7.74503e-05
-3.04557e-07
7.75259e-05
-3.53904e-07
7.76132e-05
-4.09095e-07
7.77136e-05
-4.70719e-07
7.78285e-05
-5.39564e-07
7.79597e-05
-6.17143e-07
7.80562e-05
-4.56324e-07
7.81586e-05
-4.86649e-07
7.82668e-05
-5.14441e-07
7.83807e-05
-5.43763e-07
7.85005e-05
-5.73183e-07
7.86262e-05
-6.02562e-07
7.87579e-05
-6.32972e-07
7.88955e-05
-6.62398e-07
7.90395e-05
-6.949e-07
7.91895e-05
-7.24141e-07
7.93466e-05
-7.61389e-07
7.95096e-05
-7.90046e-07
7.96808e-05
-8.3666e-07
7.98581e-05
-8.63318e-07
8.00457e-05
-9.26892e-07
8.02398e-05
-9.48417e-07
8.04484e-05
-1.04365e-06
8.06644e-05
-1.05511e-06
8.09022e-05
-1.21326e-06
8.11509e-05
-1.21208e-06
8.14318e-05
-1.50377e-06
8.17391e-05
-1.51947e-06
8.20758e-05
-2.15589e-06
8.24815e-05
-2.37236e-06
-4.08806e-06
8.26191e-05
9.30403e-05
-4.84556e-05
9.71864e-05
-6.88044e-06
0.00010005
-4.91271e-06
0.000101285
1.19551e-06
0.000101659
3.28172e-06
0.000101601
3.65129e-06
0.00010131
3.55249e-06
0.000100918
3.21753e-06
0.000100506
2.79389e-06
0.00010011
2.38812e-06
9.97484e-05
2.02887e-06
9.94249e-05
1.71938e-06
9.914e-05
1.45644e-06