/*--------------------------------*- C++ -*----------------------------------*\
| =========                 |                                                 |
| \\      /  F ield         | OpenFOAM: The Open Source CFD Toolbox           |
|  \\    /   O peration     | Version:  2306                                  |
|   \\  /    A nd           | Website:  www.openfoam.com                      |
|    \\/     M anipulation  |                                                 |
\*---------------------------------------------------------------------------*/
FoamFile
{
    version     2.0;
    format      ascii;
    arch        "LSB;label=32;scalar=64";
    class       volSymmTensorField;
    location    "1700";
    object      turbulenceProperties:devReff;
}
// * * * * * * * * * * * * * * * * * * * * * * * * * * * * * * * * * * * * * //

dimensions      [0 2 -2 0 0 0 0];

internalField   nonuniform List<symmTensor> 
20540
(
(7.56068 -17.3059 -0 -7.40402 -0 -0.156655)
(24.3924 -30.8703 -0 -23.1766 -0 -1.21576)
(5.16766 -28.0208 -0 -5.22973 -0 0.0620755)
(10.756 -52.5173 -0 -11.4698 -0 0.713754)
(4.44237 -30.8943 -0 -4.50265 -0 0.0602803)
(4.94486 -58.1356 -0 -5.2324 -0 0.287536)
(4.01404 -32.2548 -0 -3.99733 -0 -0.0167122)
(2.08567 -61.0747 -0 -1.97606 -0 -0.109615)
(3.78476 -33.0443 -0 -3.77375 -0 -0.0110124)
(0.797754 -63.1003 -0 -0.730019 -0 -0.0677351)
(3.61865 -33.5315 -0 -3.61727 -0 -0.00138658)
(0.046938 -64.6873 -0 -0.0345366 -0 -0.0124014)
(3.48458 -33.7888 -0 -3.48524 -0 0.000661489)
(-0.468042 -65.9382 -0 0.467572 -0 0.000470604)
(3.3764 -33.8426 -0 -3.37667 -0 0.000269828)
(-0.828273 -66.9036 -0 0.828561 -0 -0.000287511)
(3.28836 -33.7055 -0 -3.28837 -0 7.25847e-06)
(-1.07357 -67.6284 -0 1.07459 -0 -0.00102348)
(3.21374 -33.3823 -0 -3.21373 -0 -6.92961e-06)
(-1.23047 -68.1487 -0 1.23129 -0 -0.000818032)
(3.14612 -32.8712 -0 -3.14613 -0 1.61676e-05)
(-1.31406 -68.4892 -0 1.3146 -0 -0.000536231)
(3.07944 -32.1651 -0 -3.07946 -0 1.87194e-05)
(-1.33139 -68.664 -0 1.33177 -0 -0.000374516)
(3.00755 -31.2529 -0 -3.00755 -0 5.80001e-06)
(-1.28496 -68.6769 -0 1.28522 -0 -0.000251153)
(2.92389 -30.1203 -0 -2.92387 -0 -2.20536e-05)
(-1.17486 -68.5204 -0 1.17496 -0 -0.000100356)
(2.82137 -28.7519 -0 -2.82129 -0 -8.06123e-05)
(-1.00012 -68.1747 -0 1.00001 -0 0.00011404)
(2.6924 -27.132 -0 -2.6922 -0 -0.000206143)
(-0.759917 -67.6053 -0 0.759476 -0 0.000440943)
(2.52932 -25.2477 -0 -2.52889 -0 -0.000436444)
(-0.454752 -66.7591 -0 0.453783 -0 0.000968682)
(2.32547 -23.0909 -0 -2.32476 -0 -0.000711838)
(-0.0881103 -65.5595 -0 0.0862895 -0 0.00182081)
(2.07738 -20.6621 -0 -2.07657 -0 -0.000813715)
(0.331102 -63.8959 -0 -0.334167 -0 0.00306557)
(1.78779 -17.9798 -0 -1.78677 -0 -0.00101766)
(0.784595 -61.6113 -0 -0.789429 -0 0.00483424)
(1.46919 -15.1176 -0 -1.4676 -0 -0.00159289)
(1.23872 -58.4597 -0 -1.24648 -0 0.00776422)
(1.13468 -12.1104 -0 -1.13381 -0 -0.000871009)
(1.64144 -54.1932 -0 -1.65366 -0 0.0122251)
(0.80912 -9.02353 -0 -0.811592 -0 0.00247182)
(1.91804 -48.4977 -0 -1.93375 -0 0.01571)
(0.523524 -5.98176 -0 -0.524777 -0 0.00125311)
(1.97008 -41.0804 -0 -1.98411 -0 0.0140217)
(0.289443 -3.27819 -0 -0.277009 -0 -0.012434)
(1.70665 -31.9189 -0 -1.72571 -0 0.0190591)
(-0.0162887 -0.84073 -0 0.0378931 -0 -0.0216044)
(1.15122 -21.536 -0 -1.20176 -0 0.0505473)
(-0.428584 1.49289 -0 0.432264 -0 -0.00367963)
(0.503267 -11.1959 -0 -0.546452 -0 0.0431856)
(-0.654555 2.03993 -0 0.664138 -0 -0.00958323)
(-0.00370477 -4.25219 -0 -0.0142888 -0 0.0179935)
(-0.863755 1.89611 -0 0.891947 -0 -0.0281916)
(-0.598437 -1.09629 -0 0.541882 -0 0.056555)
(-1.11704 1.30564 -0 1.14418 -0 -0.0271423)
(-1.08394 0.576196 -0 0.984942 -0 0.0989932)
(-1.33395 0.656573 -0 1.35817 -0 -0.0242144)
(-1.22188 0.624368 -0 1.13375 -0 0.0881262)
(-1.41793 0.191724 -0 1.44983 -0 -0.0319071)
(-1.32692 0.258003 -0 1.2367 -0 0.0902237)
(-1.41784 -0.186064 -0 1.45016 -0 -0.0323265)
(-1.32804 -0.226505 -0 1.23745 -0 0.0905814)
(-1.33677 -0.635895 -0 1.36153 -0 -0.0247584)
(-1.22354 -0.594326 -0 1.13747 -0 0.0860663)
(-1.13311 -1.24315 -0 1.15933 -0 -0.026221)
(-1.08587 -0.570967 -0 0.989546 -0 0.0963204)
(-0.891079 -1.80721 -0 0.919129 -0 -0.02805)
(-0.652363 0.900828 -0 0.592905 -0 0.0594578)
(-0.683395 -1.97555 -0 0.694437 -0 -0.0110419)
(-0.0535159 3.76119 -0 0.0376139 -0 0.015902)
(-0.46351 -1.49507 -0 0.466074 -0 -0.00256379)
(0.398755 9.81505 -0 -0.43524 -0 0.036485)
(-0.0816389 0.589786 -0 0.101508 -0 -0.0198695)
(0.996034 19.4592 -0 -1.04724 -0 0.0512089)
(0.248616 2.99201 -0 -0.234805 -0 -0.013811)
(1.54859 29.4443 -0 -1.56935 -0 0.0207665)
(0.473801 5.56461 -0 -0.473773 -0 -2.75355e-05)
(1.85118 38.4166 -0 -1.86453 -0 0.0133419)
(0.746523 8.5067 -0 -0.749253 -0 0.00272978)
(1.85388 45.8214 -0 -1.86938 -0 0.0155007)
(1.06339 11.5336 -0 -1.06287 -0 -0.000524597)
(1.62929 51.5935 -0 -1.64191 -0 0.0126199)
(1.39677 14.516 -0 -1.39522 -0 -0.00155118)
(1.26867 55.9688 -0 -1.27692 -0 0.00825088)
(1.72088 17.3865 -0 -1.71976 -0 -0.0011244)
(0.844529 59.2352 -0 -0.849748 -0 0.00521891)
(2.02013 20.1044 -0 -2.01921 -0 -0.000916964)
(0.408724 61.6271 -0 -0.412092 -0 0.00336794)
(2.28005 22.5922 -0 -2.27927 -0 -0.000780303)
(-0.00404277 63.3877 -0 0.00197314 -0 0.00206962)
(2.49631 24.8263 -0 -2.49582 -0 -0.000484999)
(-0.3741 64.6739 -0 0.372935 -0 0.00116478)
(2.67113 26.8012 -0 -2.67089 -0 -0.00024411)
(-0.691164 65.5975 -0 0.690566 -0 0.000597818)
(2.81029 28.5206 -0 -2.81018 -0 -0.000110138)
(-0.950529 66.2395 -0 0.95028 -0 0.000248411)
(2.92082 29.9942 -0 -2.92078 -0 -4.38397e-05)
(-1.15069 66.6562 -0 1.15067 -0 1.82127e-05)
(3.00991 31.2352 -0 -3.0099 -0 -9.96814e-06)
(-1.29189 66.8862 -0 1.29203 -0 -0.000142689)
(3.08435 32.2579 -0 -3.08436 -0 8.15062e-06)
(-1.37504 66.9534 -0 1.37531 -0 -0.000261645)
(3.15045 33.0763 -0 -3.15046 -0 1.65531e-05)
(-1.4008 66.8706 -0 1.40117 -0 -0.00036548)
(3.21405 33.7022 -0 -3.21406 -0 1.15394e-05)
(-1.36854 66.6401 -0 1.36905 -0 -0.000514478)
(3.28073 34.1443 -0 -3.28072 -0 -1.3671e-05)
(-1.27516 66.2547 -0 1.27594 -0 -0.000782547)
(3.35611 34.4075 -0 -3.35611 -0 -3.85393e-06)
(-1.11305 65.6986 -0 1.11403 -0 -0.000980252)
(3.44627 34.4911 -0 -3.44652 -0 0.000249845)
(-0.866738 64.9457 -0 0.867055 -0 -0.000317076)
(3.55779 34.3879 -0 -3.55843 -0 0.000638465)
(-0.509452 63.9593 -0 0.509246 -0 0.000206586)
(3.69654 34.0822 -0 -3.69517 -0 -0.00136995)
(-0.000679019 62.6931 -0 0.0131291 -0 -0.0124501)
(3.86903 33.5433 -0 -3.8581 -0 -0.010928)
(0.742736 61.0921 -0 -0.677902 -0 -0.0648342)
(4.10686 32.6936 -0 -4.09012 -0 -0.0167366)
(2.02031 59.0479 -0 -1.91855 -0 -0.10176)
(4.54538 31.2617 -0 -4.60545 -0 0.0600622)
(4.83292 56.1059 -0 -5.10976 -0 0.276835)
(5.27962 28.3027 -0 -5.34196 -0 0.0623409)
(10.5027 50.5932 -0 -11.1751 -0 0.672345)
(7.67899 17.3863 -0 -7.52366 -0 -0.155332)
(23.4976 29.5552 -0 -22.3547 -0 -1.14285)
(0.00892749 -16.9737 -0 -0.00894551 -0 1.80262e-05)
(0.00282902 -9.57608 -0 -0.00284694 -0 1.79179e-05)
(0.000683439 -8.26512 -0 -0.000692018 -0 8.57912e-06)
(0.000404448 -7.51528 -0 -0.000404261 -0 -1.86864e-07)
(0.000258894 -7.05249 -0 -0.000257052 -0 -1.84181e-06)
(0.000176897 -6.75376 -0 -0.000175035 -0 -1.86161e-06)
(0.000129265 -6.54631 -0 -0.000127546 -0 -1.71931e-06)
(9.86383e-05 -6.39487 -0 -9.7129e-05 -0 -1.50927e-06)
(7.74922e-05 -6.2811 -0 -7.621e-05 -0 -1.28222e-06)
(6.2409e-05 -6.19343 -0 -6.13185e-05 -0 -1.09056e-06)
(5.1244e-05 -6.12439 -0 -5.03095e-05 -0 -9.34508e-07)
(4.27219e-05 -6.06919 -0 -4.19184e-05 -0 -8.03536e-07)
(3.60261e-05 -6.02443 -0 -3.53317e-05 -0 -6.94397e-07)
(3.07353e-05 -5.98787 -0 -3.01319e-05 -0 -6.03409e-07)
(2.64234e-05 -5.95752 -0 -2.58959e-05 -0 -5.27564e-07)
(2.28772e-05 -5.93239 -0 -2.24143e-05 -0 -4.62928e-07)
(1.99528e-05 -5.91121 -0 -1.95445e-05 -0 -4.08292e-07)
(1.74589e-05 -5.89344 -0 -1.70978e-05 -0 -3.61104e-07)
(1.54212e-05 -5.87835 -0 -1.51005e-05 -0 -3.20613e-07)
(1.36647e-05 -5.86547 -0 -1.33785e-05 -0 -2.8625e-07)
(1.21293e-05 -5.85446 -0 -1.18733e-05 -0 -2.55985e-07)
(1.08609e-05 -5.84503 -0 -1.06316e-05 -0 -2.29382e-07)
(9.76006e-06 -5.83682 -0 -9.55342e-06 -0 -2.0664e-07)
(8.77411e-06 -5.82975 -0 -8.58755e-06 -0 -1.86558e-07)
(7.94338e-06 -5.82359 -0 -7.77464e-06 -0 -1.68738e-07)
(7.20283e-06 -5.8182 -0 -7.05002e-06 -0 -1.52812e-07)
(6.57087e-06 -5.8135 -0 -6.43203e-06 -0 -1.38841e-07)
(6.00708e-06 -5.80934 -0 -5.88063e-06 -0 -1.2645e-07)
(5.51469e-06 -5.80569 -0 -5.3992e-06 -0 -1.15491e-07)
(5.07608e-06 -5.80243 -0 -4.97066e-06 -0 -1.05424e-07)
(4.69251e-06 -5.79956 -0 -4.59615e-06 -0 -9.63584e-08)
(4.34689e-06 -5.79697 -0 -4.25876e-06 -0 -8.81216e-08)
(4.03656e-06 -5.79469 -0 -3.95594e-06 -0 -8.06131e-08)
(3.74874e-06 -5.79262 -0 -3.67526e-06 -0 -7.34843e-08)
(3.4916e-06 -5.79079 -0 -3.42493e-06 -0 -6.66723e-08)
(3.25396e-06 -5.78912 -0 -3.19388e-06 -0 -6.00832e-08)
(3.01921e-06 -5.78766 -0 -2.96583e-06 -0 -5.33761e-08)
(2.77599e-06 -5.78632 -0 -2.72968e-06 -0 -4.63137e-08)
(2.53609e-06 -5.78517 -0 -2.49753e-06 -0 -3.85599e-08)
(2.26547e-06 -5.78414 -0 -2.2357e-06 -0 -2.97668e-08)
(1.98694e-06 -5.7833 -0 -1.96758e-06 -0 -1.93526e-08)
(1.64971e-06 -5.78256 -0 -1.64273e-06 -0 -6.97797e-09)
(1.26587e-06 -5.78204 -0 -1.27418e-06 -0 8.3141e-09)
(8.07105e-07 -5.78164 -0 -8.34042e-07 -0 2.69372e-08)
(2.52829e-07 -5.78149 -0 -3.03414e-07 -0 5.05855e-08)
(-4.48401e-07 -5.7815 -0 3.68968e-07 -0 7.94325e-08)
(-1.30511e-06 -5.78183 -0 1.19295e-06 -0 1.12155e-07)
(-2.3644e-06 -5.78239 -0 2.20795e-06 -0 1.56446e-07)
(-3.6093e-06 -5.78334 -0 3.39863e-06 -0 2.10671e-07)
(-5.10315e-06 -5.78461 -0 4.82853e-06 -0 2.74622e-07)
(-6.97345e-06 -5.78635 -0 6.62132e-06 -0 3.52127e-07)
(-9.19048e-06 -5.78856 -0 8.74589e-06 -0 4.44593e-07)
(-1.19071e-05 -5.79137 -0 1.13539e-05 -0 5.53115e-07)
(-1.50892e-05 -5.79481 -0 1.44065e-05 -0 6.82642e-07)
(-1.89302e-05 -5.79898 -0 1.81053e-05 -0 8.24903e-07)
(-2.3348e-05 -5.804 -0 2.23484e-05 -0 9.99598e-07)
(-2.87206e-05 -5.8099 -0 2.75472e-05 -0 1.17342e-06)
(-3.49004e-05 -5.81692 -0 3.34874e-05 -0 1.41301e-06)
(-4.23133e-05 -5.82503 -0 4.06844e-05 -0 1.62884e-06)
(-5.08807e-05 -5.83455 -0 4.8904e-05 -0 1.97671e-06)
(-6.1103e-05 -5.84547 -0 5.88467e-05 -0 2.25635e-06)
(-7.28607e-05 -5.85815 -0 7.00817e-05 -0 2.77895e-06)
(-8.68234e-05 -5.87262 -0 8.36794e-05 -0 3.14408e-06)
(-0.000100678 -5.8865 -0 9.77801e-05 -0 2.89775e-06)
(-0.00011359 -5.89831 -0 0.000110941 -0 2.64936e-06)
(-0.00012731 -5.91101 -0 0.000124623 -0 2.68707e-06)
(-0.000142904 -5.92441 -0 0.000140129 -0 2.7748e-06)
(-0.000159089 -5.9388 -0 0.000156057 -0 3.03137e-06)
(-0.00017666 -5.95383 -0 0.000173479 -0 3.18062e-06)
(-0.000196501 -5.96984 -0 0.00019284 -0 3.66137e-06)
(-0.000218147 -5.98669 -0 0.000213969 -0 4.17822e-06)
(-0.000241973 -6.00452 -0 0.000236418 -0 5.55502e-06)
(-0.000268158 -6.02339 -0 0.000261642 -0 6.5162e-06)
(-0.000297511 -6.04323 -0 0.000288679 -0 8.83194e-06)
(-0.000330178 -6.06443 -0 0.000320663 -0 9.51487e-06)
(-0.000368824 -6.08649 -0 0.00035571 -0 1.31134e-05)
(-0.000410427 -6.11068 -0 0.0003984 -0 1.2027e-05)
(-0.000465689 -6.13518 -0 0.000444723 -0 2.0966e-05)
(-0.000523471 -6.16401 -0 0.000508448 -0 1.50235e-05)
(-0.000613624 -6.19135 -0 0.0005717 -0 4.19238e-05)
(-0.000687679 -6.22884 -0 0.000667667 -0 2.00125e-05)
(-0.000882045 -6.25805 -0 0.000786308 -0 9.57363e-05)
(-0.000910645 -6.31544 -0 0.000892541 -0 1.81043e-05)
(-0.00141935 -6.33738 -0 0.00119312 -0 0.000226229)
(-0.00164981 -6.44509 -0 0.00169547 -0 -4.56626e-05)
(-0.00383355 -6.45783 -0 0.00326101 -0 0.000572536)
(0.00357513 -6.75573 -0 -0.0021922 -0 -0.00138294)
(-0.170678 -6.22157 8.06947e-21 0.169733 -0 0.000945216)
(0.00868907 -10.5848 -0 -0.00825888 -0 -0.000430186)
(0.00371809 -5.57498 -0 -0.00367578 -0 -4.2315e-05)
(0.00105701 -4.78112 -0 -0.00105489 -0 -2.11773e-06)
(0.000651945 -4.3471 -0 -0.000652482 -0 5.37267e-07)
(0.000426049 -4.0836 -0 -0.000427036 -0 9.87817e-07)
(0.000294105 -3.91466 -0 -0.000295074 -0 9.69475e-07)
(0.000216671 -3.79837 -0 -0.000217539 -0 8.68522e-07)
(0.000166208 -3.71391 -0 -0.000166934 -0 7.25697e-07)
(0.000130985 -3.65061 -0 -0.000131587 -0 6.01872e-07)
(0.00010574 -3.60194 -0 -0.000106247 -0 5.07233e-07)
(8.69852e-05 -3.56368 -0 -8.74144e-05 -0 4.29193e-07)
(7.26192e-05 -3.53313 -0 -7.29848e-05 -0 3.65628e-07)
(6.13063e-05 -3.50838 -0 -6.16201e-05 -0 3.13764e-07)
(5.23477e-05 -3.48818 -0 -5.26189e-05 -0 2.71234e-07)
(4.50403e-05 -3.47142 -0 -4.52764e-05 -0 2.36067e-07)
(3.90225e-05 -3.45756 -0 -3.92291e-05 -0 2.0661e-07)
(3.40533e-05 -3.44587 -0 -3.42349e-05 -0 1.81659e-07)
(2.98152e-05 -3.43608 -0 -2.99759e-05 -0 1.60648e-07)
(2.63409e-05 -3.42776 -0 -2.64831e-05 -0 1.42186e-07)
(2.33513e-05 -3.42066 -0 -2.34786e-05 -0 1.2724e-07)
(2.0738e-05 -3.4146 -0 -2.08519e-05 -0 1.13906e-07)
(1.85694e-05 -3.4094 -0 -1.86716e-05 -0 1.02182e-07)
(1.66908e-05 -3.40488 -0 -1.67831e-05 -0 9.23303e-08)
(1.50104e-05 -3.40098 -0 -1.50943e-05 -0 8.38909e-08)
(1.35892e-05 -3.39759 -0 -1.36655e-05 -0 7.62629e-08)
(1.23241e-05 -3.39462 -0 -1.23937e-05 -0 6.96184e-08)
(1.12413e-05 -3.39203 -0 -1.13051e-05 -0 6.37242e-08)
(1.02768e-05 -3.38974 -0 -1.03356e-05 -0 5.87137e-08)
(9.43332e-06 -3.38773 -0 -9.48762e-06 -0 5.42972e-08)
(8.68147e-06 -3.38593 -0 -8.73167e-06 -0 5.02075e-08)
(8.02236e-06 -3.38435 -0 -8.0688e-06 -0 4.64368e-08)
(7.42815e-06 -3.38293 -0 -7.47124e-06 -0 4.30918e-08)
(6.8939e-06 -3.38167 -0 -6.93374e-06 -0 3.98446e-08)
(6.39808e-06 -3.38052 -0 -6.4349e-06 -0 3.68205e-08)
(5.95126e-06 -3.37951 -0 -5.9849e-06 -0 3.36441e-08)
(5.53659e-06 -3.37859 -0 -5.56705e-06 -0 3.04606e-08)
(5.1257e-06 -3.37777 -0 -5.15252e-06 -0 2.68212e-08)
(4.69793e-06 -3.37703 -0 -4.72063e-06 -0 2.27067e-08)
(4.27024e-06 -3.37638 -0 -4.28796e-06 -0 1.77243e-08)
(3.78636e-06 -3.3758 -0 -3.79807e-06 -0 1.17086e-08)
(3.27796e-06 -3.37531 -0 -3.2819e-06 -0 3.94272e-09)
(2.66385e-06 -3.37487 -0 -2.65815e-06 -0 -5.69919e-09)
(1.95446e-06 -3.37455 -0 -1.9362e-06 -0 -1.82568e-08)
(1.10426e-06 -3.37428 -0 -1.07025e-06 -0 -3.40166e-08)
(6.60605e-08 -3.37413 -0 -1.12166e-08 -0 -5.48439e-08)
(-1.23803e-06 -3.37406 -0 1.31793e-06 -0 -7.99019e-08)
(-2.81328e-06 -3.37414 -0 2.92267e-06 -0 -1.09389e-07)
(-4.80056e-06 -3.37432 -0 4.95192e-06 -0 -1.51356e-07)
(-7.15203e-06 -3.37469 -0 7.3554e-06 -0 -2.03376e-07)
(-9.95532e-06 -3.3752 -0 1.02181e-05 -0 -2.62754e-07)
(-1.34619e-05 -3.37593 -0 1.38015e-05 -0 -3.39544e-07)
(-1.76222e-05 -3.37687 -0 1.80547e-05 -0 -4.32572e-07)
(-2.27023e-05 -3.37808 -0 2.32508e-05 -0 -5.48505e-07)
(-2.86771e-05 -3.37957 -0 2.93655e-05 -0 -6.88424e-07)
(-3.58627e-05 -3.3814 -0 3.67296e-05 -0 -8.66826e-07)
(-4.41848e-05 -3.3836 -0 4.52563e-05 -0 -1.07147e-06)
(-5.42203e-05 -3.3862 -0 5.55591e-05 -0 -1.33875e-06)
(-6.58611e-05 -3.38929 -0 6.74852e-05 -0 -1.62405e-06)
(-7.96985e-05 -3.39286 -0 8.17138e-05 -0 -2.01535e-06)
(-9.58347e-05 -3.39707 -0 9.82336e-05 -0 -2.39885e-06)
(-0.00011488 -3.40186 -0 0.000117841 -0 -2.96016e-06)
(-0.000137035 -3.40745 -0 0.000140509 -0 -3.47453e-06)
(-0.000163072 -3.41378 -0 0.000167468 -0 -4.39658e-06)
(-0.000188512 -3.41986 -0 0.000194139 -0 -5.6264e-06)
(-0.000212278 -3.42503 -0 0.000218927 -0 -6.64938e-06)
(-0.000237501 -3.43062 -0 0.000244901 -0 -7.39975e-06)
(-0.000266058 -3.43643 -0 0.000274554 -0 -8.49582e-06)
(-0.000296207 -3.44267 -0 0.000305681 -0 -9.47345e-06)
(-0.000328916 -3.44913 -0 0.000339731 -0 -1.08154e-05)
(-0.000365696 -3.456 -0 0.000377432 -0 -1.17358e-05)
(-0.00040568 -3.46316 -0 0.000418738 -0 -1.30578e-05)
(-0.000450543 -3.47071 -0 0.000464227 -0 -1.36836e-05)
(-0.000498591 -3.47859 -0 0.000513566 -0 -1.49746e-05)
(-0.000555188 -3.48687 -0 0.000570692 -0 -1.55041e-05)
(-0.000613904 -3.49553 -0 0.000631044 -0 -1.71402e-05)
(-0.000690661 -3.50464 -0 0.000708101 -0 -1.74397e-05)
(-0.000762031 -3.51425 -0 0.000782202 -0 -2.01716e-05)
(-0.000876999 -3.52421 -0 0.000894319 -0 -1.73199e-05)
(-0.000965185 -3.53516 -0 0.000988348 -0 -2.31635e-05)
(-0.00116107 -3.54608 -0 0.00116911 -0 -8.03914e-06)
(-0.00125208 -3.55943 -0 0.0012795 -0 -2.74241e-05)
(-0.00166029 -3.57059 -0 0.00163344 -0 2.68431e-05)
(-0.00164979 -3.5897 -0 0.00170408 -0 -5.42899e-05)
(-0.00263136 -3.59523 -0 0.00249658 -0 0.000134784)
(-0.00274738 -3.6314 -0 0.00291082 -0 -0.000163436)
(-0.00645733 -3.6255 -0 0.00589759 -0 0.000559735)
(-0.000505278 -3.70576 -0 0.00220602 -0 -0.00170074)
(-0.0867388 -3.71135 -7.91493e-21 0.0792817 -0 0.0074571)
(0.00879905 -11.5792 -0 -0.00941436 -0 0.000615308)
(0.00548771 -6.47302 -0 -0.00554216 -0 5.44505e-05)
(0.00189236 -5.60089 -0 -0.00190994 -0 1.7575e-05)
(0.00126449 -5.10429 -0 -0.00127622 -0 1.17333e-05)
(0.000854842 -4.7954 -0 -0.000862872 -0 8.03047e-06)
(0.000599568 -4.59439 -0 -0.000605301 -0 5.73267e-06)
(0.000446803 -4.45497 -0 -0.000451073 -0 4.26955e-06)
(0.000345119 -4.35319 -0 -0.0003484 -0 3.28006e-06)
(0.000273027 -4.2766 -0 -0.00027562 -0 2.59359e-06)
(0.00022102 -4.21754 -0 -0.000223121 -0 2.10104e-06)
(0.0001822 -4.17102 -0 -0.00018393 -0 1.72972e-06)
(0.000152333 -4.13382 -0 -0.000153778 -0 1.44553e-06)
(0.000128752 -4.10365 -0 -0.000129973 -0 1.22113e-06)
(0.000110032 -4.079 -0 -0.000111076 -0 1.04335e-06)
(9.47516e-05 -4.05853 -0 -9.56497e-05 -0 8.98166e-07)
(8.21496e-05 -4.04159 -0 -8.29282e-05 -0 7.78601e-07)
(7.17298e-05 -4.0273 -0 -7.24097e-05 -0 6.7986e-07)
(6.28442e-05 -4.01532 -0 -6.344e-05 -0 5.95782e-07)
(5.55301e-05 -4.00514 -0 -5.60565e-05 -0 5.26364e-07)
(4.92515e-05 -3.99645 -0 -4.97188e-05 -0 4.6727e-07)
(4.37659e-05 -3.98902 -0 -4.41815e-05 -0 4.15602e-07)
(3.91861e-05 -3.98266 -0 -3.95584e-05 -0 3.72305e-07)
(3.52298e-05 -3.97712 -0 -3.55652e-05 -0 3.35412e-07)
(3.16977e-05 -3.97235 -0 -3.20002e-05 -0 3.02492e-07)
(2.86942e-05 -3.96819 -0 -2.89686e-05 -0 2.74383e-07)
(2.60284e-05 -3.96455 -0 -2.62782e-05 -0 2.4984e-07)
(2.37368e-05 -3.96138 -0 -2.39656e-05 -0 2.28729e-07)
(2.17e-05 -3.95856 -0 -2.19102e-05 -0 2.1014e-07)
(1.99145e-05 -3.9561 -0 -2.01083e-05 -0 1.93793e-07)
(1.83227e-05 -3.9539 -0 -1.8502e-05 -0 1.79356e-07)
(1.69231e-05 -3.95196 -0 -1.70899e-05 -0 1.66743e-07)
(1.56598e-05 -3.95021 -0 -1.58152e-05 -0 1.55485e-07)
(1.45225e-05 -3.94866 -0 -1.46677e-05 -0 1.45174e-07)
(1.34659e-05 -3.94725 -0 -1.36018e-05 -0 1.35884e-07)
(1.25017e-05 -3.94602 -0 -1.26288e-05 -0 1.2706e-07)
(1.16015e-05 -3.94488 -0 -1.17203e-05 -0 1.18761e-07)
(1.07072e-05 -3.94387 -0 -1.08178e-05 -0 1.10594e-07)
(9.76958e-06 -3.94295 -0 -9.87146e-06 -0 1.01877e-07)
(8.81496e-06 -3.94216 -0 -8.90752e-06 -0 9.25568e-08)
(7.73051e-06 -3.94143 -0 -7.81236e-06 -0 8.1846e-08)
(6.56153e-06 -3.94082 -0 -6.63125e-06 -0 6.9724e-08)
(5.15371e-06 -3.94027 -0 -5.20893e-06 -0 5.52219e-08)
(3.49855e-06 -3.93985 -0 -3.5361e-06 -0 3.75534e-08)
(1.50785e-06 -3.93949 -0 -1.52394e-06 -0 1.60833e-08)
(-9.50183e-07 -3.93928 -0 9.61082e-07 -0 -1.08993e-08)
(-4.01881e-06 -3.93915 -0 4.06366e-06 -0 -4.48509e-08)
(-7.68269e-06 -3.93919 -0 7.76755e-06 -0 -8.48605e-08)
(-1.23934e-05 -3.93935 -0 1.25315e-05 -0 -1.38129e-07)
(-1.80156e-05 -3.93972 -0 1.82192e-05 -0 -2.03557e-07)
(-2.46913e-05 -3.94023 -0 2.4971e-05 -0 -2.79656e-07)
(-3.30276e-05 -3.941 -0 3.34056e-05 -0 -3.78002e-07)
(-4.2933e-05 -3.942 -0 4.3428e-05 -0 -4.95085e-07)
(-5.50022e-05 -3.9433 -0 5.56481e-05 -0 -6.45914e-07)
(-6.92613e-05 -3.94491 -0 7.00833e-05 -0 -8.21961e-07)
(-8.63619e-05 -3.94689 -0 8.74243e-05 -0 -1.06237e-06)
(-0.000106297 -3.94929 -0 0.000107614 -0 -1.31757e-06)
(-0.000130162 -3.95211 -0 0.000131857 -0 -1.69504e-06)
(-0.000158011 -3.95549 -0 0.000160059 -0 -2.04781e-06)
(-0.000190935 -3.95937 -0 0.000193543 -0 -2.60795e-06)
(-0.000229529 -3.96396 -0 0.00023259 -0 -3.0613e-06)
(-0.000274825 -3.96916 -0 0.000278676 -0 -3.85064e-06)
(-0.000327817 -3.97524 -0 0.000332219 -0 -4.40221e-06)
(-0.000390108 -3.98211 -0 0.00039563 -0 -5.52208e-06)
(-0.000451195 -3.98872 -0 0.000458515 -0 -7.31932e-06)
(-0.00050701 -3.99433 -0 0.000516347 -0 -9.33726e-06)
(-0.00056609 -4.0004 -0 0.000576574 -0 -1.04836e-05)
(-0.000633602 -4.00662 -0 0.00064577 -0 -1.21684e-05)
(-0.000705715 -4.01333 -0 0.000719006 -0 -1.32903e-05)
(-0.000783361 -4.0202 -0 0.000798591 -0 -1.52305e-05)
(-0.000870577 -4.02751 -0 0.000886527 -0 -1.59493e-05)
(-0.000964436 -4.03505 -0 0.000982043 -0 -1.76067e-05)
(-0.00107184 -4.04299 -0 0.00108907 -0 -1.72227e-05)
(-0.00118364 -4.05119 -0 0.00120203 -0 -1.83916e-05)
(-0.00132085 -4.05983 -0 0.00133814 -0 -1.72883e-05)
(-0.00145363 -4.06871 -0 0.00147246 -0 -1.88259e-05)
(-0.00164205 -4.07811 -0 0.00165879 -0 -1.67446e-05)
(-0.00179464 -4.08772 -0 0.0018151 -0 -2.04627e-05)
(-0.00207981 -4.09781 -0 0.0020913 -0 -1.14951e-05)
(-0.00224572 -4.10825 -0 0.00226708 -0 -2.13599e-05)
(-0.00273286 -4.11901 -0 0.00272019 -0 1.26662e-05)
(-0.00286806 -4.13074 -0 0.00288914 -0 -2.10814e-05)
(-0.00383413 -4.14137 -0 0.0037471 -0 8.7029e-05)
(-0.00377748 -4.1567 -0 0.00381722 -0 -3.97382e-05)
(-0.00595409 -4.15985 -0 0.00567716 -0 0.00027693)
(-0.0057768 -4.18836 -0 0.00589314 -0 -0.000116347)
(-0.0134314 -4.17561 -0 0.0126869 -0 0.000744486)
(-0.0075288 -4.21747 -0 0.00857288 -0 -0.00104409)
(-0.0829206 -4.24989 -0 0.0853474 -0 -0.00242681)
(-0.00119365 -11.769 -0 0.00114166 -0 5.19926e-05)
(0.00701913 -6.60825 -0 -0.00697472 -0 -4.44037e-05)
(0.00292422 -5.73862 -0 -0.00291567 -0 -8.54874e-06)
(0.00219612 -5.25491 -0 -0.00219361 -0 -2.50877e-06)
(0.00155727 -4.95442 -0 -0.00155678 -0 -4.84037e-07)
(0.00111797 -4.75815 -0 -0.00111817 -0 1.92453e-07)
(0.000846199 -4.62184 -0 -0.000846489 -0 2.90391e-07)
(0.000660214 -4.52218 -0 -0.000660492 -0 2.78075e-07)
(0.00052562 -4.44705 -0 -0.000525887 -0 2.67167e-07)
(0.000427457 -4.38905 -0 -0.000427704 -0 2.47671e-07)
(0.000353619 -4.34334 -0 -0.000353839 -0 2.19304e-07)
(0.000296435 -4.30676 -0 -0.00029663 -0 1.95209e-07)
(0.000251082 -4.27707 -0 -0.000251255 -0 1.72812e-07)
(0.000214928 -4.25281 -0 -0.000215082 -0 1.53566e-07)
(0.000185354 -4.23265 -0 -0.00018549 -0 1.36069e-07)
(0.000160902 -4.21596 -0 -0.000161023 -0 1.21097e-07)
(0.000140639 -4.20188 -0 -0.000140747 -0 1.07998e-07)
(0.000123346 -4.19007 -0 -0.000123442 -0 9.6638e-08)
(0.000109048 -4.18004 -0 -0.000109135 -0 8.67047e-08)
(9.67927e-05 -4.17147 -0 -9.68713e-05 -0 7.85813e-08)
(8.60824e-05 -4.16415 -0 -8.61535e-05 -0 7.10655e-08)
(7.70918e-05 -4.15787 -0 -7.71567e-05 -0 6.48918e-08)
(6.93361e-05 -4.15241 -0 -6.93959e-05 -0 5.97707e-08)
(6.2424e-05 -4.1477 -0 -6.24792e-05 -0 5.5199e-08)
(5.6517e-05 -4.1436 -0 -5.65685e-05 -0 5.14524e-08)
(5.12826e-05 -4.14001 -0 -5.13309e-05 -0 4.82469e-08)
(4.67673e-05 -4.13688 -0 -4.68129e-05 -0 4.56172e-08)
(4.27601e-05 -4.1341 -0 -4.28036e-05 -0 4.3448e-08)
(3.92409e-05 -4.13167 -0 -3.92826e-05 -0 4.16767e-08)
(3.61002e-05 -4.12949 -0 -3.61404e-05 -0 4.01908e-08)
(3.33322e-05 -4.12758 -0 -3.33711e-05 -0 3.89082e-08)
(3.08316e-05 -4.12585 -0 -3.08697e-05 -0 3.80482e-08)
(2.85786e-05 -4.12432 -0 -2.86155e-05 -0 3.69507e-08)
(2.64847e-05 -4.12293 -0 -2.65211e-05 -0 3.64074e-08)
(2.45579e-05 -4.12171 -0 -2.45937e-05 -0 3.57673e-08)
(2.2752e-05 -4.12058 -0 -2.27873e-05 -0 3.53036e-08)
(2.09561e-05 -4.11959 -0 -2.09909e-05 -0 3.48205e-08)
(1.90694e-05 -4.11867 -0 -1.91038e-05 -0 3.43641e-08)
(1.71271e-05 -4.11788 -0 -1.71609e-05 -0 3.3804e-08)
(1.49202e-05 -4.11715 -0 -1.49535e-05 -0 3.32801e-08)
(1.25039e-05 -4.11655 -0 -1.25365e-05 -0 3.26224e-08)
(9.60371e-06 -4.11599 -0 -9.63561e-06 -0 3.1896e-08)
(6.16105e-06 -4.11556 -0 -6.19194e-06 -0 3.08922e-08)
(2.0134e-06 -4.11518 -0 -2.04296e-06 -0 2.95645e-08)
(-3.13458e-06 -4.11494 -0 3.1064e-06 -0 2.8178e-08)
(-9.54696e-06 -4.11477 -0 9.52201e-06 -0 2.49466e-08)
(-1.71473e-05 -4.11476 -0 1.7126e-05 -0 2.1315e-08)
(-2.69807e-05 -4.11486 -0 2.69612e-05 -0 1.95402e-08)
(-3.88006e-05 -4.11515 -0 3.87885e-05 -0 1.20425e-08)
(-5.28474e-05 -4.11557 -0 5.28465e-05 -0 8.59268e-10)
(-7.03203e-05 -4.11622 -0 7.03328e-05 -0 -1.24433e-08)
(-9.10867e-05 -4.11707 -0 9.11139e-05 -0 -2.71844e-08)
(-0.000116365 -4.11819 -0 0.000116426 -0 -6.02969e-08)
(-0.000146306 -4.11959 -0 0.000146402 -0 -9.63202e-08)
(-0.00018212 -4.12132 -0 0.0001823 -0 -1.80715e-07)
(-0.000224054 -4.12342 -0 0.000224299 -0 -2.44404e-07)
(-0.000273953 -4.12589 -0 0.000274374 -0 -4.20949e-07)
(-0.000332443 -4.12886 -0 0.000332947 -0 -5.03726e-07)
(-0.000401218 -4.13226 -0 0.000402017 -0 -7.99131e-07)
(-0.000482186 -4.13629 -0 0.000483044 -0 -8.57903e-07)
(-0.000576698 -4.14084 -0 0.000577989 -0 -1.29157e-06)
(-0.000687821 -4.14617 -0 0.000689097 -0 -1.27552e-06)
(-0.000818168 -4.15217 -0 0.000820161 -0 -1.99254e-06)
(-0.000946072 -4.15794 -0 0.000949798 -0 -3.72615e-06)
(-0.00106093 -4.16283 -0 0.00106651 -0 -5.58562e-06)
(-0.00118231 -4.16813 -0 0.00118861 -0 -6.29567e-06)
(-0.00132095 -4.17351 -0 0.00132843 -0 -7.48565e-06)
(-0.00147121 -4.17932 -0 0.00147921 -0 -8.00256e-06)
(-0.00163175 -4.18523 -0 0.00164123 -0 -9.48352e-06)
(-0.0018129 -4.1915 -0 0.00182215 -0 -9.24506e-06)
(-0.00200539 -4.19792 -0 0.00201546 -0 -1.00702e-05)
(-0.00222983 -4.20468 -0 0.00223789 -0 -8.05349e-06)
(-0.00245785 -4.21156 -0 0.00246592 -0 -8.07532e-06)
(-0.00274608 -4.21883 -0 0.00275081 -0 -4.72522e-06)
(-0.0030116 -4.22617 -0 0.00301689 -0 -5.29158e-06)
(-0.00340817 -4.23401 -0 0.00340773 -0 4.35445e-07)
(-0.00370108 -4.24175 -0 0.00370441 -0 -3.32998e-06)
(-0.00430222 -4.25007 -0 0.00428782 -0 1.44039e-05)
(-0.00459135 -4.25813 -0 0.00459036 -0 9.93425e-07)
(-0.00561566 -4.26689 -0 0.0055565 -0 5.91631e-05)
(-0.00580074 -4.2752 -0 0.00579284 -0 7.89741e-06)
(-0.00776043 -4.28383 -0 0.00757888 -0 0.00018155)
(-0.00760209 -4.29345 -0 0.00761553 -0 -1.34413e-05)
(-0.0118556 -4.29531 -0 0.0113574 -0 0.000498187)
(-0.0111112 -4.31324 -0 0.0112927 -0 -0.000181577)
(-0.0245562 -4.29993 -0 0.0229782 -0 0.00157806)
(-0.0184219 -4.3164 -0 0.0219206 -0 -0.00349875)
(-0.088925 -4.24653 -0 0.0833374 -0 0.00558761)
(-0.0267414 -11.6786 -0 0.0267026 -0 3.87692e-05)
(0.00757227 -6.56301 -0 -0.00752478 -0 -4.74863e-05)
(0.00377129 -5.67301 -0 -0.00375525 -0 -1.60377e-05)
(0.00330393 -5.19434 -0 -0.00329306 -0 -1.0873e-05)
(0.00247838 -4.90073 -0 -0.00247169 -0 -6.68765e-06)
(0.00182666 -4.70903 -0 -0.00182228 -0 -4.38514e-06)
(0.00140541 -4.57609 -0 -0.0014021 -0 -3.31752e-06)
(0.00110812 -4.47894 -0 -0.00110548 -0 -2.64692e-06)
(0.000888195 -4.40564 -0 -0.00088607 -0 -2.12419e-06)
(0.000725773 -4.34903 -0 -0.000724038 -0 -1.7344e-06)
(0.000602574 -4.3044 -0 -0.000601127 -0 -1.44723e-06)
(0.000506517 -4.26868 -0 -0.000505298 -0 -1.21938e-06)
(0.000429961 -4.23968 -0 -0.000428924 -0 -1.0374e-06)
(0.000368677 -4.21598 -0 -0.000367786 -0 -8.90686e-07)
(0.000318423 -4.19628 -0 -0.000317653 -0 -7.70525e-07)
(0.000276766 -4.17998 -0 -0.000276096 -0 -6.69973e-07)
(0.000242167 -4.16621 -0 -0.00024158 -0 -5.86613e-07)
(0.00021261 -4.15468 -0 -0.000212096 -0 -5.14516e-07)
(0.000188081 -4.14487 -0 -0.000187626 -0 -4.55341e-07)
(0.000167068 -4.1365 -0 -0.000166665 -0 -4.03455e-07)
(0.000148701 -4.12934 -0 -0.000148343 -0 -3.58165e-07)
(0.000133214 -4.12321 -0 -0.000132894 -0 -3.19968e-07)
(0.000119862 -4.11787 -0 -0.000119576 -0 -2.86479e-07)
(0.000107979 -4.11326 -0 -0.000107723 -0 -2.56289e-07)
(9.77842e-05 -4.10925 -0 -9.75538e-05 -0 -2.30361e-07)
(8.87591e-05 -4.10575 -0 -8.85522e-05 -0 -2.0694e-07)
(8.09521e-05 -4.10268 -0 -8.07655e-05 -0 -1.86607e-07)
(7.40302e-05 -4.09997 -0 -7.38621e-05 -0 -1.68181e-07)
(6.79432e-05 -4.09759 -0 -6.77914e-05 -0 -1.51831e-07)
(6.25068e-05 -4.09546 -0 -6.23697e-05 -0 -1.37089e-07)
(5.77066e-05 -4.09359 -0 -5.75826e-05 -0 -1.24035e-07)
(5.33686e-05 -4.09189 -0 -5.32567e-05 -0 -1.11897e-07)
(4.94581e-05 -4.0904 -0 -4.93568e-05 -0 -1.01361e-07)
(4.58257e-05 -4.08903 -0 -4.57347e-05 -0 -9.09629e-08)
(4.24662e-05 -4.08783 -0 -4.23844e-05 -0 -8.17759e-08)
(3.9311e-05 -4.08673 -0 -3.92379e-05 -0 -7.31267e-08)
(3.61769e-05 -4.08575 -0 -3.61121e-05 -0 -6.47809e-08)
(3.28868e-05 -4.08484 -0 -3.28307e-05 -0 -5.60829e-08)
(2.94804e-05 -4.08406 -0 -2.94328e-05 -0 -4.76044e-08)
(2.56191e-05 -4.08333 -0 -2.5581e-05 -0 -3.81637e-08)
(2.13558e-05 -4.08272 -0 -2.13273e-05 -0 -2.84736e-08)
(1.62588e-05 -4.08215 -0 -1.62418e-05 -0 -1.70268e-08)
(1.01812e-05 -4.0817 -0 -1.0177e-05 -0 -4.127e-09)
(2.85622e-06 -4.08129 -0 -2.8671e-06 -0 1.08755e-08)
(-6.24223e-06 -4.08101 -0 6.21249e-06 -0 2.97404e-08)
(-1.75807e-05 -4.08078 -0 1.75303e-05 -0 5.03323e-08)
(-3.09835e-05 -4.0807 -0 3.09112e-05 -0 7.23058e-08)
(-4.82488e-05 -4.0807 -0 4.81376e-05 -0 1.11259e-07)
(-6.91325e-05 -4.08088 -0 6.89847e-05 -0 1.4781e-07)
(-9.40961e-05 -4.08114 -0 9.39162e-05 -0 1.79811e-07)
(-0.00012495 -4.08161 -0 0.000124722 -0 2.27311e-07)
(-0.000161601 -4.08223 -0 0.000161316 -0 2.8485e-07)
(-0.000206223 -4.08308 -0 0.000205892 -0 3.30509e-07)
(-0.000259115 -4.08415 -0 0.000258727 -0 3.87979e-07)
(-0.000322284 -4.08549 -0 0.000321888 -0 3.96022e-07)
(-0.000396426 -4.08713 -0 0.000395974 -0 4.52045e-07)
(-0.000484334 -4.08905 -0 0.000483961 -0 3.72723e-07)
(-0.000587574 -4.09139 -0 0.000587118 -0 4.55637e-07)
(-0.000708582 -4.09405 -0 0.000708316 -0 2.65423e-07)
(-0.000851242 -4.09723 -0 0.000850786 -0 4.56431e-07)
(-0.00101723 -4.10079 -0 0.00101708 -0 1.49682e-07)
(-0.00121274 -4.10498 -0 0.00121219 -0 5.52123e-07)
(-0.00144126 -4.10966 -0 0.00144133 -0 -7.0433e-08)
(-0.00166583 -4.11417 -0 0.00166812 -0 -2.29126e-06)
(-0.00186693 -4.11797 -0 0.00187152 -0 -4.5874e-06)
(-0.00207778 -4.12212 -0 0.0020831 -0 -5.32298e-06)
(-0.00231746 -4.12627 -0 0.0023241 -0 -6.64166e-06)
(-0.00257918 -4.13079 -0 0.00258619 -0 -7.00534e-06)
(-0.00285793 -4.13528 -0 0.00286657 -0 -8.64305e-06)
(-0.00317255 -4.14009 -0 0.00318044 -0 -7.89311e-06)
(-0.00350394 -4.14491 -0 0.00351246 -0 -8.52164e-06)
(-0.00389328 -4.15 -0 0.00389845 -0 -5.16857e-06)
(-0.00428288 -4.15506 -0 0.00428753 -0 -4.64622e-06)
(-0.00478246 -4.16047 -0 0.00478178 -0 6.85637e-07)
(-0.00522944 -4.16568 -0 0.00522914 -0 3.00559e-07)
(-0.00591462 -4.17148 -0 0.00590536 -0 9.25447e-06)
(-0.0063957 -4.1767 -0 0.00639178 -0 3.91822e-06)
(-0.00742768 -4.18283 -0 0.00739699 -0 3.06905e-05)
(-0.00787707 -4.18779 -0 0.00786666 -0 1.04042e-05)
(-0.00961464 -4.19428 -0 0.00951877 -0 9.58709e-05)