/*--------------------------------*- C++ -*----------------------------------*\
| =========                 |                                                 |
| \\      /  F ield         | OpenFOAM: The Open Source CFD Toolbox           |
|  \\    /   O peration     | Version:  2306                                  |
|   \\  /    A nd           | Website:  www.openfoam.com                      |
|    \\/     M anipulation  |                                                 |
\*---------------------------------------------------------------------------*/
FoamFile
{
    version     2.0;
    format      ascii;
    arch        "LSB;label=32;scalar=64";
    class       volVectorField;
    location    "1700";
    object      U;
}
// * * * * * * * * * * * * * * * * * * * * * * * * * * * * * * * * * * * * * //

dimensions      [0 1 -1 0 0 0 0];

internalField   nonuniform List<vector> 
20540
(
(29.9073 0.00138333 0)
(18.9804 0.00151635 0)
(29.9378 0.00471713 0)
(18.9985 0.00460586 0)
(29.9912 0.0092087 0)
(19.0281 0.00683932 0)
(30.0667 0.0141192 0)
(19.0689 0.00777434 0)
(30.1673 0.0200213 0)
(19.1231 0.00822614 0)
(30.2975 0.0272204 0)
(19.1938 0.00839468 0)
(30.4629 0.0359245 0)
(19.2848 0.00822099 0)
(30.6699 0.0463945 0)
(19.4005 0.0076316 0)
(30.9254 0.0589686 0)
(19.5463 0.00657475 0)
(31.2372 0.0740484 0)
(19.7287 0.00500112 0)
(31.6139 0.0920962 0)
(19.9554 0.00286222 0)
(32.0646 0.11364 0)
(20.236 0.000124693 0)
(32.5992 0.139273 0)
(20.5819 -0.0032082 0)
(33.2282 0.169653 0)
(21.0072 -0.00706716 0)
(33.9625 0.205481 0)
(21.5288 -0.0112747 0)
(34.8134 0.247475 0)
(22.1674 -0.0154847 0)
(35.7922 0.296309 0)
(22.948 -0.0190981 0)
(36.9102 0.352521 0)
(23.9005 -0.0211485 0)
(38.1775 0.416378 0)
(25.061 -0.0201549 0)
(39.6009 0.487674 0)
(26.4727 -0.0139451 0)
(41.1769 0.565262 0)
(28.1881 0.000542223 0)
(42.8825 0.64663 0)
(30.2679 0.0274314 0)
(44.6578 0.727877 0)
(32.7753 0.0717933 0)
(46.3459 0.802807 0)
(35.7583 0.138466 0)
(47.5827 0.856642 0)
(39.2119 0.228615 0)
(47.996 0.86901 0)
(43.0202 0.336443 0)
(47.8293 0.841687 0)
(46.8623 0.449833 0)
(47.1497 0.749406 0)
(49.7345 0.508801 0)
(46.3431 0.596864 0)
(50.4811 0.453217 0)
(45.791 0.418001 0)
(50.4038 0.351324 0)
(45.5407 0.242897 0)
(50.2185 0.220555 0)
(45.4491 0.0754186 0)
(50.1067 0.0823779 0)
(45.4486 -0.0928665 0)
(50.103 -0.0537098 0)
(45.5375 -0.260429 0)
(50.2066 -0.191546 0)
(45.774 -0.432421 0)
(50.3812 -0.321897 0)
(46.2697 -0.604223 0)
(50.4616 -0.42186 0)
(46.992 -0.752537 0)
(49.8592 -0.48276 0)
(47.6384 -0.8478 0)
(47.2528 -0.440903 0)
(47.8261 -0.879348 0)
(43.5625 -0.336321 0)
(47.4924 -0.872744 0)
(39.8403 -0.233066 0)
(46.3594 -0.825803 0)
(36.4181 -0.144089 0)
(44.7339 -0.755282 0)
(33.4229 -0.0761296 0)
(42.9866 -0.67678 0)
(30.876 -0.0295423 0)
(41.2877 -0.596785 0)
(28.7412 -0.000387722 0)
(39.7037 -0.519373 0)
(26.9636 0.0160069 0)
(38.2613 -0.447306 0)
(25.487 0.0236294 0)
(36.9664 -0.381995 0)
(24.2625 0.0255344 0)
(35.8142 -0.323882 0)
(23.2489 0.0239512 0)
(34.7964 -0.272889 0)
(22.4114 0.0204465 0)
(33.9034 -0.22862 0)
(21.7207 0.0160767 0)
(33.1253 -0.190509 0)
(21.152 0.0115234 0)
(32.452 -0.157913 0)
(20.6846 0.00720172 0)
(31.8737 -0.130179 0)
(20.3012 0.00334333 0)
(31.3808 -0.10668 0)
(19.9874 5.76368e-05 0)
(30.9638 -0.0868379 0)
(19.7315 -0.00262404 0)
(30.6142 -0.0701306 0)
(19.5234 -0.00471752 0)
(30.3236 -0.0560956 0)
(19.3551 -0.00626387 0)
(30.0846 -0.0443267 0)
(19.2198 -0.00731299 0)
(29.8902 -0.0344702 0)
(19.1118 -0.0079126 0)
(29.7342 -0.0262272 0)
(19.0265 -0.00811084 0)
(29.6109 -0.0193671 0)
(18.9598 -0.00797402 0)
(29.5153 -0.0137066 0)
(18.9084 -0.00755153 0)
(29.4432 -0.00896919 0)
(18.8695 -0.00664697 0)
(29.392 -0.00461852 0)
(18.8412 -0.00448845 0)
(29.3625 -0.0013586 0)
(18.8237 -0.00148267 0)
(9.36075 0.00238197 0)
(5.38053 0.000483193 0)
(4.67636 9.85305e-05 0)
(4.2745 5.07383e-05 0)
(4.02693 2.99123e-05 0)
(3.86706 1.94921e-05 0)
(3.756 1.37081e-05 0)
(3.67488 1.01805e-05 0)
(3.61392 7.85781e-06 0)
(3.56691 6.24255e-06 0)
(3.52988 5.06958e-06 0)
(3.50027 4.1912e-06 0)
(3.47624 3.50997e-06 0)
(3.45662 2.97857e-06 0)
(3.44032 2.54809e-06 0)
(3.42682 2.19705e-06 0)
(3.41545 1.90985e-06 0)
(3.4059 1.66533e-06 0)
(3.3978 1.46868e-06 0)
(3.39088 1.29789e-06 0)
(3.38496 1.14938e-06 0)
(3.37989 1.02851e-06 0)
(3.37549 9.23498e-07 0)
(3.37168 8.28721e-07 0)
(3.36837 7.49993e-07 0)
(3.36548 6.80247e-07 0)
(3.36295 6.21091e-07 0)
(3.36071 5.68111e-07 0)
(3.35875 5.21795e-07 0)
(3.357 4.8122e-07 0)
(3.35546 4.46231e-07 0)
(3.35407 4.14624e-07 0)
(3.35284 3.86582e-07 0)
(3.35173 3.60792e-07 0)
(3.35075 3.38149e-07 0)
(3.34985 3.17534e-07 0)
(3.34906 2.9797e-07 0)
(3.34834 2.77734e-07 0)
(3.34773 2.58773e-07 0)
(3.34717 2.37439e-07 0)
(3.34672 2.17376e-07 0)
(3.34632 1.93167e-07 0)
(3.34604 1.67252e-07 0)
(3.34583 1.3703e-07 0)
(3.34575 1.02563e-07 0)
(3.34576 5.68027e-08 0)
(3.34593 -2.05586e-09 0)
(3.34623 -6.82695e-08 0)
(3.34675 -1.42641e-07 0)
(3.34743 -2.35407e-07 0)
(3.34837 -3.53028e-07 0)
(3.34956 -4.90982e-07 0)
(3.35106 -6.65744e-07 0)
(3.35292 -8.64212e-07 0)
(3.35516 -1.11963e-06 0)
(3.35787 -1.39411e-06 0)
(3.36104 -1.77523e-06 0)
(3.36482 -2.16072e-06 0)
(3.36918 -2.7051e-06 0)
(3.3743 -3.2238e-06 0)
(3.38017 -3.97677e-06 0)
(3.38699 -4.62433e-06 0)
(3.39477 -5.51319e-06 0)
(3.40224 -6.99039e-06 0)
(3.40859 -8.63974e-06 0)
(3.4154 -1.00153e-05 0)
(3.42258 -1.15511e-05 0)
(3.43031 -1.27887e-05 0)
(3.43836 -1.42389e-05 0)
(3.44695 -1.55784e-05 0)
(3.45597 -1.7077e-05 0)
(3.46554 -1.78813e-05 0)
(3.47566 -1.92887e-05 0)
(3.48631 -1.96079e-05 0)
(3.49767 -2.16694e-05 0)
(3.50952 -2.17057e-05 0)
(3.52247 -2.59777e-05 0)
(3.53562 -2.33276e-05 0)
(3.551 -3.29824e-05 0)
(3.5657 -2.00917e-05 0)
(3.58566 -4.18353e-05 0)
(3.6015 -7.21166e-06 0)
(3.63216 -4.7791e-05 0)
(3.64427 5.88446e-06 0)
(3.70227 -7.54589e-05 0)
(3.71142 -0.000379501 0)
(3.87069 0.00176257 0)
(3.54068 -0.0593909 0)
(16.0191 0.00433817 0)
(11.121 0.00205263 0)
(9.99904 0.000544356 0)
(9.30741 0.00032785 0)
(8.86315 0.000212323 0)
(8.57019 0.00014627 0)
(8.36359 0.000107463 0)
(8.21113 8.23097e-05 0)
(8.09577 6.48578e-05 0)
(8.00639 5.23578e-05 0)
(7.9357 4.30693e-05 0)
(7.87899 3.59598e-05 0)
(7.83289 3.03605e-05 0)
(7.79514 2.59276e-05 0)
(7.76376 2.23083e-05 0)
(7.73772 1.93277e-05 0)
(7.71576 1.68664e-05 0)
(7.69731 1.47656e-05 0)
(7.68164 1.30477e-05 0)
(7.66824 1.1566e-05 0)
(7.65679 1.02693e-05 0)
(7.64696 9.19859e-06 0)
(7.63842 8.26819e-06 0)
(7.63105 7.43476e-06 0)
(7.62463 6.73275e-06 0)
(7.61901 6.10625e-06 0)
(7.6141 5.57181e-06 0)
(7.60976 5.09497e-06 0)
(7.60595 4.67876e-06 0)
(7.60255 4.30772e-06 0)
(7.59956 3.98311e-06 0)
(7.59686 3.6908e-06 0)
(7.59448 3.42811e-06 0)
(7.59232 3.18451e-06 0)
(7.59042 2.96726e-06 0)
(7.58868 2.76667e-06 0)
(7.58715 2.56792e-06 0)
(7.58576 2.36215e-06 0)
(7.58457 2.15954e-06 0)
(7.5835 1.93098e-06 0)
(7.58264 1.69616e-06 0)
(7.58189 1.41126e-06 0)
(7.58137 1.08739e-06 0)
(7.58099 7.00068e-07 0)
(7.58086 2.31927e-07 0)
(7.58093 -3.59889e-07 0)
(7.58133 -1.08442e-06 0)
(7.58199 -1.9805e-06 0)
(7.58309 -3.03333e-06 0)
(7.58453 -4.29463e-06 0)
(7.5865 -5.87701e-06 0)
(7.58898 -7.75316e-06 0)
(7.59211 -1.00544e-05 0)
(7.59595 -1.27524e-05 0)
(7.6006 -1.60176e-05 0)
(7.60619 -1.97732e-05 0)
(7.61276 -2.43599e-05 0)
(7.62055 -2.96183e-05 0)
(7.62957 -3.59685e-05 0)
(7.64014 -4.32405e-05 0)
(7.65227 -5.20236e-05 0)
(7.66634 -6.19807e-05 0)
(7.68241 -7.4167e-05 0)
(7.69781 -8.67531e-05 0)
(7.71096 -9.81865e-05 0)
(7.72506 -0.000110178 0)
(7.73997 -0.000123746 0)
(7.75594 -0.000137917 0)
(7.77267 -0.000153424 0)
(7.79044 -0.00017066 0)
(7.80919 -0.000189423 0)
(7.82898 -0.000209467 0)
(7.84998 -0.000231956 0)
(7.87194 -0.000256196 0)
(7.89557 -0.000284882 0)
(7.91992 -0.000316128 0)
(7.94701 -0.000354532 0)
(7.97394 -0.000394871 0)
(8.00642 -0.000452489 0)
(8.03612 -0.000504057 0)
(8.0784 -0.000594882 0)
(8.10953 -0.000679104 0)
(8.17339 -0.000812221 0)
(8.19688 -0.000968726 0)
(8.31352 -0.00163662 0)
(8.32631 -0.00220867 0)
(8.63436 -0.00133472 0)
(8.28929 -0.0985537 0)
(19.86 0.00637082 0)
(16.1212 0.00404646 0)
(15.0145 0.00126613 0)
(14.2301 0.000819661 0)
(13.6925 0.000551364 0)
(13.3276 0.000387924 0)
(13.0647 0.000289453 0)
(12.8678 0.000224028 0)
(12.7175 0.000177741 0)
(12.6003 0.000144234 0)
(12.5072 0.000119132 0)
(12.4322 9.97776e-05 0)
(12.371 8.44538e-05 0)
(12.3208 7.22665e-05 0)
(12.279 6.22883e-05 0)
(12.2443 5.40448e-05 0)
(12.215 4.72208e-05 0)
(12.1903 4.13869e-05 0)
(12.1693 3.6596e-05 0)
(12.1513 3.24675e-05 0)
(12.136 2.8853e-05 0)
(12.1228 2.58502e-05 0)
(12.1113 2.32472e-05 0)
(12.1014 2.09165e-05 0)
(12.0928 1.89436e-05 0)
(12.0852 1.71871e-05 0)
(12.0786 1.56827e-05 0)
(12.0728 1.43423e-05 0)
(12.0676 1.31692e-05 0)
(12.0631 1.21236e-05 0)
(12.0591 1.12067e-05 0)
(12.0554 1.03797e-05 0)
(12.0522 9.63576e-06 0)
(12.0493 8.9453e-06 0)
(12.0468 8.32186e-06 0)
(12.0445 7.74276e-06 0)
(12.0424 7.16838e-06 0)
(12.0406 6.56922e-06 0)
(12.039 5.96842e-06 0)
(12.0376 5.28744e-06 0)
(12.0365 4.56938e-06 0)
(12.0356 3.70139e-06 0)
(12.0349 2.6959e-06 0)
(12.0346 1.48947e-06 0)
(12.0345 1.35167e-08 0)
(12.0348 -1.83968e-06 0)
(12.0356 -4.07849e-06 0)
(12.0367 -6.91066e-06 0)
(12.0385 -1.02655e-05 0)
(12.0409 -1.42614e-05 0)
(12.044 -1.92681e-05 0)
(12.048 -2.52123e-05 0)
(12.0529 -3.2483e-05 0)
(12.0589 -4.10381e-05 0)
(12.0662 -5.13722e-05 0)
(12.0749 -6.33152e-05 0)
(12.0851 -7.78252e-05 0)
(12.0972 -9.45308e-05 0)
(12.1113 -0.000114623 0)
(12.1276 -0.000137734 0)
(12.1465 -0.000165456 0)
(12.1683 -0.000197087 0)
(12.1933 -0.000235228 0)
(12.2172 -0.000274028 0)
(12.2377 -0.00031032 0)
(12.2594 -0.000347457 0)
(12.2825 -0.000390197 0)
(12.3072 -0.000434379 0)
(12.3331 -0.000483244 0)
(12.3606 -0.000536209 0)
(12.3897 -0.000594787 0)
(12.4202 -0.000657224 0)
(12.4528 -0.000726382 0)
(12.4866 -0.000803843 0)
(12.5234 -0.000888815 0)
(12.5606 -0.000992593 0)
(12.6031 -0.00109965 0)
(12.6436 -0.00124381 0)
(12.6948 -0.00138683 0)
(12.7379 -0.00159661 0)
(12.8047 -0.00179133 0)
(12.8478 -0.0021592 0)
(12.9464 -0.00240196 0)
(12.9795 -0.0031696 0)
(13.1495 -0.00415627 0)
(13.1624 -0.00766579 0)
(13.567 -0.00322393 0)
(13.3646 -0.155728 0)
(21.9311 0.00682116 0)
(19.4332 0.0056812 0)
(18.522 0.00204054 0)
(17.7457 0.00141957 0)
(17.1751 0.000987969 0)
(16.7764 0.000707634 0)
(16.4837 0.000534658 0)
(16.2618 0.000417229 0)
(16.0912 0.000332784 0)
(15.9576 0.000271115 0)
(15.8509 0.000224615 0)
(15.7648 0.000188559 0)
(15.6945 0.000159898 0)
(15.6366 0.000137023 0)
(15.5884 0.000118257 0)
(15.5483 0.000102718 0)
(15.5143 8.98292e-05 0)
(15.4858 7.88008e-05 0)
(15.4614 6.97121e-05 0)
(15.4406 6.18875e-05 0)
(15.4228 5.5035e-05 0)
(15.4075 4.93163e-05 0)
(15.3942 4.43655e-05 0)
(15.3827 3.9937e-05 0)
(15.3727 3.61737e-05 0)
(15.3639 3.28278e-05 0)
(15.3562 2.99533e-05 0)
(15.3494 2.73953e-05 0)
(15.3435 2.5153e-05 0)
(15.3382 2.31531e-05 0)
(15.3335 2.13956e-05 0)
(15.3293 1.98093e-05 0)
(15.3256 1.83808e-05 0)
(15.3222 1.70542e-05 0)
(15.3192 1.58469e-05 0)
(15.3166 1.47214e-05 0)
(15.3142 1.36034e-05 0)
(15.3121 1.24329e-05 0)
(15.3103 1.12462e-05 0)
(15.3087 9.89883e-06 0)
(15.3074 8.45535e-06 0)
(15.3064 6.71482e-06 0)
(15.3057 4.67685e-06 0)
(15.3053 2.22687e-06 0)
(15.3054 -7.90479e-07 0)
(15.3058 -4.56518e-06 0)
(15.3068 -9.08762e-06 0)
(15.3084 -1.48736e-05 0)
(15.3107 -2.1769e-05 0)
(15.3137 -2.99647e-05 0)
(15.3176 -4.02124e-05 0)
(15.3226 -5.23867e-05 0)
(15.3288 -6.72521e-05 0)
(15.3363 -8.47937e-05 0)
(15.3454 -0.000105917 0)
(15.3562 -0.00013045 0)
(15.369 -0.000160047 0)
(15.384 -0.000194328 0)
(15.4015 -0.00023527 0)
(15.4219 -0.000282703 0)
(15.4453 -0.000339137 0)
(15.4723 -0.000404126 0)
(15.5034 -0.000481978 0)
(15.533 -0.000560354 0)
(15.5585 -0.000632569 0)
(15.5855 -0.000706951 0)
(15.6141 -0.000792607 0)
(15.6446 -0.000882529 0)
(15.6768 -0.000981085 0)
(15.7106 -0.00108875 0)
(15.7466 -0.00120662 0)
(15.7842 -0.0013357 0)
(15.8245 -0.00147483 0)
(15.866 -0.00163736 0)
(15.9116 -0.00180512 0)
(15.9569 -0.00202524 0)
(16.0095 -0.0022277 0)
(16.0583 -0.00254236 0)
(16.1216 -0.00279063 0)
(16.1727 -0.00327319 0)
(16.2549 -0.00357341 0)
(16.3042 -0.00442897 0)
(16.4231 -0.00477061 0)
(16.4612 -0.00652242 0)
(16.6591 -0.00782281 0)
(16.6684 -0.0144441 0)
(17.1095 -0.011774 0)
(16.9352 -0.186646 0)
(23.1921 0.006102 0)
(21.6922 0.00698908 0)
(21.0595 0.00282121 0)
(20.3442 0.00212224 0)
(19.7687 0.00152886 0)
(19.3519 0.00111386 0)
(19.0395 0.000851045 0)
(18.7995 0.000668877 0)
(18.6136 0.00053588 0)
(18.4671 0.000437971 0)
(18.3498 0.000363733 0)
(18.2549 0.000305897 0)
(18.1772 0.000259775 0)
(18.1131 0.000222858 0)
(18.0597 0.000192527 0)
(18.0151 0.000167367 0)
(17.9775 0.000146468 0)
(17.9457 0.000128574 0)
(17.9186 0.000113785 0)
(17.8955 0.000101064 0)
(17.8756 8.99227e-05 0)
(17.8586 8.05896e-05 0)
(17.8437 7.25183e-05 0)
(17.8309 6.53066e-05 0)
(17.8197 5.91574e-05 0)
(17.8099 5.36966e-05 0)
(17.8014 4.89937e-05 0)
(17.7938 4.4813e-05 0)
(17.7871 4.11438e-05 0)
(17.7812 3.78692e-05 0)
(17.776 3.49865e-05 0)
(17.7713 3.23833e-05 0)
(17.7671 3.00377e-05 0)
(17.7634 2.78587e-05 0)
(17.7601 2.58643e-05 0)
(17.7571 2.39998e-05 0)
(17.7545 2.21466e-05 0)
(17.7521 2.02034e-05 0)
(17.7501 1.82176e-05 0)
(17.7484 1.59627e-05 0)
(17.747 1.35196e-05 0)
(17.7458 1.0581e-05 0)
(17.7451 7.11598e-06 0)
(17.7447 2.94545e-06 0)
(17.7448 -2.21025e-06 0)
(17.7453 -8.64983e-06 0)
(17.7465 -1.63238e-05 0)
(17.7483 -2.61848e-05 0)
(17.7509 -3.79996e-05 0)
(17.7543 -5.20565e-05 0)
(17.7589 -6.9575e-05 0)
(17.7645 -9.03899e-05 0)
(17.7716 -0.000115786 0)
(17.7802 -0.000145811 0)
(17.7905 -0.000181887 0)
(17.8029 -0.000223934 0)
(17.8175 -0.00027441 0)
(17.8346 -0.000333113 0)
(17.8545 -0.000402881 0)
(17.8776 -0.000484086 0)
(17.9044 -0.000580167 0)
(17.935 -0.00069146 0)
(17.9703 -0.000824154 0)
(18.004 -0.000957251 0)
(18.0329 -0.00107868 0)
(18.0635 -0.001204 0)
(18.096 -0.00134806 0)
(18.1304 -0.00150104 0)
(18.1669 -0.00166757 0)
(18.2051 -0.00185065 0)
(18.2458 -0.00204914 0)
(18.2881 -0.00227056 0)
(18.3336 -0.0025044 0)
(18.3802 -0.00278521 0)
(18.4315 -0.00306317 0)
(18.4821 -0.00344529 0)
(18.5411 -0.00377055 0)
(18.5953 -0.00432373 0)
(18.6661 -0.00469762 0)
(18.7219 -0.00556382 0)
(18.8131 -0.00597218 0)
(18.8662 -0.00750534 0)
(18.9957 -0.0079274 0)
(19.0362 -0.0110454 0)
(19.2478 -0.0124775 0)
(19.2503 -0.0232229 0)
(19.7064 -0.0216712 0)
(19.5078 -0.212143 0)
(24.0702 0.00422809 0)
(23.3295 0.00789637 0)
(23.0193 0.00353432 0)
(22.4128 0.00291889 0)
(21.8594 0.00218939 0)
(21.4387 0.00162662 0)
(21.1148 0.00125803 0)
(20.862 0.000996319 0)
(20.6642 0.000802017 0)
(20.5074 0.000657652 0)
(20.3812 0.000547521 0)
(20.2787 0.000461304 0)
(20.1946 0.000392314 0)
(20.1252 0.00033693 0)
(20.0672 0.000291358 0)
(20.0187 0.000253488 0)
(19.9777 0.000221983 0)
(19.9431 0.000194996 0)
(19.9136 0.000172628 0)
(19.8883 0.000153403 0)
(19.8667 0.000136564 0)
(19.848 0.00012241 0)
(19.8318 0.000110178 0)
(19.8178 9.92612e-05 0)
(19.8055 8.99248e-05 0)
(19.7948 8.16415e-05 0)
(19.7854 7.44922e-05 0)
(19.7772 6.81421e-05 0)
(19.7699 6.2563e-05 0)
(19.7634 5.75815e-05 0)
(19.7577 5.31898e-05 0)
(19.7525 4.92224e-05 0)
(19.748 4.56459e-05 0)
(19.7439 4.23242e-05 0)
(19.7403 3.92701e-05 0)
(19.737 3.64096e-05 0)
(19.7341 3.35672e-05 0)
(19.7316 3.0586e-05 0)
(19.7294 2.75228e-05 0)
(19.7274 2.40479e-05 0)
(19.7259 2.0253e-05 0)
(19.7247 1.57011e-05 0)
(19.7239 1.03086e-05 0)
(19.7234 3.81428e-06 0)
(19.7235 -4.22702e-06 0)
(19.7241 -1.42672e-05 0)
(19.7254 -2.61996e-05 0)
(19.7274 -4.15165e-05 0)
(19.7302 -5.99565e-05 0)
(19.734 -8.19737e-05 0)
(19.739 -0.000109291 0)
(19.7452 -0.000141747 0)
(19.7529 -0.000181336 0)
(19.7623 -0.000228188 0)
(19.7736 -0.000284393 0)
(19.7871 -0.000350066 0)
(19.803 -0.000428619 0)
(19.8217 -0.000520225 0)
(19.8435 -0.000628712 0)
(19.8687 -0.000755355 0)
(19.8979 -0.000904609 0)
(19.9313 -0.00107815 0)
(19.9698 -0.0012842 0)
(20.0064 -0.00149044 0)
(20.038 -0.00167761 0)
(20.0713 -0.00187069 0)
(20.1066 -0.0020919 0)
(20.1439 -0.00232874 0)
(20.1835 -0.0025854 0)
(20.225 -0.00286867 0)
(20.269 -0.00317335 0)
(20.3148 -0.0035174 0)
(20.3639 -0.00387528 0)
(20.4141 -0.00431283 0)
(20.4693 -0.00473344 0)
(20.5237 -0.00532906 0)
(20.587 -0.00581056 0)
(20.6448 -0.00667577 0)
(20.7203 -0.00720466 0)
(20.7795 -0.00856819 0)
(20.8757 -0.00909992 0)
(20.9317 -0.011502 0)
(21.0664 -0.0119884 0)
(21.1084 -0.0168658 0)
(21.326 -0.0182102 0)
(21.3221 -0.0341341 0)
(21.7791 -0.032747 0)
(21.5745 -0.234603 0)
(24.7478 0.00104796 0)
(24.5755 0.00828948 0)
(24.5942 0.00405467 0)
(24.139 0.00375744 0)
(23.6365 0.0029605 0)
(23.2281 0.00225299 0)
(22.9021 0.00176792 0)
(22.6419 0.00141284 0)
(22.4357 0.00114375 0)
(22.2709 0.000941499 0)
(22.1374 0.000786052 0)
(22.0286 0.000663661 0)
(21.9389 0.00056533 0)
(21.8648 0.000486128 0)
(21.8027 0.000420829 0)
(21.7507 0.000366462 0)
(21.7067 0.000321157 0)
(21.6694 0.00028232 0)
(21.6377 0.000250042 0)
(21.6104 0.000222311 0)
(21.5871 0.00019802 0)
(21.5669 0.000177537 0)
(21.5495 0.000159842 0)
(21.5343 0.000144066 0)
(21.5211 0.000130537 0)
(21.5095 0.000118542 0)
(21.4994 0.000108168 0)
(21.4904 9.89599e-05 0)
(21.4825 9.08618e-05 0)
(21.4755 8.36286e-05 0)
(21.4693 7.72428e-05 0)
(21.4637 7.14725e-05 0)
(21.4588 6.62689e-05 0)
(21.4544 6.14382e-05 0)
(21.4505 5.6981e-05 0)
(21.4469 5.28005e-05 0)
(21.4438 4.86508e-05 0)
(21.441 4.43014e-05 0)
(21.4386 3.98154e-05 0)
(21.4366 3.47367e-05 0)
(21.4349 2.91581e-05 0)
(21.4336 2.2487e-05 0)
(21.4327 1.456e-05 0)
(21.4322 5.01147e-06 0)
(21.4323 -6.81292e-06 0)
(21.4329 -2.15782e-05 0)
(21.4343 -3.91237e-05 0)
(21.4363 -6.15335e-05 0)
(21.4394 -8.86206e-05 0)
(21.4434 -0.00012113 0)
(21.4487 -0.000161267 0)
(21.4553 -0.000208959 0)
(21.4635 -0.000267117 0)
(21.4735 -0.000335974 0)
(21.4855 -0.000418481 0)
(21.4999 -0.000515071 0)
(21.5169 -0.00063028 0)
(21.5368 -0.000764878 0)
(21.56 -0.000923849 0)
(21.5868 -0.00110976 0)
(21.6179 -0.00132823 0)
(21.6534 -0.00158285 0)
(21.6944 -0.00188408 0)
(21.7332 -0.00218496 0)
(21.7667 -0.00245747 0)
(21.8021 -0.00273819 0)
(21.8395 -0.00305837 0)
(21.8791 -0.00340308 0)
(21.9209 -0.00377556 0)
(21.9648 -0.00418755 0)
(22.0113 -0.00462784 0)
(22.0595 -0.00512885 0)
(22.1113 -0.00564429 0)
(22.164 -0.00628132 0)
(22.222 -0.0068819 0)
(22.2789 -0.00774645 0)
(22.345 -0.00842437 0)
(22.4054 -0.00967706 0)
(22.4835 -0.0104007 0)
(22.5454 -0.0123729 0)
(22.6438 -0.0130583 0)
(22.7023 -0.016514 0)
(22.8385 -0.0170603 0)
(22.8821 -0.0240714 0)
(23.0999 -0.0251473 0)
(23.0935 -0.0470503 0)
(23.5348 -0.0459055 0)
(23.3555 -0.252499 0)
(25.3098 -0.00364064 0)
(25.5635 0.00805908 0)
(25.8871 0.00423746 0)
(25.6131 0.00455138 0)
(25.1911 0.00380959 0)
(24.8135 0.00298763 0)
(24.4964 0.00238717 0)
(24.2357 0.00192932 0)
(24.0252 0.00157297 0)
(23.8549 0.00130106 0)
(23.716 0.00109002 0)
(23.602 0.000922676 0)
(23.5078 0.000787535 0)
(23.4295 0.000678235 0)
(23.3637 0.000587892 0)
(23.3086 0.000512496 0)
(23.2618 0.00044954 0)
(23.2222 0.000395517 0)
(23.1883 0.00035049 0)
(23.1593 0.000311804 0)
(23.1343 0.000277916 0)
(23.1128 0.000249249 0)
(23.0941 0.000224485 0)
(23.0778 0.000202426 0)
(23.0637 0.000183459 0)
(23.0513 0.000166652 0)
(23.0404 0.000152087 0)
(23.0308 0.000139164 0)
(23.0223 0.000127788 0)
(23.0148 0.000117625 0)
(23.0081 0.000108639 0)
(23.0021 0.000100518 0)
(22.9969 9.31922e-05 0)
(22.9921 8.63962e-05 0)
(22.9879 8.01074e-05 0)
(22.9841 7.42027e-05 0)
(22.9807 6.83512e-05 0)
(22.9777 6.22268e-05 0)
(22.9752 5.58933e-05 0)
(22.9729 4.87432e-05 0)
(22.9711 4.08562e-05 0)
(22.9697 3.14559e-05 0)
(22.9687 2.02652e-05 0)
(22.9682 6.78621e-06 0)
(22.9682 -9.89003e-06 0)
(22.9688 -3.07131e-05 0)
(22.9702 -5.55068e-05 0)
(22.9724 -8.69467e-05 0)
(22.9755 -0.000125065 0)
(22.9797 -0.00017106 0)
(22.9852 -0.000227581 0)
(22.9921 -0.000294794 0)
(23.0007 -0.000376694 0)
(23.0112 -0.000473661 0)
(23.0238 -0.000589757 0)
(23.0388 -0.000725867 0)
(23.0566 -0.000887858 0)
(23.0774 -0.00107732 0)
(23.1016 -0.00130064 0)
(23.1297 -0.00156205 0)
(23.1622 -0.00186856 0)
(23.1993 -0.00222629 0)
(23.2421 -0.00264821 0)
(23.2826 -0.00306869 0)
(23.3175 -0.00344939 0)
(23.3544 -0.00384105 0)
(23.3933 -0.00428547 0)
(23.4345 -0.00476558 0)
(23.478 -0.00528357 0)
(23.5235 -0.00585674 0)
(23.5717 -0.0064665 0)
(23.6217 -0.00716309 0)
(23.6752 -0.00787466 0)
(23.7296 -0.0087581 0)
(23.7893 -0.00958232 0)
(23.8481 -0.0107745 0)
(23.9157 -0.0116982 0)
(23.9779 -0.0134154 0)
(24.0571 -0.0143863 0)
(24.121 -0.0170757 0)
(24.2195 -0.0179657 0)
(24.2804 -0.0226497 0)
(24.4152 -0.0232827 0)
(24.4609 -0.0327541 0)
(24.6738 -0.0335391 0)
(24.6705 -0.0617161 0)
(25.081 -0.062083 0)
(24.9406 -0.265827 0)
(25.8007 -0.0100866 0)
(26.3778 0.00709169 0)
(26.9636 0.00393223 0)
(26.8842 0.00518446 0)
(26.569 0.00467634 0)
(26.2424 0.0038081 0)
(25.9474 0.00311342 0)
(25.6944 0.00255281 0)
(25.4849 0.00210048 0)
(25.3126 0.00174818 0)
(25.1705 0.00147117 0)
(25.0528 0.00124942 0)
(24.955 0.00106914 0)
(24.8733 0.000922554 0)
(24.8045 0.00080097 0)
(24.7466 0.000699195 0)
(24.6973 0.000613995 0)
(24.6555 0.00054078 0)
(24.6197 0.000479563 0)
(24.589 0.000426942 0)
(24.5625 0.000380838 0)
(24.5397 0.00034171 0)
(24.5198 0.000307895 0)
(24.5025 0.000277796 0)
(24.4875 0.00025185 0)
(24.4742 0.000228867 0)
(24.4626 0.000208907 0)
(24.4524 0.000191201 0)
(24.4434 0.000175599 0)
(24.4353 0.000161657 0)
(24.4282 0.000149314 0)
(24.4218 0.000138155 0)
(24.4162 0.000128085 0)
(24.4111 0.000118752 0)
(24.4066 0.000110095 0)
(24.4025 0.000101959 0)
(24.3989 9.39136e-05 0)
(24.3957 8.55101e-05 0)
(24.393 7.68045e-05 0)
(24.3906 6.70117e-05 0)
(24.3886 5.61761e-05 0)
(24.3871 4.3308e-05 0)
(24.386 2.79757e-05 0)
(24.3854 9.51266e-06 0)
(24.3854 -1.32942e-05 0)
(24.386 -4.17532e-05 0)
(24.3873 -7.57573e-05 0)
(24.3895 -0.000118542 0)
(24.3927 -0.000170521 0)
(24.397 -0.000233526 0)
(24.4027 -0.000310648 0)
(24.4098 -0.00040248 0)
(24.4186 -0.00051423 0)
(24.4294 -0.000646531 0)
(24.4424 -0.000804829 0)
(24.4579 -0.000990619 0)
(24.4762 -0.00121135 0)
(24.4977 -0.00146967 0)
(24.5227 -0.00177368 0)
(24.5516 -0.00212966 0)
(24.5851 -0.00254636 0)
(24.6233 -0.00303298 0)
(24.6673 -0.00360562 0)
(24.709 -0.00417466 0)
(24.7449 -0.00469019 0)
(24.7827 -0.00522005 0)
(24.8228 -0.0058182 0)
(24.865 -0.00646539 0)
(24.9095 -0.00716336 0)
(24.9561 -0.00793478 0)
(25.0054 -0.00875332 0)
(25.0565 -0.00968901 0)
(25.1109 -0.0106417 0)
(25.1665 -0.0118233 0)
(25.227 -0.0129227 0)
(25.2869 -0.0145059 0)
(25.355 -0.0157348 0)
(25.4184 -0.0179967 0)
(25.4975 -0.0192835 0)
(25.5628 -0.0227964 0)
(25.6601 -0.0239697 0)
(25.7228 -0.0300401 0)
(25.8542 -0.0308456 0)
(25.9026 -0.043015 0)
(26.1066 -0.0437534 0)
(26.1109 -0.0779437 0)
(26.4821 -0.0815861 0)
(26.3759 -0.27617 0)
(26.2471 -0.0186005 0)
(27.0738 0.00525812 0)
(27.8735 0.00298572 0)
(27.9847 0.00551555 0)
(27.7953 0.005467 0)
(27.5396 0.00466586 0)
(27.2816 0.00392797 0)
(27.0464 0.00328125 0)
(26.8445 0.0027325 0)
(26.6746 0.00229284 0)
(26.5322 0.00194087 0)
(26.4129 0.0016555 0)
(26.3129 0.00142134 0)
(26.2288 0.00122963 0)
(26.1577 0.00106983 0)
(26.0975 0.000935539 0)
(26.0462 0.000822736 0)
(26.0025 0.000725602 0)
(25.965 0.000644092 0)
(25.9327 0.000573947 0)
(25.9049 0.000512463 0)
(25.8808 0.000460103 0)
(25.8598 0.00041481 0)
(25.8416 0.000374518 0)
(25.8256 0.000339693 0)
(25.8116 0.000308849 0)
(25.7993 0.000282001 0)
(25.7884 0.000258183 0)
(25.7788 0.000237172 0)
(25.7703 0.000218394 0)
(25.7627 0.000201744 0)
(25.756 0.000186686 0)
(25.75 0.000173092 0)
(25.7446 0.000160505 0)
(25.7397 0.000148806 0)
(25.7354 0.000137804 0)
(25.7316 0.000126949 0)
(25.7282 0.000115641 0)
(25.7252 0.000103915 0)
(25.7227 9.07801e-05 0)
(25.7206 7.62155e-05 0)
(25.7189 5.89848e-05 0)
(25.7177 3.84543e-05 0)
(25.717 1.37424e-05 0)
(25.7169 -1.67261e-05 0)
(25.7174 -5.46874e-05 0)
(25.7188 -0.000100232 0)
(25.7209 -0.000157135 0)
(25.7242 -0.000226342 0)
(25.7285 -0.000310488 0)
(25.7342 -0.000413192 0)
(25.7414 -0.000535683 0)
(25.7504 -0.000684471 0)
(25.7614 -0.000860651 0)
(25.7746 -0.00107129 0)
(25.7904 -0.00131874 0)
(25.8091 -0.0016123 0)
(25.8309 -0.00195591 0)
(25.8564 -0.00235986 0)
(25.8858 -0.00283273 0)
(25.9199 -0.00338563 0)
(25.9588 -0.00403125 0)
(26.0036 -0.00478991 0)
(26.0459 -0.00554118 0)
(26.0823 -0.00622238 0)
(26.1208 -0.00692226 0)
(26.1614 -0.00770847 0)
(26.2042 -0.00855933 0)
(26.2492 -0.00947698 0)
(26.2964 -0.0104892 0)
(26.3461 -0.011562 0)
(26.3978 -0.0127862 0)
(26.4526 -0.014032 0)
(26.5087 -0.0155701 0)
(26.5694 -0.0170047 0)
(26.6297 -0.0190481 0)
(26.6976 -0.0206539 0)
(26.7615 -0.023545 0)
(26.8397 -0.025235 0)
(26.9058 -0.0296756 0)
(27.0009 -0.031245 0)
(27.0649 -0.0388361 0)
(27.1915 -0.0399855 0)
(27.243 -0.0549758 0)
(27.4353 -0.0561832 0)
(27.4491 -0.095704 0)
(27.78 -0.104167 0)
(27.6963 -0.285295 0)
(26.6662 -0.0295612 0)
(27.6891 0.00240594 0)
(28.6571 0.00124017 0)
(28.9417 0.00538643 0)
(28.8867 0.00605374 0)
(28.7185 0.00547809 0)
(28.5128 0.00478617 0)
(28.3071 0.00409545 0)
(28.121 0.00346472 0)
(27.9591 0.00293889 0)
(27.8203 0.00250721 0)
(27.7021 0.00215098 0)
(27.6018 0.00185496 0)
(27.5168 0.00161028 0)
(27.4443 0.00140494 0)
(27.3826 0.00123143 0)
(27.3298 0.00108504 0)
(27.2846 0.000958596 0)
(27.2457 0.000852041 0)
(27.2121 0.000760159 0)
(27.183 0.000679556 0)
(27.1579 0.000610658 0)
(27.1359 0.000550966 0)
(27.1167 0.000497876 0)
(27.1 0.000451865 0)
(27.0852 0.000411103 0)
(27.0723 0.000375537 0)
(27.0608 0.00034397 0)
(27.0507 0.000316088 0)
(27.0417 0.000291162 0)
(27.0337 0.000269027 0)
(27.0265 0.000248999 0)
(27.0201 0.00023091 0)
(27.0144 0.000214175 0)
(27.0093 0.000198596 0)
(27.0047 0.000183932 0)
(27.0007 0.000169502 0)
(26.997 0.000154518 0)
(26.9939 0.000138972 0)
(26.9911 0.000121642 0)
(26.9889 0.0001024 0)
(26.987 7.97266e-05 0)
(26.9857 5.27321e-05 0)
(26.9849 2.02593e-05 0)
(26.9847 -1.96977e-05 0)
(26.9852 -6.93628e-05 0)
(26.9865 -0.000129188 0)
(26.9886 -0.000203502 0)
(26.9918 -0.000293931 0)
(26.9961 -0.00040406 0)
(27.0018 -0.000538193 0)
(27.0091 -0.000698444 0)
(27.0181 -0.000892673 0)
(27.0292 -0.00112279 0)
(27.0425 -0.00139766 0)
(27.0584 -0.0017208 0)
(27.0772 -0.00210364 0)
(27.0992 -0.00255178 0)
(27.1249 -0.00307814 0)
(27.1545 -0.00369398 0)
(27.1888 -0.00441338 0)
(27.228 -0.00525306 0)
(27.273 -0.00623892 0)
(27.3157 -0.00721164 0)
(27.3523 -0.00809388 0)
(27.3909 -0.00900071 0)
(27.4317 -0.0100146 0)
(27.4746 -0.0111115 0)
(27.5198 -0.0122945 0)
(27.5671 -0.0135963 0)
(27.6168 -0.0149757 0)
(27.6685 -0.0165445 0)
(27.7232 -0.0181438 0)
(27.7792 -0.0201035 0)
(27.8395 -0.0219439 0)
(27.8997 -0.0245238 0)
(27.9668 -0.0265914 0)
(28.0306 -0.0302008 0)
(28.1074 -0.0324028 0)
(28.1735 -0.0378737 0)
(28.2658 -0.0399925 0)
(28.3307 -0.0492114 0)
(28.4517 -0.0509774 0)
(28.5061 -0.0687856 0)
(28.6852 -0.0711992 0)
(28.7081 -0.115125 0)
(29.0014 -0.129378 0)
(28.931 -0.294301 0)
(27.0711 -0.0434162 0)
(28.2505 -0.00164738 0)
(29.3472 -0.00147111 0)
(29.7806 0.00462932 0)
(29.8576 0.00628049 0)
(29.7876 0.00612404 0)
(29.6479 0.00560839 0)
(29.4838 0.00494929 0)
(29.323 0.00427395 0)
(29.1761 0.00367756 0)
(29.0459 0.00317012 0)
(28.9326 0.00274085 0)
(28.8347 0.00237774 0)
(28.7506 0.00207367 0)
(28.6782 0.00181602 0)
(28.6161 0.00159668 0)
(28.5625 0.00141047 0)
(28.5164 0.00124894 0)
(28.4766 0.00111212 0)
(28.4421 0.000993756 0)
(28.4121 0.000889771 0)
(28.386 0.000800523 0)
(28.3633 0.000723014 0)
(28.3433 0.000654059 0)
(28.3259 0.00059412 0)
(28.3105 0.000540988 0)
(28.2969 0.000494503 0)
(28.2849 0.000453209 0)
(28.2743 0.000416677 0)
(28.2648 0.000384007 0)
(28.2564 0.000354944 0)
(28.2489 0.00032863 0)
(28.2422 0.000304851 0)
(28.2361 0.000282866 0)
(28.2307 0.000262372 0)
(28.2259 0.000243066 0)
(28.2216 0.000224112 0)
(28.2178 0.000204507 0)
(28.2144 0.000184164 0)
(28.2115 0.000161603 0)
(28.2091 0.000136538 0)
(28.2071 0.000107123 0)
(28.2056 7.21561e-05 0)
(28.2047 3.01259e-05 0)
(28.2044 -2.14878e-05 0)
(28.2048 -8.54446e-05 0)
(28.206 -0.000162749 0)
(28.208 -0.000258353 0)
(28.2111 -0.000374699 0)
(28.2154 -0.000516482 0)
(28.2211 -0.00068887 0)
(28.2283 -0.000895155 0)
(28.2372 -0.0011446 0)
(28.2482 -0.00144042 0)
(28.2615 -0.00179332 0)
(28.2774 -0.00220852 0)
(28.2962 -0.00269975 0)
(28.3181 -0.00327479 0)
(28.3438 -0.00394964 0)
(28.3734 -0.00473874 0)
(28.4076 -0.00565973 0)
(28.4467 -0.0067341 0)
(28.4916 -0.00799498 0)
(28.5341 -0.00923463 0)
(28.5706 -0.0103583 0)
(28.6091 -0.0115148 0)
(28.6496 -0.0128019 0)
(28.6924 -0.0141937 0)
(28.7373 -0.0156941 0)
(28.7842 -0.0173412 0)
(28.8336 -0.0190873 0)
(28.8848 -0.0210648 0)
(28.9389 -0.0230868 0)
(28.9944 -0.0255424 0)
(29.0539 -0.0278702 0)
(29.1135 -0.0310716 0)
(29.1794 -0.0337014 0)
(29.2427 -0.038124 0)
(29.3175 -0.0409721 0)
(29.3833 -0.0475728 0)
(29.4723 -0.0504422 0)
(29.5376 -0.0613645 0)
(29.6524 -0.0641248 0)
(29.7093 -0.0846339 0)
(29.8747 -0.0891123 0)
(29.9048 -0.136407 0)
(30.1642 -0.156839 0)
(30.1022 -0.303853 0)
(27.4725 -0.0606775 0)
(28.7774 -0.00712165 0)
(29.9707 -0.00533008 0)
(30.5259 0.00307047 0)
(30.7239 0.00597241 0)
(30.7547 0.00644816 0)
(30.6908 0.00627486 0)
(30.5796 0.00576023 0)
(30.454 0.00510792 0)
(30.3302 0.00447837 0)
(30.2149 0.00391389 0)
(30.111 0.00341904 0)
(30.019 0.0029898 0)
(29.9385 0.00262375 0)
(29.8682 0.00230932 0)
(29.8072 0.00203884 0)
(29.7541 0.00180725 0)
(29.708 0.00160511 0)
(29.668 0.00143276 0)
(29.6331 0.00128297 0)
(29.6026 0.00115104 0)
(29.576 0.00103728 0)
(29.5527 0.000938147 0)
(29.5322 0.000849864 0)
(29.5142 0.000772871 0)
(29.4983 0.00070454 0)
(29.4843 0.000644575 0)
(29.4719 0.000591233 0)
(29.4608 0.000543948 0)
(29.451 0.000501636 0)
(29.4422 0.00046392 0)
(29.4343 0.000429741 0)
(29.4273 0.000398833 0)
(29.421 0.000370265 0)
(29.4154 0.000343604 0)
(29.4103 0.000318461 0)
(29.4058 0.00029383 0)
(29.4018 0.000268457 0)
(29.3982 0.000242135 0)
(29.3952 0.000213099 0)
(29.3926 0.000180838 0)
(29.3904 0.000143133 0)
(29.3888 9.84079e-05 0)
(29.3878 4.46978e-05 0)
(29.3874 -2.11275e-05 0)
(29.3876 -0.000102406 0)