/*--------------------------------*- C++ -*----------------------------------*\
| =========                 |                                                 |
| \\      /  F ield         | OpenFOAM: The Open Source CFD Toolbox           |
|  \\    /   O peration     | Version:  2306                                  |
|   \\  /    A nd           | Website:  www.openfoam.com                      |
|    \\/     M anipulation  |                                                 |
\*---------------------------------------------------------------------------*/
FoamFile
{
    version     2.0;
    format      ascii;
    arch        "LSB;label=32;scalar=64";
    class       volVectorField;
    location    "1700";
    object      wallShearStress;
}
// * * * * * * * * * * * * * * * * * * * * * * * * * * * * * * * * * * * * * //

dimensions      [0 2 -2 0 0 0 0];

internalField   uniform (0 0 0);

boundaryField
{
    inlet
    {
        type            calculated;
        value           uniform (0 0 0);
    }
    outlet
    {
        type            calculated;
        value           uniform (0 0 0);
    }
    lowerWallStartup
    {
        type            symmetryPlane;
    }
    upperWallStartup
    {
        type            symmetryPlane;
    }
    upperWall
    {
        type            calculated;
        value           nonuniform List<vector> 
218
(
(-10.932 0.00506312 0)
(-6.29032 0.00114829 0)
(-5.46814 0.00025348 0)
(-4.9988 0.000140421 0)
(-4.71179 8.63631e-05 0)
(-4.52726 5.77403e-05 0)
(-4.39936 4.14943e-05 0)
(-4.30612 3.12953e-05 0)
(-4.23615 2.44058e-05 0)
(-4.18225 1.95335e-05 0)
(-4.13987 1.59627e-05 0)
(-4.10598 1.3246e-05 0)
(-4.0786 1.11393e-05 0)
(-4.05615 9.45486e-06 0)
(-4.03771 8.12425e-06 0)
(-4.02223 6.99579e-06 0)
(-4.00948 6.06928e-06 0)
(-3.99859 5.32769e-06 0)
(-3.98947 4.66751e-06 0)
(-3.98166 4.12986e-06 0)
(-3.97503 3.66597e-06 0)
(-3.96929 3.2686e-06 0)
(-3.96441 2.91429e-06 0)
(-3.96015 2.63375e-06 0)
(-3.95646 2.36969e-06 0)
(-3.95324 2.15244e-06 0)
(-3.95043 1.9518e-06 0)
(-3.94795 1.79142e-06 0)
(-3.94578 1.63849e-06 0)
(-3.94384 1.51579e-06 0)
(-3.94213 1.39745e-06 0)
(-3.94059 1.30211e-06 0)
(-3.93923 1.21377e-06 0)
(-3.93798 1.14074e-06 0)
(-3.93686 1.07882e-06 0)
(-3.93584 1.0205e-06 0)
(-3.93489 9.87077e-07 0)
(-3.93402 9.39079e-07 0)
(-3.93319 9.40199e-07 0)
(-3.93241 9.01331e-07 0)
(-3.93164 9.44367e-07 0)
(-3.93089 9.22361e-07 0)
(-3.93012 1.01436e-06 0)
(-3.92933 1.01769e-06 0)
(-3.9285 1.18519e-06 0)
(-3.92759 1.2497e-06 0)
(-3.92659 1.481e-06 0)
(-3.92549 1.63059e-06 0)
(-3.9242 2.04853e-06 0)
(-3.92273 2.29351e-06 0)
(-3.92103 2.85696e-06 0)
(-3.91906 3.26609e-06 0)
(-3.9168 3.92694e-06 0)
(-3.91424 4.47234e-06 0)
(-3.91132 5.35986e-06 0)
(-3.908 6.23894e-06 0)
(-3.90419 7.38682e-06 0)
(-3.89991 8.56855e-06 0)
(-3.89505 9.9775e-06 0)
(-3.88967 1.14753e-05 0)
(-3.88363 1.31517e-05 0)
(-3.87707 1.49621e-05 0)
(-3.86974 1.69937e-05 0)
(-3.86318 1.85332e-05 0)
(-3.85775 1.96272e-05 0)
(-3.85231 2.11383e-05 0)
(-3.84669 2.25368e-05 0)
(-3.84105 2.3995e-05 0)
(-3.83532 2.52393e-05 0)
(-3.82961 2.69234e-05 0)
(-3.82383 2.78955e-05 0)
(-3.81814 2.97623e-05 0)
(-3.81241 3.0638e-05 0)
(-3.80681 3.22214e-05 0)
(-3.80121 3.35368e-05 0)
(-3.79572 3.42769e-05 0)
(-3.79033 3.62515e-05 0)
(-3.785 3.62806e-05 0)
(-3.77983 3.90529e-05 0)
(-3.7747 3.8419e-05 0)
(-3.76975 4.12716e-05 0)
(-3.76495 3.99591e-05 0)
(-3.76016 4.34209e-05 0)
(-3.7559 4.10393e-05 0)
(-3.75088 4.54642e-05 0)
(-3.74786 4.47085e-05 0)
(-3.74125 4.50889e-05 0)
(-3.7415 9.21942e-05 0)
(-3.73338 0.000124178 -1.55075e-20)
(-3.72818 0.000130616 0)
(-3.72234 0.000133136 1.53987e-20)
(-3.71864 0.000139076 -1.53438e-20)
(-3.71212 0.000138112 0)
(-3.70844 0.00013674 -1.52315e-20)
(-3.70195 0.000137229 0)
(-3.69829 0.000137547 0)
(-3.69163 0.00013807 0)
(-3.68793 0.000137943 0)
(-3.68113 0.000138261 1.49292e-20)
(-3.67739 0.000138522 0)
(-3.67045 0.0001382 -1.47987e-20)
(-3.66665 0.0001389 0)
(-3.65957 0.00013823 -1.4663e-20)
(-3.65572 0.000138886 1.45918e-20)
(-3.6485 0.000138247 0)
(-3.64461 0.000138562 1.44482e-20)
(-3.63728 0.000138399 0)
(-3.63334 0.000138135 -1.42994e-20)
(-3.6259 0.000138495 0)
(-3.62191 0.000138127 0)
(-3.61435 0.00013852 0)
(-3.61028 0.000138074 0)
(-3.60261 0.000138304 0)
(-3.5985 0.000137717 0)
(-3.59073 0.000137775 0)
(-3.58656 0.00013791 1.36539e-20)
(-3.57869 0.000137102 -1.35691e-20)
(-3.57447 0.000137645 1.34803e-20)
(-3.56651 0.000136607 -1.33931e-20)
(-3.56225 0.000136965 0)
(-3.55423 0.000135864 -1.32125e-20)
(-3.54994 0.000136253 0)
(-3.54185 0.000135214 -1.30274e-20)
(-3.53754 0.000135417 0)
(-3.5294 0.000134834 0)
(-3.52507 0.000134146 -1.27402e-20)
(-3.51687 0.000134033 0)
(-3.51254 0.000133124 -1.25446e-20)
(-3.5043 0.00013304 0)
(-3.49997 0.000132152 -1.2345e-20)
(-3.49169 0.000132153 0)
(-3.48736 0.000131186 -1.21417e-20)
(-3.47904 0.000130957 0)
(-3.47471 0.000130553 0)
(-3.46636 0.00012935 -1.18316e-20)
(-3.46205 0.000129383 0)
(-3.45369 0.000128017 -1.162e-20)
(-3.4494 0.000128012 0)
(-3.44105 0.000126581 -1.14053e-20)
(-3.4368 0.000126587 0)
(-3.42845 0.000125261 -1.11879e-20)
(-3.42425 0.000125048 0)
(-3.41591 0.000124355 0)
(-3.41176 0.000123241 -1.08559e-20)
(-3.40344 0.000123125 0)
(-3.39934 0.000121703 -1.06328e-20)
(-3.39104 0.000121552 0)
(-3.38701 0.000120045 -1.04079e-20)
(-3.37875 0.000119921 0)
(-3.37478 0.000118419 0)
(-3.36657 0.000118102 -1.00688e-20)
(-3.36268 0.000117194 -9.9536e-21)
(-3.35451 0.000115914 0)
(-3.3507 0.0001155 -9.72473e-21)
(-3.34258 0.000114145 0)
(-3.33886 0.000113634 -9.49506e-21)
(-3.33081 0.000112259 0)
(-3.32718 0.000111744 -9.26485e-21)
(-3.31921 0.000110448 0)
(-3.31569 0.00010968 -9.03436e-21)
(-3.3078 0.000108947 -8.92009e-21)
(-3.30439 0.000107304 0)
(-3.29658 0.000107162 -8.68965e-21)
(-3.29327 0.000105462 0)
(-3.28553 0.000105356 -8.45959e-21)
(-3.28233 0.000103589 0)
(-3.27469 0.000103389 0)
(-3.2716 0.000102034 -8.11481e-21)
(-3.26405 0.000100935 8.00153e-21)
(-3.26108 0.00010005 -7.88675e-21)
(-3.25365 9.89024e-05 7.77399e-21)
(-3.25079 9.7995e-05 0)
(-3.24347 9.69439e-05 0)
(-3.24074 9.59541e-05 0)
(-3.23353 9.48872e-05 7.32298e-21)
(-3.23092 9.38425e-05 0)
(-3.22382 9.34558e-05 0)
(-3.22136 9.12942e-05 0)
(-3.21433 9.17121e-05 0)
(-3.21205 8.91142e-05 0)
(-3.20506 9.00645e-05 0)
(-3.20304 8.63914e-05 0)
(-3.19596 8.92615e-05 -6.4433e-21)
(-3.19439 8.65101e-05 6.33398e-21)
(-3.18632 6.55399e-05 0)
(-3.18549 6.26567e-05 0)
(-3.18278 6.19303e-05 -1.59573e-21)
(-3.17898 5.822e-05 1.36748e-21)
(-3.17486 5.80532e-05 2.33683e-21)
(-3.17012 5.91853e-05 1.98986e-21)
(-3.16471 5.95174e-05 3.37515e-21)
(-3.15864 5.99105e-05 2.84886e-21)
(-3.15185 6.11348e-05 2.39117e-21)
(-3.14435 6.24646e-05 0)
(-3.13605 6.39643e-05 3.29789e-21)
(-3.12706 6.72471e-05 0)
(-3.1173 7.01346e-05 -4.37396e-21)
(-3.10702 7.55334e-05 0)
(-3.09607 8.0664e-05 0)
(-3.08496 8.77253e-05 0)
(-3.07373 9.65253e-05 0)
(-3.06263 0.000107036 0)
(-3.05234 0.000116932 0)
(-3.04301 0.000128456 3.64129e-21)
(-3.03505 0.000137973 0)
(-3.02869 0.000145829 -1.03264e-21)
(-3.02497 0.000148434 -8.59854e-22)
(-3.02212 0.000148376 2.02804e-21)
(-3.02351 0.000133259 0)
(-3.02385 0.000119774 5.84757e-21)
(-3.03027 6.90803e-05 0)
(-3.03251 5.57024e-05 0)
(-3.04557 -9.72643e-05 0)
(-3.04544 -3.2699e-05 0)
(-3.07041 -0.000579874 0)
(-3.05755 3.23931e-05 0)
(-3.133 -0.00291759 -2.97901e-20)
(-2.90745 -0.00100951 0)
)
;
    }
    lowerWall
    {
        type            calculated;
        value           nonuniform List<vector> 
266
(
(-11.0578 -0.0050305 0)
(-6.34361 -0.00121979 0)
(-5.51178 -0.000268486 0)
(-5.03732 -0.000149013 0)
(-4.74511 -9.21251e-05 0)
(-4.55646 -6.17855e-05 0)
(-4.42541 -4.44858e-05 0)
(-4.32971 -3.36067e-05 0)
(-4.25778 -2.62384e-05 0)
(-4.20233 -2.10317e-05 0)
(-4.15865 -1.72041e-05 0)
(-4.12371 -1.43029e-05 0)
(-4.09538 -1.20335e-05 0)
(-4.07223 -1.02485e-05 0)
(-4.053 -8.79629e-06 0)
(-4.03708 -7.60535e-06 0)
(-4.02367 -6.62601e-06 0)
(-4.01241 -5.79088e-06 0)
(-4.00285 -5.11282e-06 0)
(-3.99468 -4.5262e-06 0)
(-3.98771 -4.01441e-06 0)
(-3.98173 -3.59407e-06 0)
(-3.97653 -3.22906e-06 0)
(-3.97205 -2.90098e-06 0)
(-3.96814 -2.62611e-06 0)
(-3.96473 -2.38171e-06 0)
(-3.96175 -2.17362e-06 0)
(-3.95911 -1.98764e-06 0)
(-3.9568 -1.82511e-06 0)
(-3.95473 -1.68132e-06 0)
(-3.95291 -1.5563e-06 0)
(-3.95127 -1.4435e-06 0)
(-3.94982 -1.34273e-06 0)
(-3.94851 -1.24957e-06 0)
(-3.94735 -1.16688e-06 0)
(-3.9463 -1.09089e-06 0)
(-3.94537 -1.01704e-06 0)
(-3.94452 -9.4055e-07 0)
(-3.94379 -8.66529e-07 0)
(-3.94314 -7.83102e-07 0)
(-3.9426 -6.99964e-07 0)
(-3.94214 -5.99471e-07 0)
(-3.94181 -4.87442e-07 0)
(-3.94155 -3.54661e-07 0)
(-3.94146 -1.97242e-07 0)
(-3.94147 5.10802e-09 0)
(-3.94167 2.56509e-07 0)
(-3.94203 5.57732e-07 0)
(-3.94263 9.06704e-07 0)
(-3.94344 1.33078e-06 0)
(-3.94455 1.86356e-06 0)
(-3.94595 2.49287e-06 0)
(-3.94773 3.27206e-06 0)
(-3.94991 4.17531e-06 0)
(-3.95256 5.28788e-06 0)
(-3.95575 6.53899e-06 0)
(-3.95949 8.12775e-06 0)
(-3.96395 9.87886e-06 0)
(-3.96909 1.2095e-05 0)
(-3.97513 1.44997e-05 0)
(-3.98206 1.75546e-05 0)
(-3.9901 2.07599e-05 0)
(-3.99928 2.47078e-05 0)
(-4.00809 2.94502e-05 0)
(-4.01558 3.42942e-05 0)
(-4.02361 3.89015e-05 0)
(-4.03208 4.4102e-05 0)
(-4.0412 4.89671e-05 0)
(-4.0507 5.43919e-05 0)
(-4.06082 6.01034e-05 0)
(-4.07147 6.63894e-05 0)
(-4.08275 7.21222e-05 0)
(-4.09469 7.9144e-05 0)
(-4.10725 8.52556e-05 0)
(-4.12065 9.43974e-05 0)
(-4.13463 0.000101931 0)
(-4.14991 0.000115804 0)
(-4.16542 0.000122996 0)
(-4.18356 0.000147311 0)
(-4.20091 0.000147755 0)
(-4.22445 0.00019107 0)
(-4.24314 0.000184412 0)
(-4.27931 0.000239306 0)
(-4.29359 0.000281619 0)
(-4.36201 0.000401479 0)
(-4.37282 0.00137324 0)
(-4.56031 -0.0036375 0)
(-4.168 0.124068 0)
(5.45306 -585.626 0)
(-0.0059036 -0.000729262 0)
(-0.00459682 -0.000205404 8.89303e-24)
(-0.00360518 0.000152044 -7.61979e-24)
(-0.00233493 0.000349593 -0)
(-0.00289177 0.000521018 0)
(-0.00316424 0.000677515 0)
(-0.00313431 0.000808514 0)
(-0.00300516 0.000909059 0)
(-0.00286573 0.000987181 -1.82948e-22)
(-0.0027047 0.00105069 2.09121e-22)
(-0.00251019 0.00110425 -4.88473e-22)
(-0.0022822 0.00115073 6.10811e-22)
(-0.0020238 0.00119227 -0)
(-0.00173831 0.00123057 2.082e-21)
(-0.00143018 0.00126717 -2.87854e-21)
(-0.00110387 0.00130363 -0)
(-0.000757152 0.00134025 0)
(-0.000366718 0.00136907 -0)
(0.000132682 0.00135201 5.90157e-20)
(0.000863232 0.00117286 -9.88685e-20)
(0.001986 0.000564084 3.50954e-19)
(0.00365836 -0.000987189 -6.62208e-19)
(0.00592764 -0.00452796 0)
(0.00827706 -0.0101869 2.33872e-18)
(0.00902329 -0.0160968 -1.85768e-18)
(0.00853109 -0.0212843 0)
(0.00714433 -0.0256143 0)
(0.00494212 -0.0288873 0)
(0.00228618 -0.030615 0)
(-5.2751e-05 -0.0304558 0)
(0.000422886 -0.0256013 0)
(0.00736326 -0.024641 -1.57067e-18)
(0.00921404 -0.0328956 -2.5604e-21)
(0.00472941 -0.0381937 1.28412e-18)
(0.00193365 -0.0365467 0)
(0.000608241 -0.0339795 0)
(-0.00134348 -0.0386031 0)
(-0.00742459 -0.0518689 0)
(-0.0167042 -0.067068 0)
(-0.0301706 -0.0850117 2.90087e-19)
(-0.0475048 -0.114235 -2.47513e-19)
(-0.0723978 -0.181049 -0)
(-0.112493 -0.31207 0)
(-0.172967 -0.485828 0)
(-0.247681 -0.639785 -1.12928e-19)
(-0.320208 -0.753962 1.15757e-19)
(-0.380316 -0.884907 0)
(-0.193687 -0.0245605 0)
(0.121609 -0.00485788 -3.16337e-22)
(-0.0102605 -0.000293666 -0)
(-0.00184152 -1.80723e-05 -3.06269e-22)
(-0.0104136 -1.52795e-05 -0)
(-0.0106402 2.69765e-05 0)
(-0.0032427 6.54368e-05 0)
(0.00639626 8.02686e-05 0)
(0.0163545 9.16744e-05 0)
(0.0290977 0.000107806 -3.57096e-22)
(0.0441918 0.00012747 0)
(0.0617665 0.000147663 0)
(0.0815792 0.00017232 0)
(0.103761 0.000182026 0)
(0.125737 -0.00132232 0)
(3.20375 -0.0490054 0)
(0.184609 -0.000886904 0)
(0.218214 -0.000195431 0)
(0.256184 -0.00021322 0)
(0.298154 -0.000231084 0)
(0.344518 -0.000255287 2.38747e-22)
(0.396192 -0.000288392 0)
(0.453208 -0.000321069 2.38899e-22)
(0.515565 -0.000352018 0)
(0.582908 -0.000375555 2.39066e-22)
(0.655068 -0.000396341 0)
(0.73195 -0.00041692 2.3911e-22)
(0.813567 -0.000442952 0)
(0.899748 -0.000473435 0)
(0.990066 -0.000507539 0)
(1.08372 -0.000539684 2.38078e-22)
(1.17971 -0.000565767 2.37388e-22)
(1.27694 -0.000584399 2.36455e-22)
(1.3744 -0.00059339 2.3526e-22)
(1.47125 -0.000596146 2.33792e-22)
(1.56676 -0.000592877 0)
(1.66041 -0.000586575 0)
(1.75171 -0.000579482 2.27737e-22)
(1.8402 -0.000572087 2.25169e-22)
(1.92548 -0.000567876 2.22315e-22)
(2.00702 -0.000564922 2.19163e-22)
(2.08417 -0.000563516 2.15699e-22)
(2.15582 -0.00056301 2.11909e-22)
(2.22154 -0.000565683 0)
(2.28127 -0.000570661 2.03276e-22)
(2.3343 -0.000569509 1.98414e-22)
(2.38 -0.000565896 1.93194e-22)
(2.41783 -0.000552421 1.87634e-22)
(2.44734 -0.000535529 1.81758e-22)
(2.46821 -0.000509085 1.75603e-22)
(2.48025 -0.000480164 0)
(2.48332 -0.00044542 1.62616e-22)
(2.47745 -0.000409782 1.5587e-22)
(2.46261 -0.000372889 1.49009e-22)
(2.4389 -0.000336218 1.4207e-22)
(2.40638 -0.000301122 1.35082e-22)
(2.36504 -0.000266174 1.28075e-22)
(2.31497 -0.000233386 0)
(2.25609 -0.000199203 1.14077e-22)
(2.18838 -0.000164936 0)
(2.11173 -0.000126953 0)
(2.02604 -8.4674e-05 0)
(1.93117 -3.54385e-05 -8.65584e-23)
(1.8269 2.32811e-05 -0)
(1.71319 9.30403e-05 0)
(1.58932 0.000179453 0)
(1.45562 0.000280696 0)
(1.31043 0.000406458 0)
(1.1555 0.000554259 0)
(0.984749 0.000747847 -4.22901e-23)
(0.803628 0.00421126 -0)
(0.767843 0.0077488 0)
(0.523117 -0.0058342 0)
(0.250603 -0.00560222 -4.25621e-23)
(-0.0176565 -0.00080764 -0)
(-0.231704 0.0015645 0)
(-0.422485 0.0012022 0)
(-0.603302 0.00100784 0)
(-0.771578 0.00084149 0)
(-0.930063 0.000700998 -0)
(-1.07848 0.00058421 2.08688e-24)
(-1.2182 0.000486535 0)
(-1.34939 0.000406452 -0)
(-1.47304 0.000340149 1.0507e-23)
(-1.58916 0.000285747 -0)
(-1.69889 0.000241532 1.53757e-23)
(-1.80156 0.000203693 0)
(-1.89922 0.000175698 0)
(-1.98964 0.000146861 -2.15335e-23)
(-2.07707 0.000132609 -0)
(-2.15578 0.000104896 2.49322e-23)
(-2.23525 0.000107014 0)
(-2.30185 6.93376e-05 -0)
(-2.37662 9.69821e-05 0)
(-2.42902 3.4217e-05 0)
(-2.50412 9.48132e-05 -0)
(-2.54004 -1.47774e-06 3.20435e-23)
(-2.59086 0.000204942 0)
(-2.6491 7.42976e-05 -0)
(-2.68756 0.000127892 4.12118e-21)
(-2.74624 8.7113e-05 7.28976e-21)
(-2.79647 8.67429e-05 0)
(-2.85568 7.14092e-05 0)
(-2.91269 6.26975e-05 0)
(-2.97262 5.28876e-05 -0)
(-3.03077 4.54396e-05 0)
(-3.08769 4.04391e-05 -1.4035e-20)
(-3.14039 3.86387e-05 0)
(-3.18801 4.05956e-05 -2.11204e-20)
(-3.22754 4.66381e-05 1.80666e-20)
(-3.25866 5.64028e-05 0)
(-3.27797 6.97993e-05 0)
(-3.28797 8.49967e-05 -0)
(-3.2841 0.000101403 3.42778e-20)
(-3.27401 0.000116751 -2.75873e-20)
(-3.25011 0.000130267 0)
(-3.2279 0.000141234 3.45747e-20)
(-3.19267 0.000147986 0)
(-3.17114 0.000155397 4.22789e-20)
(-3.13598 0.000155628 0)
(-3.12875 0.000167588 0)
(-3.103 0.000162648 0)
(-3.11763 0.000194089 0)
(-3.10365 0.000179598 0)
(-3.1377 0.000251216 8.48169e-20)
(-3.12985 0.000205551 -4.27776e-20)
(-3.16977 0.000348401 0)
(-3.16989 0.000231466 9.69897e-21)
(-3.17136 0.000462818 0)
(-3.24056 9.03409e-05 0)
)
;
    }
    front
    {
        type            empty;
    }
    back
    {
        type            empty;
    }
}


// ************************************************************************* //
