0.0508 	-151.597 	48.2243 	-0.198752 	0 	-0.0268014 	-1.097 	0 	0.0268589 	0 	-5.75409e-05
