0 	35.6992 	0 	0 	0 	-0.000124696 	-3.18039 	-8.62166e-23 	4.37453e-05 	4.33511e-22 	8.09505e-05
1.37955e-05 	35.6994 	2.47159 	-4.29003e-05 	5.36036e-23 	-0.000377229 	-3.49168 	-1.39202e-23 	0.000359663 	5.66391e-21 	1.7567e-05
2.92331e-05 	35.6989 	4.70325 	-0.00025875 	-9.23247e-21 	-0.00101902 	-2.94694 	-8.66253e-21 	0.00104776 	1.99052e-21 	-2.87362e-05
4.65113e-05 	35.697 	6.78929 	-0.000833698 	-2.6241e-21 	-0.00299431 	-3.08505 	3.75955e-21 	0.00303165 	-5.72798e-21 	-3.73358e-05
6.58528e-05 	35.6925 	8.32877 	-0.00195497 	-2.42726e-21 	-0.00753143 	-3.21872 	-3.98282e-20 	0.00755962 	-7.53564e-21 	-2.81912e-05
8.75077e-05 	35.6843 	9.37163 	-0.00368722 	3.01099e-21 	-0.0158792 	-3.26899 	1.01033e-19 	0.0158758 	-1.13854e-20 	3.37054e-06
0.000111757 	35.6713 	10.096 	-0.00604533 	3.71778e-21 	-0.0289813 	-3.28707 	-6.37631e-20 	0.0289443 	3.85785e-20 	3.69499e-05
0.000138915 	35.6529 	10.6291 	-0.00904473 	-9.31852e-21 	-0.0473795 	-3.29937 	-2.40883e-19 	0.0473284 	-4.24281e-21 	5.10667e-05
0.000169336 	35.6289 	11.0451 	-0.0127102 	2.55906e-21 	-0.0713637 	-3.31686 	1.82111e-19 	0.0713179 	-7.44107e-20 	4.58568e-05
0.000203417 	35.5989 	11.3864 	-0.0170794 	7.94223e-21 	-0.101186 	-3.34377 	6.61458e-19 	0.101153 	3.43802e-20 	3.31904e-05
0.000241604 	35.5627 	11.678 	-0.0222047 	-3.41686e-21 	-0.137168 	-3.38151 	-6.00753e-19 	0.137146 	4.79779e-20 	2.20004e-05
0.000284398 	35.5197 	11.9354 	-0.0281543 	5.19215e-22 	-0.179713 	-3.43062 	3.7302e-19 	0.179699 	-1.29548e-19 	1.45902e-05
0.000332361 	35.4694 	12.1686 	-0.0350117 	1.44357e-20 	-0.229272 	-3.49165 	2.6638e-18 	0.229262 	2.10307e-20 	9.97459e-06
0.000386126 	35.4113 	12.3845 	-0.0428756 	-3.69487e-21 	-0.286309 	-3.56545 	-1.09443e-18 	0.286302 	2.11185e-19 	6.88598e-06
0.000446401 	35.3448 	12.5885 	-0.0518605 	-9.60299e-21 	-0.351272 	-3.65318 	-2.32956e-18 	0.351268 	-1.22621e-19 	4.61711e-06
0.000513985 	35.2694 	12.7843 	-0.0620968 	1.10797e-20 	-0.424561 	-3.75634 	3.62649e-18 	0.424558 	-1.28759e-19 	2.86472e-06
0.000589773 	35.1845 	12.9752 	-0.0737326 	4.85675e-22 	-0.50649 	-3.87675 	-1.63776e-19 	0.506488 	1.75364e-19 	1.50411e-06
0.000674771 	35.0898 	13.1641 	-0.0869349 	-5.73947e-21 	-0.597254 	-4.01652 	-1.85653e-18 	0.597253 	6.33797e-20 	4.92649e-07
0.000770111 	34.9848 	13.3533 	-0.101891 	-4.59073e-21 	-0.696879 	-4.17814 	-2.06074e-18 	0.696879 	-9.26717e-20 	-1.56512e-07
0.000877061 	34.8693 	13.5455 	-0.11881 	5.25055e-21 	-0.805175 	-4.36441 	2.58583e-18 	0.805175 	-4.11061e-20 	-3.80623e-07
0.000997051 	34.7433 	13.743 	-0.137926 	-4.34677e-21 	-0.921679 	-4.5785 	-2.2564e-18 	0.921679 	2.00645e-19 	-7.65899e-08
0.00113168 	34.6069 	13.9486 	-0.159497 	-9.17981e-21 	-1.0456 	-4.82394 	-4.17115e-18 	1.0456 	3.88556e-21 	8.48685e-07
0.00128277 	34.4603 	14.165 	-0.183807 	5.57947e-23 	-1.17574 	-5.10463 	-1.18769e-19 	1.17574 	1.17245e-19 	2.39589e-06
0.00145232 	34.3042 	14.3957 	-0.211169 	-2.03923e-20 	-1.31048 	-5.42477 	-1.00908e-17 	1.31048 	-2.03796e-20 	4.74172e-06
0.00164263 	34.1392 	14.6443 	-0.241922 	1.86638e-20 	-1.44766 	-5.78886 	8.51155e-18 	1.44765 	-5.2412e-19 	9.63151e-06
0.00185625 	33.9663 	14.9154 	-0.276427 	1.04341e-20 	-1.58456 	-6.20153 	5.20838e-18 	1.58455 	2.43291e-19 	1.73176e-05
0.00209606 	33.7864 	15.2144 	-0.31507 	-9.13246e-21 	-1.71785 	-6.66728 	-4.41078e-18 	1.71782 	-8.42647e-20 	2.26299e-05
0.0023653 	33.6007 	15.5475 	-0.358246 	3.11844e-20 	-1.84358 	-7.19032 	1.34305e-17 	1.84356 	-4.63175e-19 	2.60608e-05
0.0026676 	33.41 	15.9228 	-0.406351 	-9.53451e-22 	-1.95722 	-7.77409 	4.48147e-19 	1.95718 	5.1378e-19 	3.39485e-05
0.00300706 	33.215 	16.3498 	-0.459759 	-2.24615e-20 	-2.05345 	-8.42032 	-8.78458e-18 	2.05341 	2.43308e-19 	4.3073e-05
0.00338828 	33.0159 	16.8401 	-0.518793 	0 	-2.12624 	-9.12809 	-1.79773e-20 	2.12619 	-6.823e-19 	5.00545e-05
0.00381642 	32.8125 	17.4081 	-0.583674 	6.06524e-20 	-2.16878 	-9.89228 	1.90916e-17 	2.16872 	-7.14946e-19 	5.99785e-05
0.0042973 	32.6036 	18.0712 	-0.654453 	-4.18567e-21 	-2.17343 	-10.7011 	1.57421e-18 	2.17336 	1.2429e-18 	6.40619e-05
0.00483747 	32.3869 	18.8509 	-0.730909 	-1.21482e-19 	-2.13156 	-11.5327 	-3.23971e-17 	2.13147 	1.81963e-18 	8.76452e-05
0.00544427 	32.1687 	19.7324 	-0.808983 	-8.21512e-20 	-2.03914 	-12.3169 	-2.3142e-17 	2.03909 	1.78159e-19 	4.46676e-05
0.00602098 	31.9606 	20.664 	-0.882535 	4.86808e-22 	-1.90359 	-12.9713 	-1.54638e-18 	1.90358 	-6.48986e-19 	1.14703e-05
0.00660124 	31.7607 	21.6345 	-0.950102 	3.05832e-20 	-1.73287 	-13.4645 	7.30147e-18 	1.73284 	-9.56059e-19 	2.66493e-05
0.00718535 	31.5614 	22.6582 	-1.01214 	1.09445e-19 	-1.53266 	-13.7852 	3.24421e-17 	1.53263 	-1.28124e-18 	2.35799e-05
0.00777365 	31.3578 	23.7351 	-1.06799 	-2.71405e-21 	-1.31123 	-13.9109 	-1.02633e-19 	1.31116 	1.29127e-18 	6.71495e-05
0.00836651 	31.145 	24.8638 	-1.11701 	-9.59573e-20 	-1.07707 	-13.8142 	-2.92395e-17 	1.07698 	9.87986e-19 	8.85048e-05
0.00896431 	30.9172 	26.0407 	-1.15858 	5.79233e-20 	-0.840504 	-13.4748 	1.4573e-17 	0.840418 	-1.53202e-18 	8.61716e-05
0.00956749 	30.6679 	27.2587 	-1.19219 	4.66282e-20 	-0.613024 	-12.8771 	1.19272e-17 	0.612937 	-1.32292e-19 	8.78249e-05
0.0101765 	30.3899 	28.5052 	-1.21751 	-1.12458e-20 	-0.406898 	-12.0184 	-2.20517e-18 	0.406828 	2.12897e-19 	7.03515e-05
0.0107919 	30.0755 	29.7592 	-1.23459 	5.59122e-22 	-0.234224 	-10.9187 	-1.83598e-19 	0.234212 	-1.01033e-19 	1.21169e-05
0.0114142 	29.7166 	30.9896 	-1.2441 	1.21975e-20 	-0.105075 	-9.63503 	2.07883e-18 	0.105177 	7.35755e-19 	-0.000101579
0.012044 	29.3051 	32.1551 	-1.24757 	-1.9201e-19 	-0.0247754 	-8.26929 	-3.45854e-17 	0.0250434 	1.42102e-18 	-0.000267959
0.0126819 	28.8352 	33.2103 	-1.24741 	2.16995e-21 	0.00849892 	-6.95681 	-1.10897e-18 	-0.00808065 	-2.27088e-18 	-0.000418265
0.0133287 	28.3044 	34.121 	-1.24646 	4.81533e-19 	0.00389082 	-5.82515 	8.91747e-17 	-0.00352156 	-4.14599e-18 	-0.000369261
0.0139851 	27.7292 	34.8643 	-1.24693 	2.82065e-19 	-0.0244452 	-4.95798 	5.67166e-17 	0.024453 	8.28499e-19 	-7.81707e-06
0.0145992 	27.1299 	35.4578 	-1.24972 	-2.64337e-19 	-0.0609437 	-4.35234 	-6.44519e-17 	0.0606936 	4.32192e-18 	0.000250062
0.0152409 	26.499 	35.9584 	-1.25472 	-2.58946e-19 	-0.0943727 	-3.93824 	-6.52404e-17 	0.0941228 	3.85146e-19 	0.000249905
0.0159119 	25.8275 	36.4062 	-1.26146 	2.05856e-19 	-0.11899 	-3.6566 	6.52089e-17 	0.118789 	-4.28094e-18 	0.000200558
0.016614 	25.1188 	36.8203 	-1.26931 	1.99167e-19 	-0.132707 	-3.46753 	6.54646e-17 	0.132607 	-7.79573e-19 	9.97013e-05
0.0173491 	24.3726 	37.2143 	-1.27766 	-1.98887e-19 	-0.136857 	-3.33798 	-6.49143e-17 	0.136843 	5.49735e-18 	1.40803e-05
0.018119 	23.5871 	37.5967 	-1.28606 	-5.66364e-19 	-0.134173 	-3.24424 	-2.02681e-16 	0.1342 	7.20307e-18 	-2.67261e-05
0.0189258 	22.7598 	37.9724 	-1.29421 	-1.9217e-19 	-0.127152 	-3.17093 	-7.26544e-17 	0.127184 	-6.06498e-19 	-3.23867e-05
0.0197718 	21.8882 	38.344 	-1.30193 	1.89092e-19 	-0.117437 	-3.1087 	6.36893e-17 	0.117463 	-4.4286e-18 	-2.5456e-05
0.0206593 	20.9706 	38.7132 	-1.30907 	3.32964e-19 	-0.10592 	-3.05203 	1.33967e-16 	0.105939 	-6.31217e-18 	-1.92376e-05
0.0215907 	20.0051 	39.0809 	-1.31554 	6.34924e-19 	-0.0930501 	-2.99753 	2.73937e-16 	0.093068 	-7.01363e-18 	-1.79179e-05
0.0225687 	18.9901 	39.4477 	-1.32123 	-2.69472e-19 	-0.0790902 	-2.94304 	-1.23641e-16 	0.0791134 	8.96699e-18 	-2.32192e-05
0.023596 	17.9241 	39.8141 	-1.32607 	-5.7133e-19 	-0.0642772 	-2.88699 	-2.63289e-16 	0.064305 	8.00239e-18 	-2.78312e-05
0.0246755 	16.7665 	40.1926 	-1.33009 	1.85753e-20 	-0.048045 	-2.82657 	-6.05616e-19 	0.0480891 	-2.47219e-18 	-4.41009e-05
0.0259626 	15.4696 	40.5958 	-1.33311 	1.1489e-19 	-0.0297313 	-2.75841 	5.2231e-17 	0.0297827 	-2.69491e-18 	-5.13961e-05
0.0273361 	14.0585 	41.0127 	-1.33475 	3.0488e-19 	-0.00999152 	-2.68258 	1.64085e-16 	0.0100379 	-4.90335e-18 	-4.63913e-05
0.0288025 	12.5636 	41.4321 	-1.33472 	-6.24032e-20 	0.0106012 	-2.59977 	-4.52903e-17 	-0.0105497 	3.1387e-18 	-5.14668e-05
0.030369 	10.9829 	41.8532 	-1.33279 	-2.53575e-19 	0.0320722 	-2.50899 	-1.58276e-16 	-0.0320156 	4.61228e-18 	-5.65354e-05
0.0320431 	9.31517 	42.2747 	-1.32872 	1.37238e-19 	0.0544438 	-2.40919 	1.00489e-16 	-0.0543931 	-3.81917e-18 	-5.06613e-05
0.033833 	7.56041 	42.6944 	-1.32223 	-1.06365e-21 	0.0777709 	-2.29934 	-4.13974e-17 	-0.0777289 	1.81808e-18 	-4.19585e-05
0.0357475 	5.72679 	43.1077 	-1.31305 	-7.30752e-20 	0.102165 	-2.17906 	-5.48366e-17 	-0.1021 	1.42666e-18 	-6.52111e-05
0.0377646 	3.82689 	43.5085 	-1.30094 	6.44763e-20 	0.127841 	-2.04856 	1.03963e-16 	-0.127763 	-3.42487e-18 	-7.73663e-05
0.0399122 	1.86237 	43.8922 	-1.28558 	-4.57987e-21 	0.155522 	-1.90772 	-9.2009e-17 	-0.155453 	2.71414e-18 	-6.94813e-05
0.0422027 	-0.166244 	44.2536 	-1.26658 	8.34203e-21 	0.186613 	-1.75641 	-6.07036e-17 	-0.186547 	1.67994e-18 	-6.64944e-05
0.0446494 	-2.25171 	44.5848 	-1.2435 	1.65241e-20 	0.223219 	-1.59453 	5.85614e-17 	-0.223168 	-1.80707e-18 	-5.04499e-05
0.0472662 	-4.3833 	44.877 	-1.21586 	3.95813e-20 	0.268421 	-1.42061 	-3.71458e-17 	-0.268399 	1.00111e-18 	-2.15113e-05
0.0500679 	-6.54714 	45.1216 	-1.18315 	-5.48373e-20 	0.325802 	-1.22914 	1.10353e-16 	-0.325883 	-2.30892e-18 	8.07845e-05
0.05307 	-8.72775 	45.3109 	-1.14477 	-1.06642e-19 	0.398569 	-1.01097 	1.27951e-16 	-0.398792 	-3.5641e-18 	0.000223222
0.0562894 	-10.9153 	45.4398 	-1.10017 	4.41167e-20 	0.483182 	-0.749923 	-8.13428e-17 	-0.48315 	1.82235e-18 	-3.2246e-05
0.0597436 	-13.1185 	45.5052 	-1.04907 	-7.68909e-20 	0.556558 	-0.422425 	5.83272e-17 	-0.555902 	-7.74988e-19 	-0.00065601
0.0634517 	-15.3538 	45.5006 	-0.991313 	-5.20958e-20 	0.579763 	-0.0231536 	4.66182e-17 	-0.579136 	-1.41045e-18 	-0.000626284
0.0674339 	-17.6014 	45.4054 	-0.926369 	1.19506e-19 	0.544692 	0.414771 	-8.84406e-17 	-0.544742 	1.61053e-18 	5.05553e-05
0.0717118 	-19.7957 	45.1746 	-0.853437 	5.20956e-20 	0.485814 	0.853144 	-2.66463e-17 	-0.486077 	7.07441e-19 	0.000263114
0.0763087 	-21.8703 	44.7425 	-0.771915 	1.75545e-21 	0.434886 	1.27889 	-8.09749e-19 	-0.435009 	4.88099e-20 	0.000123016
0.0812495 	-23.779 	44.0421 	-0.68111 	3.29217e-20 	0.400477 	1.69166 	-6.89622e-18 	-0.400531 	7.00558e-20 	5.3098e-05
0.0865609 	-25.4877 	43.0181 	-0.581107 	4.30735e-20 	0.376183 	2.08646 	-8.71014e-18 	-0.376233 	2.40027e-19 	5.04295e-05
0.0922714 	-26.8483 	41.7438 	-0.480854 	-1.13308e-19 	0.354039 	2.43047 	1.87094e-17 	-0.353973 	-1.80093e-19 	-6.59491e-05
0.0960782 	-27.7182 	40.5113 	-0.399292 	-6.44441e-20 	0.329715 	2.69474 	1.115e-17 	-0.32964 	-2.6586e-19 	-7.49274e-05
0.0992295 	-28.287 	39.3314 	-0.333211 	-1.50907e-21 	0.302551 	2.92018 	-1.28785e-18 	-0.302578 	-7.68392e-20 	2.65819e-05
0.101838 	-28.6872 	38.137 	-0.276281 	3.00858e-20 	0.275939 	3.12657 	-2.46142e-18 	-0.275941 	-3.56477e-20 	2.49972e-06
