/*--------------------------------*- C++ -*----------------------------------*\
| =========                 |                                                 |
| \\      /  F ield         | OpenFOAM: The Open Source CFD Toolbox           |
|  \\    /   O peration     | Version:  2306                                  |
|   \\  /    A nd           | Website:  www.openfoam.com                      |
|    \\/     M anipulation  |                                                 |
\*---------------------------------------------------------------------------*/
FoamFile
{
    version     2.0;
    format      ascii;
    arch        "LSB;label=32;scalar=64";
    class       volScalarField;
    location    "2000";
    object      cp;
}
// * * * * * * * * * * * * * * * * * * * * * * * * * * * * * * * * * * * * * //

dimensions      [0 0 0 0 0 0 0];

internalField   nonuniform List<scalar> 
20540
(
1.27171
0.0992992
1.27169
0.031229
1.27167
-0.00838647
1.27163
-0.0217984
1.27158
-0.0269831
1.27152
-0.030807
1.27144
-0.0340942
1.27134
-0.0367904
1.27122
-0.039014
1.27106
-0.0409136
1.27086
-0.0425804
1.27062
-0.0440633
1.27031
-0.0453911
1.26994
-0.046581
1.26949
-0.0476412
1.26893
-0.0485717
1.26826
-0.0493639
1.26745
-0.05
1.26646
-0.0504509
1.26529
-0.0506731
1.2639
-0.0506047
1.26227
-0.0501609
1.2604
-0.049228
1.25829
-0.0476593
1.25603
-0.045273
1.25372
-0.0418543
1.25165
-0.0371628
1.25028
-0.0309852
1.25031
-0.0233863
1.25226
-0.0152915
1.25534
-0.00938886
1.25741
-0.00642298
1.25728
-0.00684097
1.25502
-0.0105696
1.25204
-0.0170734
1.25033
-0.0253614
1.25047
-0.0330344
1.25195
-0.0393005
1.25409
-0.0441182
1.25645
-0.0476852
1.25877
-0.0502257
1.26093
-0.0519446
1.26287
-0.0530186
1.26456
-0.0535929
1.26601
-0.0537815
1.26724
-0.0536715
1.26827
-0.053327
1.26914
-0.0527945
1.26985
-0.0521064
1.27045
-0.0512838
1.27094
-0.050339
1.27134
-0.0492765
1.27168
-0.0480936
1.27195
-0.0467801
1.27217
-0.0453175
1.27235
-0.0436763
1.27249
-0.0418067
1.27261
-0.0396172
1.2727
-0.0369603
1.27277
-0.0337205
1.27283
-0.0299424
1.27287
-0.0247459
1.2729
-0.0112046
1.27293
0.0283462
1.27295
0.0955041
-0.03002
-0.00614642
-0.0426625
-0.035638
-0.0490408
-0.0509481
-0.0574637
-0.0614841
-0.0660736
-0.0701069
-0.0740145
-0.0776871
-0.0811804
-0.0844957
-0.087652
-0.0906547
-0.0935186
-0.0962478
-0.0988534
-0.10134
-0.103716
-0.105986
-0.108157
-0.110232
-0.112217
-0.114115
-0.115933
-0.117672
-0.119337
-0.120932
-0.122459
-0.123922
-0.125324
-0.126667
-0.127955
-0.12919
-0.130375
-0.131512
-0.132604
-0.133654
-0.134665
-0.135638
-0.136579
-0.137489
-0.138372
-0.139233
-0.140075
-0.140905
-0.141727
-0.142547
-0.143374
-0.144214
-0.145076
-0.145969
-0.146903
-0.147891
-0.148944
-0.150081
-0.151315
-0.152672
-0.154166
-0.155832
-0.157683
-0.159417
-0.160877
-0.162414
-0.164039
-0.16576
-0.167571
-0.169488
-0.171505
-0.17364
-0.175886
-0.178261
-0.180757
-0.183405
-0.186189
-0.189177
-0.192329
-0.195798
-0.199454
-0.203671
-0.208026
-0.213535
-0.218889
-0.227427
-0.234326
-0.258169
-0.030055
-0.00614618
-0.0426619
-0.0356376
-0.0490405
-0.0509479
-0.0574635
-0.0614839
-0.0660735
-0.0701068
-0.0740144
-0.077687
-0.0811803
-0.0844956
-0.0876519
-0.0906546
-0.0935186
-0.0962478
-0.0988533
-0.10134
-0.103716
-0.105986
-0.108157
-0.110232
-0.112217
-0.114115
-0.115933
-0.117672
-0.119337
-0.120932
-0.122459
-0.123922
-0.125324
-0.126667
-0.127955
-0.12919
-0.130375
-0.131512
-0.132604
-0.133654
-0.134665
-0.135638
-0.136579
-0.137489
-0.138372
-0.139233
-0.140075
-0.140905
-0.141727
-0.142547
-0.143374
-0.144214
-0.145076
-0.145969
-0.146903
-0.147891
-0.148944
-0.150081
-0.151315
-0.152672
-0.154166
-0.155832
-0.157683
-0.159417
-0.160877
-0.162414
-0.16404
-0.16576
-0.167572
-0.169488
-0.171505
-0.17364
-0.175886
-0.178261
-0.180757
-0.183406
-0.18619
-0.189178
-0.192329
-0.195799
-0.199455
-0.203672
-0.208027
-0.213536
-0.218889
-0.227435
-0.234316
-0.257862
-0.0301194
-0.00614711
-0.0426612
-0.0356369
-0.0490399
-0.0509474
-0.0574632
-0.0614836
-0.0660732
-0.0701066
-0.0740141
-0.0776868
-0.0811801
-0.0844955
-0.0876517
-0.0906545
-0.0935184
-0.0962476
-0.0988532
-0.10134
-0.103716
-0.105986
-0.108156
-0.110231
-0.112216
-0.114115
-0.115933
-0.117672
-0.119337
-0.120932
-0.122459
-0.123922
-0.125324
-0.126667
-0.127955
-0.12919
-0.130375
-0.131512
-0.132604
-0.133654
-0.134665
-0.135638
-0.136579
-0.137489
-0.138372
-0.139233
-0.140075
-0.140905
-0.141727
-0.142547
-0.143374
-0.144214
-0.145075
-0.145969
-0.146903
-0.147891
-0.148944
-0.150081
-0.151315
-0.152672
-0.154166
-0.155832
-0.157684
-0.159417
-0.160877
-0.162414
-0.16404
-0.165761
-0.167572
-0.169489
-0.171506
-0.173641
-0.175886
-0.178262
-0.180758
-0.183406
-0.186191
-0.189179
-0.19233
-0.1958
-0.199456
-0.203674
-0.208028
-0.21354
-0.218888
-0.227447
-0.234301
-0.257396
-0.030214
-0.00615039
-0.0426606
-0.0356359
-0.0490391
-0.0509467
-0.0574625
-0.0614831
-0.0660728
-0.0701062
-0.0740138
-0.0776864
-0.0811798
-0.0844952
-0.0876515
-0.0906542
-0.0935182
-0.0962474
-0.098853
-0.10134
-0.103716
-0.105986
-0.108156
-0.110231
-0.112216
-0.114115
-0.115932
-0.117672
-0.119337
-0.120932
-0.122459
-0.123922
-0.125323
-0.126667
-0.127955
-0.12919
-0.130375
-0.131512
-0.132604
-0.133654
-0.134665
-0.135638
-0.136578
-0.137488
-0.138372
-0.139233
-0.140075
-0.140905
-0.141727
-0.142547
-0.143374
-0.144214
-0.145075
-0.145969
-0.146903
-0.147891
-0.148944
-0.150081
-0.151315
-0.152672
-0.154166
-0.155832
-0.157684
-0.159417
-0.160877
-0.162414
-0.16404
-0.165761
-0.167572
-0.169489
-0.171507
-0.173641
-0.175887
-0.178263
-0.180759
-0.183408
-0.186192
-0.189181
-0.192333
-0.195803
-0.199459
-0.203677
-0.208031
-0.213545
-0.218884
-0.227465
-0.234259
-0.256749
-0.03035
-0.00615823
-0.042661
-0.0356347
-0.0490379
-0.0509455
-0.0574616
-0.0614822
-0.066072
-0.0701055
-0.0740131
-0.0776858
-0.0811792
-0.0844947
-0.087651
-0.0906538
-0.0935178
-0.096247
-0.0988526
-0.101339
-0.103716
-0.105986
-0.108156
-0.110231
-0.112216
-0.114115
-0.115932
-0.117672
-0.119337
-0.120931
-0.122458
-0.123921
-0.125323
-0.126667
-0.127955
-0.12919
-0.130374
-0.131512
-0.132604
-0.133654
-0.134664
-0.135638
-0.136578
-0.137488
-0.138372
-0.139232
-0.140075
-0.140905
-0.141726
-0.142547
-0.143374
-0.144214
-0.145075
-0.145968
-0.146902
-0.14789
-0.148944
-0.150081
-0.151315
-0.152672
-0.154167
-0.155832
-0.157684
-0.159418
-0.160878
-0.162415
-0.164041
-0.165762
-0.167574
-0.16949
-0.171508
-0.173643
-0.175889
-0.178265
-0.180761
-0.18341
-0.186195
-0.189184
-0.192336
-0.195806
-0.199463
-0.203682
-0.208035
-0.213552
-0.218877
-0.227482
-0.234186
-0.255889
-0.0305387
-0.0061734
-0.0426636
-0.0356339
-0.0490366
-0.0509442
-0.0574603
-0.0614811
-0.0660709
-0.0701045
-0.0740122
-0.077685
-0.0811785
-0.084494
-0.0876503
-0.0906532
-0.0935172
-0.0962465
-0.0988521
-0.101339
-0.103715
-0.105985
-0.108155
-0.110231
-0.112216
-0.114114
-0.115932
-0.117671
-0.119336
-0.120931
-0.122458
-0.123921
-0.125323
-0.126666
-0.127954
-0.129189
-0.130374
-0.131511
-0.132604
-0.133654
-0.134664
-0.135638
-0.136578
-0.137488
-0.138371
-0.139232
-0.140075
-0.140904
-0.141726
-0.142547
-0.143373
-0.144213
-0.145075
-0.145968
-0.146902
-0.14789
-0.148944
-0.150081
-0.151316
-0.152672
-0.154167
-0.155833
-0.157685
-0.159418
-0.160879
-0.162416
-0.164042
-0.165763
-0.167575
-0.169492
-0.17151
-0.173645
-0.175891
-0.178267
-0.180764
-0.183413
-0.186198
-0.189187
-0.19234
-0.195811
-0.199467
-0.203687
-0.208038
-0.213558
-0.218866
-0.227484
-0.234077
-0.254761
-0.0307905
-0.00619852
-0.0426695
-0.0356342
-0.0490357
-0.0509428
-0.0574589
-0.0614797
-0.0660697
-0.0701033
-0.0740111
-0.077684
-0.0811775
-0.0844931
-0.0876495
-0.0906524
-0.0935164
-0.0962457
-0.0988514
-0.101338
-0.103715
-0.105985
-0.108155
-0.11023
-0.112215
-0.114114
-0.115931
-0.117671
-0.119336
-0.120931
-0.122458
-0.123921
-0.125322
-0.126666
-0.127954
-0.129189
-0.130374
-0.131511
-0.132603
-0.133653
-0.134664
-0.135637
-0.136578
-0.137488
-0.138371
-0.139232
-0.140074
-0.140904
-0.141726
-0.142547
-0.143373
-0.144213
-0.145075
-0.145968
-0.146902
-0.14789
-0.148944
-0.150081
-0.151316
-0.152672
-0.154167
-0.155833
-0.157685
-0.159419
-0.16088
-0.162417
-0.164043
-0.165765
-0.167576
-0.169494
-0.171512
-0.173647
-0.175894
-0.17827
-0.180767
-0.183417
-0.186202
-0.189191
-0.192344
-0.195816
-0.199472
-0.203691
-0.20804
-0.21356
-0.218849
-0.227458
-0.233928
-0.253337
-0.0311185
-0.00623594
-0.0426802
-0.0356361
-0.0490355
-0.0509415
-0.0574575
-0.0614782
-0.0660682
-0.0701019
-0.0740098
-0.0776827
-0.0811763
-0.084492
-0.0876484
-0.0906514
-0.0935155
-0.0962448
-0.0988506
-0.101337
-0.103714
-0.105984
-0.108154
-0.110229
-0.112214
-0.114113
-0.115931
-0.11767
-0.119335
-0.12093
-0.122457
-0.12392
-0.125322
-0.126665
-0.127953
-0.129188
-0.130373
-0.131511
-0.132603
-0.133653
-0.134663
-0.135637
-0.136577
-0.137487
-0.138371
-0.139231
-0.140074
-0.140904
-0.141726
-0.142546
-0.143373
-0.144213
-0.145075
-0.145968
-0.146902
-0.14789
-0.148944
-0.150081
-0.151316
-0.152673
-0.154168
-0.155834
-0.157686
-0.15942
-0.160881
-0.162418
-0.164045
-0.165766
-0.167578
-0.169496
-0.171514
-0.17365
-0.175897
-0.178273
-0.18077
-0.18342
-0.186205
-0.189196
-0.192348
-0.19582
-0.199476
-0.203694
-0.208039
-0.213556
-0.218823
-0.227387
-0.233731
-0.251617
-0.0315396
-0.00628832
-0.042697
-0.0356404
-0.0490364
-0.0509407
-0.0574562
-0.0614766
-0.0660666
-0.0701003
-0.0740083
-0.0776813
-0.0811749
-0.0844906
-0.0876471
-0.0906502
-0.0935143
-0.0962437
-0.0988495
-0.101336
-0.103713
-0.105983
-0.108153
-0.110228
-0.112214
-0.114112
-0.11593
-0.117669
-0.119334
-0.120929
-0.122456
-0.123919
-0.125321
-0.126665
-0.127953
-0.129188
-0.130373
-0.13151
-0.132602
-0.133652
-0.134663
-0.135636
-0.136577
-0.137487
-0.13837
-0.139231
-0.140074
-0.140903
-0.141725
-0.142546
-0.143372
-0.144213
-0.145074
-0.145968
-0.146902
-0.14789
-0.148944
-0.150081
-0.151316
-0.152673
-0.154168
-0.155834
-0.157687
-0.159421
-0.160882
-0.162419
-0.164046
-0.165768
-0.16758
-0.169498
-0.171516
-0.173652
-0.175899
-0.178276
-0.180773
-0.183423
-0.186209
-0.189199
-0.192351
-0.195823
-0.199478
-0.203694
-0.208034
-0.21354
-0.218784
-0.227251
-0.233467
-0.249616
-0.0320745
-0.00635896
-0.0427218
-0.0356479
-0.0490391
-0.0509407
-0.0574553
-0.0614752
-0.066065
-0.0700987
-0.0740066
-0.0776796
-0.0811733
-0.0844891
-0.0876456
-0.0906487
-0.0935129
-0.0962424
-0.0988482
-0.101335
-0.103712
-0.105982
-0.108152
-0.110227
-0.112212
-0.114111
-0.115929
-0.117668
-0.119334
-0.120928
-0.122455
-0.123919
-0.12532
-0.126664
-0.127952
-0.129187
-0.130372
-0.131509
-0.132601
-0.133651
-0.134662
-0.135636
-0.136576
-0.137486
-0.138369
-0.13923
-0.140073
-0.140902
-0.141725
-0.142545
-0.143372
-0.144212
-0.145074
-0.145967
-0.146901
-0.14789
-0.148943
-0.150081
-0.151316
-0.152673
-0.154168
-0.155834
-0.157687
-0.159421
-0.160883
-0.16242
-0.164047
-0.165769
-0.167582
-0.1695
-0.171518
-0.173654
-0.175902
-0.178278
-0.180776
-0.183426
-0.186211
-0.189201
-0.192353
-0.195824
-0.199476
-0.203687
-0.208021
-0.213504
-0.218727
-0.227026
-0.233115
-0.247366
-0.0327483
-0.00645213
-0.0427562
-0.0356597
-0.0490442
-0.050942
-0.0574552
-0.0614742
-0.0660636
-0.070097
-0.0740049
-0.0776779
-0.0811716
-0.0844873
-0.087644
-0.0906471
-0.0935113
-0.0962408
-0.0988467
-0.101334
-0.10371
-0.10598
-0.108151
-0.110226
-0.112211
-0.11411
-0.115928
-0.117667
-0.119332
-0.120927
-0.122454
-0.123918
-0.125319
-0.126663
-0.127951
-0.129186
-0.130371
-0.131508
-0.1326
-0.133651
-0.134661
-0.135635
-0.136575
-0.137485
-0.138369
-0.139229
-0.140072
-0.140902
-0.141724
-0.142545
-0.143371
-0.144211
-0.145073
-0.145967
-0.146901
-0.147889
-0.148943
-0.15008
-0.151315
-0.152673
-0.154168
-0.155835
-0.157687
-0.159422
-0.160883
-0.162421
-0.164048
-0.16577
-0.167583
-0.169501
-0.17152
-0.173656
-0.175903
-0.178279
-0.180777
-0.183426
-0.186211
-0.189201
-0.192351
-0.195819
-0.199469
-0.20367
-0.207996
-0.21344
-0.21864
-0.226687
-0.232641
-0.244914
-0.0335907
-0.00657318
-0.0428024
-0.0356767
-0.0490523
-0.0509449
-0.0574561
-0.0614738
-0.0660626
-0.0700956
-0.0740032
-0.0776761
-0.0811698
-0.0844855
-0.0876421
-0.0906453
-0.0935095
-0.0962391
-0.098845
-0.101332
-0.103709
-0.105979
-0.108149
-0.110225
-0.11221
-0.114109
-0.115926
-0.117666
-0.119331
-0.120926
-0.122453
-0.123916
-0.125318
-0.126662
-0.12795
-0.129185
-0.13037
-0.131507
-0.132599
-0.133649
-0.13466
-0.135634
-0.136574
-0.137484
-0.138368
-0.139228
-0.140071
-0.140901
-0.141723
-0.142544
-0.14337
-0.14421
-0.145072
-0.145966
-0.1469
-0.147888
-0.148942
-0.15008
-0.151315
-0.152672
-0.154168
-0.155834
-0.157687
-0.159422
-0.160883
-0.162421
-0.164048
-0.165771
-0.167583
-0.169501
-0.17152
-0.173655
-0.175902
-0.178278
-0.180775
-0.183424
-0.186207
-0.189195
-0.192343
-0.195807
-0.199451
-0.203637
-0.207952
-0.213334
-0.218506
-0.226208
-0.232002
-0.242324
-0.0346362
-0.00672878
-0.0428631
-0.0357003
-0.0490644
-0.05095
-0.0574584
-0.0614744
-0.0660622
-0.0700947
-0.0740019
-0.0776746
-0.0811681
-0.0844837
-0.0876403
-0.0906434
-0.0935077
-0.0962372
-0.0988432
-0.10133
-0.103707
-0.105977
-0.108148
-0.110223
-0.112208
-0.114107
-0.115925
-0.117664
-0.119329
-0.120924
-0.122452
-0.123915
-0.125317
-0.12666
-0.127948
-0.129183
-0.130368
-0.131506
-0.132598
-0.133648
-0.134659
-0.135633
-0.136573
-0.137483
-0.138366
-0.139227
-0.14007
-0.1409
-0.141722
-0.142543
-0.143369
-0.144209
-0.145071
-0.145965
-0.146899
-0.147887
-0.148941
-0.150079
-0.151314
-0.152671
-0.154167
-0.155833
-0.157686
-0.159421
-0.160882
-0.16242
-0.164047
-0.165769
-0.167582
-0.169499
-0.171518
-0.173653
-0.175899
-0.178274
-0.180769
-0.183416
-0.186197
-0.189182
-0.192326
-0.195782
-0.199418
-0.203579
-0.207877
-0.213168
-0.218297
-0.225566
-0.231152
-0.239668
-0.0359244
-0.00692712
-0.0429414
-0.0357318
-0.0490813
-0.0509578
-0.0574627
-0.0614762
-0.0660628
-0.0700944
-0.0740011
-0.0776734
-0.0811667
-0.0844821
-0.0876386
-0.0906416
-0.0935058
-0.0962354
-0.0988413
-0.101328
-0.103705
-0.105975
-0.108146
-0.110221
-0.112206
-0.114105
-0.115923
-0.117662
-0.119328
-0.120923
-0.12245
-0.123913
-0.125315
-0.126659
-0.127947
-0.129182
-0.130367
-0.131504
-0.132597
-0.133647
-0.134657
-0.135631
-0.136571
-0.137481
-0.138365
-0.139226
-0.140069
-0.140898
-0.14172
-0.142541
-0.143368
-0.144208
-0.14507
-0.145963
-0.146898
-0.147886
-0.14894
-0.150077
-0.151313
-0.15267
-0.154165
-0.155831
-0.157684
-0.159418
-0.16088
-0.162417
-0.164044
-0.165766
-0.167578
-0.169494
-0.171512
-0.173645
-0.17589
-0.178263
-0.180755
-0.183399
-0.186177
-0.189156
-0.192294
-0.195737
-0.199361
-0.203485
-0.207756
-0.212922
-0.217977
-0.224737
-0.230044
-0.237009
-0.0374989
-0.00717826
-0.043041
-0.0357729
-0.0491039
-0.0509691
-0.0574694
-0.0614797
-0.0660646
-0.070095
-0.074001
-0.0776728
-0.0811657
-0.084481
-0.0876372
-0.0906401
-0.0935042
-0.0962337
-0.0988395
-0.101327
-0.103703
-0.105973
-0.108144
-0.110219
-0.112204
-0.114103
-0.115921
-0.117661
-0.119326
-0.120921
-0.122448
-0.123911
-0.125313
-0.126657
-0.127945
-0.12918
-0.130365
-0.131502
-0.132595
-0.133645
-0.134655
-0.135629
-0.13657
-0.13748
-0.138363
-0.139224
-0.140067
-0.140897
-0.141719
-0.14254
-0.143366
-0.144206
-0.145068
-0.145962
-0.146896
-0.147884
-0.148938
-0.150075
-0.15131
-0.152667
-0.154162
-0.155828
-0.15768
-0.159413
-0.160875
-0.162412
-0.164038
-0.165758
-0.16757
-0.169484
-0.1715
-0.173631
-0.175873
-0.178242
-0.180731
-0.183369
-0.186141
-0.189111
-0.192239
-0.195662
-0.199266
-0.203337
-0.207563
-0.212567
-0.2175
-0.223701
-0.228647
-0.234375
-0.039406
-0.00749437
-0.0431662
-0.0358257
-0.0491334
-0.0509846
-0.0574789
-0.0614852
-0.066068
-0.070097
-0.074002
-0.0776731
-0.0811656
-0.0844804
-0.0876364
-0.0906391
-0.0935031
-0.0962324
-0.0988381
-0.101325
-0.103701
-0.105972
-0.108142
-0.110217
-0.112203
-0.114102
-0.115919
-0.117659
-0.119324
-0.120919
-0.122446
-0.123909
-0.125311
-0.126655
-0.127943
-0.129178
-0.130363
-0.131501
-0.132593
-0.133643
-0.134654
-0.135628
-0.136568
-0.137478
-0.138361
-0.139222
-0.140065
-0.140895
-0.141717
-0.142538
-0.143364
-0.144204
-0.145066
-0.145959
-0.146893
-0.147881
-0.148935
-0.150072
-0.151306
-0.152663
-0.154157
-0.155822
-0.157673
-0.159405
-0.160866
-0.162402
-0.164027
-0.165745
-0.167555
-0.169467
-0.17148
-0.173607
-0.175845
-0.178208
-0.18069
-0.183319
-0.186081
-0.189037
-0.192148
-0.195542
-0.199114
-0.203111
-0.207267
-0.212068
-0.216814
-0.222433
-0.22695
-0.231752
-0.0416909
-0.00789
-0.0433221
-0.0358924
-0.049171
-0.0510049
-0.0574918
-0.0614933
-0.0660733
-0.0701004
-0.0740043
-0.0776746
-0.0811664
-0.0844808
-0.0876364
-0.0906388
-0.0935025
-0.0962316
-0.0988372
-0.101324
-0.1037
-0.10597
-0.108141
-0.110216
-0.112201
-0.1141
-0.115918
-0.117657
-0.119323
-0.120917
-0.122445
-0.123908
-0.12531
-0.126653
-0.127941
-0.129177
-0.130362
-0.131499
-0.132591
-0.133641
-0.134652
-0.135626
-0.136566
-0.137476
-0.13836
-0.13922
-0.140063
-0.140893
-0.141715
-0.142535
-0.143362
-0.144202
-0.145063
-0.145956
-0.14689
-0.147878
-0.148931
-0.150067
-0.151301
-0.152657
-0.15415
-0.155813
-0.157662
-0.159392
-0.160852
-0.162386
-0.164008
-0.165724
-0.16753
-0.169438
-0.171447
-0.173567
-0.175798
-0.178152
-0.180623
-0.183239
-0.185986
-0.188919
-0.192006
-0.195355
-0.198879
-0.202775
-0.206823
-0.211378
-0.215867
-0.220904
-0.224957
-0.229089
-0.0443923
-0.00838225
-0.0435145
-0.0359755
-0.0492179
-0.051031
-0.0575087
-0.0615043
-0.0660808
-0.0701058
-0.0740081
-0.0776774
-0.0811684
-0.0844823
-0.0876374
-0.0906395
-0.0935029
-0.0962318
-0.0988372
-0.101324
-0.1037
-0.10597
-0.10814
-0.110215
-0.1122
-0.114099
-0.115917
-0.117656
-0.119321
-0.120916
-0.122443
-0.123907
-0.125308
-0.126652
-0.12794
-0.129175
-0.13036
-0.131497
-0.13259
-0.13364
-0.13465
-0.135624
-0.136564
-0.137475
-0.138358
-0.139219
-0.140061
-0.140891
-0.141713
-0.142533
-0.143359
-0.144199
-0.14506
-0.145953
-0.146886
-0.147873
-0.148925
-0.150061
-0.151293
-0.152647
-0.154139
-0.1558
-0.157646
-0.159372
-0.160829
-0.162361
-0.163979
-0.16569
-0.167492
-0.169393
-0.171394
-0.173505
-0.175724
-0.178064
-0.180519
-0.183115
-0.185838
-0.188738
-0.191786
-0.195072
-0.198522
-0.202286
-0.20618
-0.210444
-0.214612
-0.219081
-0.222679
-0.226309
-0.0475342
-0.00899077
-0.0437493
-0.0360777
-0.0492755
-0.0510638
-0.0575301
-0.0615187
-0.0660911
-0.0701135
-0.0740139
-0.0776819
-0.081172
-0.0844852
-0.0876398
-0.0906414
-0.0935044
-0.096233
-0.0988382
-0.101325
-0.1037
-0.10597
-0.10814
-0.110215
-0.1122
-0.114099
-0.115916
-0.117656
-0.119321
-0.120916
-0.122443
-0.123906
-0.125308
-0.126651
-0.127939
-0.129174
-0.130359
-0.131496
-0.132589
-0.133639
-0.134649
-0.135623
-0.136563
-0.137473
-0.138356
-0.139217
-0.14006
-0.140889
-0.14171
-0.142531
-0.143357
-0.144196
-0.145056
-0.145948
-0.146881
-0.147867
-0.148918
-0.150051
-0.151282
-0.152634
-0.154122
-0.155779
-0.15762
-0.159341
-0.160795
-0.162322
-0.163934
-0.165638
-0.167432
-0.169322
-0.171312
-0.173409
-0.175611
-0.17793
-0.180361
-0.182926
-0.185613
-0.188464
-0.191455
-0.194652
-0.197996
-0.201587
-0.205276
-0.209205
-0.213007
-0.216931
-0.220109
-0.22333
-0.0511129
-0.00973722
-0.0440333
-0.036202
-0.0493447
-0.0511042
-0.0575565
-0.0615371
-0.0661044
-0.0701237
-0.074022
-0.0776885
-0.0811775
-0.0844898
-0.0876437
-0.0906449
-0.0935074
-0.0962356
-0.0988405
-0.101327
-0.103702
-0.105972
-0.108142
-0.110217
-0.112201
-0.1141
-0.115917
-0.117656
-0.119321
-0.120916
-0.122443
-0.123906
-0.125308
-0.126651
-0.127939
-0.129174
-0.130359
-0.131496
-0.132588
-0.133638
-0.134649
-0.135622
-0.136563
-0.137472
-0.138356
-0.139216
-0.140058
-0.140887
-0.141708
-0.142528
-0.143354
-0.144192
-0.145052
-0.145943
-0.146874
-0.147858
-0.148907
-0.150038
-0.151266
-0.152614
-0.154098
-0.155749
-0.157583
-0.159296
-0.160744
-0.162263
-0.163866
-0.165559
-0.16734
-0.169216
-0.171188
-0.173263
-0.17544
-0.177728
-0.180124
-0.182643
-0.185278
-0.188058
-0.190964
-0.194039
-0.197237
-0.20061
-0.204043
-0.207601
-0.211008
-0.21442
-0.217222
-0.220074
-0.0550814
-0.0106436
-0.0443731
-0.0363511
-0.0494266
-0.051153
-0.0575883
-0.0615598
-0.0661211
-0.0701369
-0.0740326
-0.0776974
-0.0811851
-0.0844964
-0.0876496
-0.0906502
-0.0935122
-0.09624
-0.0988445
-0.10133
-0.103706
-0.105975
-0.108145
-0.110219
-0.112204
-0.114102
-0.115919
-0.117658
-0.119323
-0.120918
-0.122445
-0.123908
-0.125309
-0.126653
-0.12794
-0.129175
-0.13036
-0.131497
-0.132589
-0.133639
-0.134649
-0.135623
-0.136563
-0.137473
-0.138355
-0.139216
-0.140058
-0.140886
-0.141707
-0.142526
-0.14335
-0.144188
-0.145046
-0.145935
-0.146864
-0.147846
-0.148892
-0.15002
-0.151243
-0.152585
-0.154062
-0.155704
-0.157527
-0.159228
-0.160667
-0.162175
-0.163764
-0.16544
-0.167204
-0.169057
-0.171003
-0.173046
-0.175186
-0.177428
-0.179771
-0.182225
-0.184784
-0.187465
-0.190252
-0.193166
-0.196171
-0.199281
-0.20241
-0.205571
-0.208576
-0.211512
-0.213972
-0.216472
-0.0593304
-0.0117284
-0.0447752
-0.0365276
-0.0495213
-0.0512108
-0.0576257
-0.0615873
-0.0661415
-0.0701534
-0.0740461
-0.0777089
-0.0811951
-0.0845053
-0.0876577
-0.0906575
-0.0935189
-0.0962462
-0.0988503
-0.101336
-0.103711
-0.10598
-0.108149
-0.110224
-0.112208
-0.114106
-0.115923
-0.117662
-0.119327
-0.120921
-0.122448
-0.123911
-0.125312
-0.126655
-0.127943
-0.129178
-0.130362
-0.131499
-0.132591
-0.133641
-0.134651
-0.135625
-0.136564
-0.137474
-0.138356
-0.139216
-0.140058
-0.140885
-0.141705
-0.142523
-0.143347
-0.144182
-0.145039
-0.145925
-0.146851
-0.147829
-0.148871
-0.149993
-0.151209
-0.152543
-0.15401
-0.155638
-0.157445
-0.159129
-0.160552
-0.162044
-0.163613
-0.165264
-0.167
-0.16882
-0.170727
-0.172724
-0.174809
-0.176988
-0.179255
-0.181618
-0.184069
-0.186613
-0.18924
-0.191948
-0.194711
-0.197516
-0.200304
-0.203058
-0.205661
-0.208159
-0.210299
-0.212455
-0.0636704
-0.0130018
-0.0452447
-0.0367333
-0.0496282
-0.051278
-0.0576686
-0.0616198
-0.0661657
-0.0701734
-0.0740627
-0.0777234
-0.0812079
-0.0845169
-0.0876682
-0.0906673
-0.093528
-0.0962548
-0.0988584
-0.101343
-0.103718
-0.105987
-0.108156
-0.11023
-0.112214
-0.114112
-0.115929
-0.117668
-0.119332
-0.120926
-0.122453
-0.123915
-0.125317
-0.12666
-0.127947
-0.129182
-0.130366
-0.131503
-0.132595
-0.133645
-0.134655
-0.135628
-0.136567
-0.137476
-0.138358
-0.139218
-0.140058
-0.140885
-0.141704
-0.14252
-0.143342
-0.144175
-0.145028
-0.145911
-0.146833
-0.147805
-0.14884
-0.149953
-0.15116
-0.15248
-0.153932
-0.15554
-0.157323
-0.158981
-0.160382
-0.161849
-0.163387
-0.165003
-0.166697
-0.168469
-0.17032
-0.17225
-0.174259
-0.176346
-0.178509
-0.180745
-0.183048
-0.185415
-0.187833
-0.190291
-0.192764
-0.195232
-0.197652
-0.200001
-0.202212
-0.204303
-0.206132
-0.207951
-0.0678211
-0.0144582
-0.0457824
-0.0369688
-0.0497455
-0.0513545
-0.0577162
-0.0616573
-0.0661936
-0.070197
-0.0740825
-0.0777409
-0.0812236
-0.0845312
-0.0876815
-0.0906797
-0.0935397
-0.0962658
-0.0988689
-0.101353
-0.103728
-0.105996
-0.108165
-0.110239
-0.112222
-0.11412
-0.115937
-0.117675
-0.11934
-0.120933
-0.12246
-0.123922
-0.125323
-0.126666
-0.127954
-0.129188
-0.130372
-0.131509
-0.132601
-0.13365
-0.13466
-0.135633
-0.136572
-0.13748
-0.138362
-0.13922
-0.140059
-0.140885
-0.141702
-0.142516
-0.143335
-0.144164
-0.145013
-0.14589
-0.146805
-0.147769
-0.148794
-0.149895
-0.151086
-0.152388
-0.153816
-0.155395
-0.157142
-0.158763
-0.160131
-0.161559
-0.163053
-0.164617
-0.166251
-0.167954
-0.169724
-0.171562
-0.173463
-0.175425
-0.177444
-0.179513
-0.181623
-0.183766
-0.185927
-0.188092
-0.190239
-0.192346
-0.194385
-0.196336
-0.198164
-0.199873
-0.201393
-0.202878
-0.0714165
-0.0160668
-0.0463807
-0.0372327
-0.0498693
-0.0514395
-0.0577673
-0.0616995
-0.0662249
-0.0702243
-0.0741056
-0.0777617
-0.0812424
-0.0845485
-0.0876976
-0.0906948
-0.093554
-0.0962795
-0.098882
-0.101366
-0.10374
-0.106008
-0.108176
-0.11025
-0.112233
-0.114131
-0.115947
-0.117685
-0.119349
-0.120943
-0.122469
-0.123931
-0.125332
-0.126675
-0.127962
-0.129196
-0.130381
-0.131517
-0.132608
-0.133657
-0.134667
-0.135639
-0.136577
-0.137485
-0.138366
-0.139223
-0.140061
-0.140884
-0.141698
-0.142509
-0.143323
-0.144148
-0.14499
-0.145859
-0.146764
-0.147715
-0.148725
-0.149807
-0.150977
-0.15225
-0.153644
-0.155181
-0.156875
-0.158442
-0.15976
-0.161132
-0.162562
-0.164051
-0.1656
-0.167205
-0.168864
-0.170574
-0.172329
-0.174126
-0.175956
-0.177811
-0.179681
-0.181554
-0.183416
-0.185252
-0.187046
-0.188781
-0.190439
-0.192004
-0.193462
-0.194814
-0.196031
-0.197195
-0.0740388
-0.0177618
-0.0470164
-0.0375203
-0.049993
-0.0515312
-0.0578198
-0.0617456
-0.066259
-0.0702548
-0.0741318
-0.0777855
-0.0812642
-0.0845688
-0.0877166
-0.0907128
-0.0935712
-0.0962959
-0.0988978
-0.101381
-0.103755
-0.106022
-0.10819
-0.110263
-0.112246
-0.114144
-0.115959
-0.117697
-0.119361
-0.120955
-0.122481
-0.123943
-0.125343
-0.126686
-0.127973
-0.129207
-0.130391
-0.131527
-0.132618
-0.133667
-0.134675
-0.135647
-0.136585
-0.137491
-0.13837
-0.139226
-0.140061
-0.140882
-0.141692
-0.142498
-0.143306
-0.144122
-0.144955
-0.145811
-0.146701
-0.147635
-0.148622
-0.149678
-0.150814
-0.152046
-0.153391
-0.154865
-0.156483
-0.157972
-0.159219
-0.160511
-0.161849
-0.163234
-0.164664
-0.166136
-0.167644
-0.169184
-0.170749
-0.172333
-0.173927
-0.175522
-0.177106
-0.178669
-0.1802
-0.181686
-0.183115
-0.184478
-0.185765
-0.186966
-0.188068
-0.189072
-0.189973
-0.190823
-0.0752968
-0.0194319
-0.047642
-0.0378226
-0.0501066
-0.0516265
-0.0578705
-0.0617944
-0.0662946
-0.070288
-0.0741605
-0.077812
-0.0812886
-0.0845917
-0.0877383
-0.0907335
-0.0935909
-0.0963149
-0.098916
-0.101399
-0.103772
-0.106039
-0.108206
-0.110279
-0.112262
-0.114159
-0.115974
-0.117712
-0.119375
-0.120968
-0.122494
-0.123956
-0.125356
-0.126699
-0.127985
-0.129219
-0.130403
-0.131539
-0.132629
-0.133677
-0.134685
-0.135656
-0.136593
-0.137498
-0.138375
-0.139227
-0.140059
-0.140875
-0.14168
-0.142479
-0.143277
-0.144082
-0.1449
-0.145739
-0.146608
-0.147514
-0.14847
-0.149486
-0.150574
-0.151748
-0.15302
-0.154407
-0.155917
-0.157295
-0.15844
-0.15962
-0.160832
-0.162075
-0.163346
-0.164641
-0.165953
-0.167277
-0.168604
-0.169929
-0.171241
-0.172534
-0.173796
-0.175021
-0.176199
-0.177321
-0.178377
-0.17936
-0.180271
-0.181108
-0.18187
-0.182557
-0.183167
-0.183724
-0.0749534
-0.0209118
-0.0481787
-0.0381236
-0.0501965
-0.0517213
-0.0579154
-0.0618437
-0.06633
-0.0703224
-0.0741906
-0.0778403
-0.081315
-0.0846167
-0.087762
-0.0907562
-0.0936127
-0.0963359
-0.0989364
-0.101419
-0.103791
-0.106057
-0.108224
-0.110297
-0.112279
-0.114176
-0.115991
-0.117728
-0.119391
-0.120984
-0.12251
-0.123971
-0.125371
-0.126713
-0.128
-0.129233
-0.130416
-0.131552
-0.132642
-0.133689
-0.134696
-0.135666
-0.1366
-0.137503
-0.138377
-0.139226
-0.140053
-0.140863
-0.141659
-0.142447
-0.143233
-0.144021
-0.144819
-0.145632
-0.146469
-0.147338
-0.148247
-0.149206
-0.150226
-0.151316
-0.152487
-0.153749
-0.15511
-0.156335
-0.157344
-0.158372
-0.159415
-0.160472
-0.161539
-0.162609
-0.163678
-0.164738
-0.165782
-0.166805
-0.167797
-0.168753
-0.169665
-0.170526
-0.171332
-0.172082
-0.172773
-0.173403
-0.173971
-0.174477
-0.174921
-0.175303
-0.175626
-0.175895
-0.0730491
-0.0219967
-0.0485306
-0.0383955
-0.0502497
-0.0518085
-0.0579501
-0.0618904
-0.0663629
-0.0703562
-0.0742204
-0.0778689
-0.0813419
-0.0846423
-0.0877865
-0.0907797
-0.0936354
-0.0963578
-0.0989576
-0.101439
-0.103811
-0.106077
-0.108243
-0.110315
-0.112297
-0.114193
-0.116008
-0.117745
-0.119408
-0.121001
-0.122526
-0.123987
-0.125387
-0.126729
-0.128015
-0.129248
-0.130431
-0.131565
-0.132655
-0.133701
-0.134707
-0.135675
-0.136607
-0.137507
-0.138377
-0.13922
-0.14004
-0.14084
-0.141625
-0.142398
-0.143165
-0.143929
-0.144697
-0.145475
-0.146268
-0.147082
-0.147926
-0.148806
-0.14973
-0.150704
-0.151735
-0.15283
-0.153988
-0.155011
-0.15584
-0.156671
-0.1575
-0.158325
-0.159141
-0.159942
-0.160723
-0.161477
-0.162201
-0.162887
-0.163531
-0.164129
-0.164681
-0.165183
-0.165635
-0.166037
-0.166387
-0.166686
-0.166932
-0.167127
-0.167271
-0.167365
-0.167413
-0.167412
-0.0698954
-0.0225317
-0.04866
-0.0385923
-0.0502699
-0.0518765
-0.057974
-0.0619295
-0.0663908
-0.0703861
-0.0742474
-0.077895
-0.0813667
-0.0846662
-0.0878095
-0.0908019
-0.0936568
-0.0963786
-0.0989778
-0.101459
-0.10383
-0.106095
-0.108262
-0.110333
-0.112315
-0.114211
-0.116025
-0.117762
-0.119424
-0.121017
-0.122542
-0.124002
-0.125402
-0.126744
-0.128029
-0.129262
-0.130444
-0.131578
-0.132666
-0.133711
-0.134715
-0.135681
-0.13661
-0.137505
-0.13837
-0.139205
-0.140015
-0.140803
-0.141571
-0.142323
-0.143064
-0.143795
-0.144523
-0.14525
-0.145982
-0.146723
-0.147477
-0.148249
-0.149043
-0.149862
-0.150708
-0.151581
-0.152479
-0.153246
-0.15385
-0.15444
-0.15501
-0.15556
-0.156084
-0.156577
-0.157036
-0.157457
-0.157836
-0.158173
-0.158467
-0.158717
-0.158924
-0.159087
-0.159207
-0.159284
-0.159319
-0.159312
-0.159264
-0.159176
-0.15905
-0.158887
-0.158693
-0.158462
-0.0664909
-0.0225476
-0.0486683
-0.0386542
-0.0502866
-0.0519063
-0.05799
-0.0619522
-0.0664093
-0.0704057
-0.0742657
-0.0779129
-0.0813839
-0.0846827
-0.0878256
-0.0908174
-0.0936719
-0.0963932
-0.0989921
-0.101473
-0.103844
-0.106109
-0.108275
-0.110346
-0.112327
-0.114223
-0.116037
-0.117773
-0.119436
-0.121028
-0.122553
-0.124013
-0.125413
-0.126754
-0.128039
-0.129272
-0.130453
-0.131586
-0.132674
-0.133717
-0.134719
-0.135682
-0.136607
-0.137497
-0.138355
-0.139181
-0.139979
-0.140752
-0.1415
-0.142228
-0.142936
-0.143629
-0.144309
-0.144977
-0.145637
-0.146291
-0.146941
-0.147588
-0.148233
-0.148876
-0.149515
-0.150146
-0.150764
-0.151261
-0.151634
-0.151979
-0.152293
-0.152574
-0.15282
-0.153027
-0.153193
-0.153317
-0.1534
-0.153442
-0.153444
-0.153407
-0.153333
-0.153223
-0.153078
-0.152899
-0.152687
-0.152443
-0.15217
-0.15187
-0.151544
-0.151195
-0.150828
-0.150436
-0.0642434
-0.0224181
-0.0486046
-0.0386395
-0.0502846
-0.051908
-0.0579932
-0.0619583
-0.0664156
-0.0704129
-0.0742729
-0.0779202
-0.0813912
-0.0846899
-0.0878327
-0.0908243
-0.0936787
-0.0963998
-0.0989986
-0.101479
-0.10385
-0.106115
-0.108281
-0.110352
-0.112333
-0.114229
-0.116042