/*--------------------------------*- C++ -*----------------------------------*\
| =========                 |                                                 |
| \\      /  F ield         | OpenFOAM: The Open Source CFD Toolbox           |
|  \\    /   O peration     | Version:  2306                                  |
|   \\  /    A nd           | Website:  www.openfoam.com                      |
|    \\/     M anipulation  |                                                 |
\*---------------------------------------------------------------------------*/
FoamFile
{
    version     2.0;
    format      ascii;
    arch        "LSB;label=32;scalar=64";
    class       volScalarField;
    location    "2000";
    object      k;
}
// * * * * * * * * * * * * * * * * * * * * * * * * * * * * * * * * * * * * * //

dimensions      [0 2 -2 0 0 0 0];

internalField   nonuniform List<scalar> 
20540
(
460.396
768.462
460.363
768.427
460.239
768.298
460.011
768.06
459.659
767.692
459.156
767.167
458.47
766.451
457.565
765.506
456.393
764.283
454.9
762.724
453.018
760.758
450.665
758.301
447.743
755.249
444.133
751.477
439.691
746.833
434.245
741.136
427.588
734.162
419.471
725.645
409.605
715.261
397.646
702.621
383.203
687.257
365.834
668.611
345.06
646.021
320.39
618.711
291.357
585.79
257.599
546.251
218.967
498.99
175.721
442.799
128.945
376.289
81.9608
297.512
47.2086
219.684
28.1538
171.766
29.5247
175.084
50.5914
227.54
86.3581
305.755
133.117
381.739
179.195
446.194
221.779
500.781
259.903
546.772
293.322
585.306
322.168
617.439
346.777
644.136
367.583
666.256
385.054
684.55
399.644
699.659
411.779
712.123
421.839
722.396
430.155
730.855
437.014
737.811
442.657
743.523
447.289
748.206
451.08
752.036
454.174
755.158
456.687
757.694
458.719
759.744
460.351
761.39
461.652
762.701
462.676
763.733
463.47
764.534
464.074
765.142
464.519
765.591
464.832
765.906
465.035
766.11
465.146
766.222
465.179
766.256
4.82699
1.51218
1.1757
0.985076
0.882939
0.802228
0.745828
0.699379
0.662361
0.631137
0.604809
0.582066
0.562362
0.544987
0.529676
0.516035
0.503804
0.492814
0.482885
0.473867
0.465655
0.458151
0.451278
0.444957
0.439131
0.433753
0.428771
0.424151
0.419858
0.415859
0.412129
0.408644
0.405386
0.402333
0.39947
0.39678
0.394254
0.391877
0.389641
0.387533
0.38555
0.383682
0.381925
0.380273
0.378726
0.377278
0.375931
0.374684
0.37354
0.372502
0.371575
0.370767
0.370082
0.369537
0.369138
0.368903
0.368849
0.368995
0.369375
0.37
0.370926
0.372169
0.373803
0.375502
0.37706
0.378804
0.380765
0.382926
0.385301
0.387898
0.390742
0.393832
0.397207
0.40085
0.404844
0.409124
0.413929
0.418937
0.425004
0.430796
0.439107
0.445692
0.458234
0.465703
0.489218
0.490899
0.584422
0.432344
21.0631
4.51944
3.12453
2.50266
2.18085
1.94252
1.77653
1.64369
1.53847
1.45095
1.37771
1.31498
1.26101
1.21371
1.17227
1.13554
1.10277
1.07345
1.04707
1.02319
1.00153
0.981799
0.96378
0.947256
0.932065
0.91808
0.905152
0.893191
0.882098
0.871786
0.862187
0.853233
0.844875
0.837055
0.829733
0.822863
0.816419
0.810361
0.804667
0.799305
0.794262
0.789511
0.785044
0.780838
0.776892
0.773191
0.769733
0.766513
0.763533
0.760797
0.758309
0.756084
0.754127
0.752467
0.751112
0.7501
0.749446
0.749195
0.74941
0.75007
0.751308
0.75315
0.755727
0.75852
0.761134
0.764079
0.767353
0.771
0.774994
0.77938
0.78414
0.789321
0.794894
0.800965
0.807437
0.814521
0.822095
0.830175
0.839353
0.848022
0.860094
0.868776
0.885315
0.896165
0.917674
0.938478
0.968728
0.976278
49.5801
17.1787
13.327
11.4945
10.4658
9.66626
9.07971
8.59359
8.1952
7.85486
7.56307
7.30786
7.08415
6.88484
6.70764
6.54843
6.40462
6.27458
6.15636
6.04841
5.94961
5.85894
5.77553
5.69853
5.62731
5.56137
5.50009
5.44311
5.39003
5.34046
5.29413
5.25076
5.21013
5.17199
5.13616
5.10244
5.07073
5.04083
5.01266
4.98607
4.961
4.93733
4.91503
4.89398
4.87419
4.85558
4.83816
4.82189
4.80679
4.79288
4.78017
4.76876
4.75864
4.74997
4.74278
4.73725
4.73344
4.73155
4.73193
4.73438
4.73958
4.74766
4.75918
4.77183
4.78369
4.79707
4.81187
4.82839
4.84641
4.86617
4.8875
4.91069
4.9354
4.96235
4.99061
5.02167
5.05409
5.08879
5.12711
5.16294
5.21178
5.24631
5.30739
5.3547
5.40799
5.53733
5.43665
5.67283
73.7632
24.4238
18.2651
15.9844
14.8108
13.9504
13.322
12.805
12.3792
12.0143
11.6997
11.4231
11.1794
10.9611
10.766
10.5899
10.4301
10.2849
10.1524
10.0309
9.91923
9.81642
9.72152
9.63362
9.55208
9.47636
9.40578
9.34
9.27855
9.22104
9.16717
9.11662
9.06918
9.02455
8.98254
8.94295
8.90564
8.87041
8.83716
8.80572
8.77604
8.74796
8.72146
8.69641
8.6728
8.65055
8.62966
8.61009
8.59185
8.57496
8.55942
8.54533
8.53268
8.52165
8.51223
8.50465
8.49892
8.49524
8.49399
8.49506
8.49879
8.50565
8.51605
8.52794
8.53921
8.55208
8.56619
8.58208
8.5993
8.61831
8.63861
8.66087
8.68405
8.70988
8.73582
8.76541
8.79442
8.827
8.86031
8.89268
8.9335
8.96493
9.0048
9.06794
9.04564
9.25307
8.86065
9.58679
96.3495
31.3202
21.4864
18.2103
16.7094
15.7331
15.0505
14.5082
14.0676
13.6939
13.3734
13.0924
12.8454
12.6242
12.4269
12.2487
12.087
11.9402
11.8062
11.6832
11.5703
11.4662
11.3702
11.2812
11.1986
11.1219
11.0503
10.9837
10.9214
10.8631
10.8084
10.7571
10.709
10.6637
10.6211
10.5809
10.543
10.5072
10.4734
10.4414
10.4113
10.3827
10.3557
10.3302
10.3061
10.2834
10.262
10.2419
10.2231
10.2057
10.1895
10.1747
10.1612
10.1493
10.1388
10.13
10.1229
10.1177
10.1145
10.1135
10.1148
10.1186
10.1255
10.1341
10.1424
10.1523
10.1629
10.1752
10.1883
10.2031
10.2186
10.2361
10.2535
10.2739
10.293
10.3165
10.3372
10.3631
10.3865
10.4115
10.4402
10.464
10.4857
10.5478
10.4791
10.6972
10.2458
10.9084
117.945
39.0307
24.9544
20.1183
18.0011
16.7737
15.973
15.3738
14.9019
14.511
14.1802
13.8931
13.6422
13.4185
13.2197
13.0404
12.878
12.7308
12.5964
12.4733
12.3602
12.2561
12.1599
12.0709
11.9883
11.9115
11.84
11.7733
11.711
11.6527
11.598
11.5467
11.4986
11.4532
11.4106
11.3704
11.3324
11.2966
11.2628
11.2308
11.2006
11.172
11.1449
11.1193
11.0951
11.0723
11.0507
11.0304
11.0114
10.9936
10.977
10.9617
10.9477
10.935
10.9237
10.9139
10.9055
10.8988
10.8938
10.8907
10.8895
10.8905
10.8937
10.8989
10.9043
10.9111
10.9182
10.9269
10.936
10.9466
10.9574
10.9702
10.9822
10.9974
11.01
11.0278
11.0411
11.0608
11.0754
11.0939
11.1127
11.1289
11.1406
11.189
11.1184
11.2931
10.9072
11.3183
139.019
47.5164
29.1568
22.3902
19.3555
17.6917
16.6684
15.9523
15.4148
14.9857
14.6321
14.3308
14.0712
13.8418
13.6395
13.458
13.2943
13.1463
13.0116
12.8883
12.7753
12.6713
12.5754
12.4867
12.4043
12.328
12.2567
12.1904
12.1284
12.0703
12.016
11.9649
11.9171
11.872
11.8296
11.7896
11.7519
11.7162
11.6826
11.6508
11.6207
11.5922
11.5653
11.5397
11.5156
11.4928
11.4712
11.4509
11.4317
11.4138
11.3969
11.3813
11.3668
11.3536
11.3414
11.3307
11.3212
11.3131
11.3065
11.3014
11.2979
11.2962
11.2964
11.2982
11.3009
11.3047
11.3087
11.3139
11.3194
11.3262
11.3328
11.3413
11.3484
11.3588
11.366
11.3783
11.3856
11.3993
11.407
11.4197
11.4296
11.4402
11.4441
11.4769
11.4208
11.536
11.2539
11.4123
159.897
56.6748
34.1218
25.2672
21.0924
18.8018
17.4245
16.5052
15.8463
15.3429
14.9428
14.6114
14.3323
14.0898
13.879
13.6918
13.5242
13.3738
13.2375
13.1133
12.9998
12.8957
12.7999
12.7113
12.6292
12.5532
12.4824
12.4165
12.355
12.2974
12.2434
12.1929
12.1454
12.1008
12.0587
12.0191
11.9818
11.9465
11.9132
11.8817
11.8519
11.8237
11.797
11.7717
11.7478
11.7251
11.7036
11.6833
11.6642
11.6462
11.6292
11.6134
11.5985
11.5848
11.5721
11.5606
11.5501
11.5409
11.5328
11.526
11.5204
11.5164
11.5135
11.5128
11.5129
11.514
11.5151
11.5174
11.5196
11.523
11.5259
11.5305
11.5337
11.5396
11.5428
11.5497
11.5529
11.5604
11.5634
11.5704
11.5735
11.5796
11.5774
11.5928
11.5583
11.6208
11.4616
11.4288
180.788
66.4771
39.7754
28.793
23.3564
20.2905
18.4291
17.2053
16.3516
15.7213
15.2376
14.8498
14.5324
14.2634
14.0343
13.834
13.6573
13.5006
13.3598
13.2325
13.1168
13.0113
12.9146
12.8255
12.7433
12.6673
12.5966
12.531
12.4698
12.4126
12.3591
12.309
12.262
12.2178
12.1763
12.1371
12.1002
12.0654
12.0325
12.0014
11.972
11.9441
11.9178
11.8928
11.8692
11.8467
11.8255
11.8054
11.7863
11.7684
11.7514
11.7354
11.7203
11.7064
11.6932
11.6811
11.6698
11.6596
11.6502
11.6421
11.6347
11.6286
11.6231
11.6202
11.618
11.6171
11.6155
11.6154
11.6148
11.6152
11.6152
11.6163
11.6166
11.6183
11.6185
11.6207
11.6207
11.623
11.6227
11.6244
11.6231
11.6241
11.6184
11.6245
11.5934
11.6257
11.5442
11.3696
201.814
76.9424
46.0614
32.9375
26.1878
22.2555
19.8081
18.1842
17.0555
16.2345
15.6179
15.1361
14.7521
14.435
14.1713
13.9457
13.7503
13.5799
13.429
13.2941
13.1729
13.0633
12.9636
12.8723
12.7885
12.7115
12.6401
12.574
12.5126
12.4554
12.402
12.352
12.3053
12.2615
12.2203
12.1815
12.145
12.1106
12.0781
12.0474
12.0184
11.9909
11.965
11.9403
11.917
11.8949
11.8739
11.854
11.8352
11.8173
11.8004
11.7844
11.7693
11.7551
11.7416
11.7291
11.7171
11.7062
11.6959
11.6865
11.6777
11.67
11.6623
11.6577
11.6535
11.651
11.6472
11.6451
11.642
11.6404
11.6375
11.6364
11.6337
11.6328
11.63
11.6292
11.6262
11.6252
11.622
11.6205
11.6157
11.6142
11.6045
11.6058
11.576
11.5876
11.5355
11.3463
223.027
88.1094
52.9588
37.6628
29.5765
24.73
21.6318
19.5344
18.059
16.9824
16.1777
15.5562
15.0685
14.6736
14.3516
14.0818
13.8528
13.6568
13.4862
13.336
13.2031
13.0843
12.9775
12.8807
12.7927
12.7123
12.6384
12.5704
12.5075
12.4492
12.395
12.3445
12.2975
12.2534
12.2121
12.1733
12.137
12.1027
12.0704
12.0399
12.0112
11.984
11.9583
11.9339
11.9109
11.8891
11.8683
11.8487
11.83
11.8123
11.7955
11.7796
11.7643
11.7501
11.7363
11.7236
11.7112
11.6997
11.6886
11.6784
11.6683
11.6594
11.65
11.644
11.6383
11.6345
11.629
11.6255
11.6203
11.6173
11.6121
11.6094
11.6041
11.6016
11.5961
11.5935
11.5877
11.5849
11.5786
11.5754
11.5674
11.5642
11.5513
11.55
11.5232
11.528
11.4727
11.3113
244.429
100.021
60.4736
42.9475
33.4991
27.7123
23.9263
21.3077
19.4325
18.0457
17.0008
16.1924
15.5596
15.0513
14.641
14.3019
14.0185
13.7796
13.575
13.3977
13.2432
13.1072
12.9866
12.8785
12.7814
12.6938
12.6139
12.5411
12.4743
12.4128
12.356
12.3035
12.2548
12.2093
12.167
12.1274
12.0904
12.0556
12.023
11.9922
11.9634
11.936
11.9103
11.8859
11.863
11.8411
11.8205
11.8009
11.7823
11.7646
11.7478
11.7319
11.7166
11.7023
11.6883
11.6753
11.6625
11.6507
11.639
11.6281
11.6171
11.6073
11.5965
11.5895
11.5826
11.5779
11.571
11.5666
11.5598
11.5556
11.5487
11.545
11.5377
11.534
11.5265
11.5227
11.5148
11.5108
11.5022
11.4978
11.4875
11.4828
11.4682
11.464
11.439
11.4356
11.3888
11.2546
265.968
112.713
68.6284
48.7896
37.94
31.1886
26.6918
23.5232
21.2136
19.4777
18.1515
17.115
16.2979
15.6401
15.1088
14.6714
14.3083
14.0045
13.7469
13.5264
13.3365
13.1713
13.0265
12.8986
12.7849
12.6836
12.5922
12.5098
12.4349
12.3666
12.3042
12.2468
12.194
12.1451
12.0999
12.0578
12.0187
11.9822
11.9481
11.916
11.8861
11.8579
11.8314
11.8064
11.7829
11.7606
11.7395
11.7196
11.7007
11.6828
11.6657
11.6496
11.634
11.6195
11.6052
11.5919
11.5787
11.5665
11.5542
11.5428
11.531
11.5204
11.5086
11.5008
11.493
11.4876
11.4797
11.4745
11.4666
11.4616
11.4535
11.4489
11.4403
11.4358
11.4269
11.4223
11.413
11.408
11.398
11.3925
11.3808
11.3748
11.3594
11.3524
11.3298
11.3153
11.2875
11.192
287.542
126.209
77.4535
55.2022
42.8966
35.1489
29.9194
26.181
23.4147
21.3047
19.6686
18.3737
17.3407
16.5019
15.8193
15.255
14.7856
14.3928
14.0606
13.7772
13.5346
13.3249
13.1426
12.9828
12.8421
12.7178
12.6068
12.5076
12.4184
12.3377
12.2646
12.1981
12.1373
12.0815
12.0303
11.983
11.9394
11.8988
11.8612
11.8261
11.7935
11.7628
11.7343
11.7074
11.6823
11.6586
11.6362
11.6151
11.5952
11.5764
11.5585
11.5415
11.5253
11.51
11.495
11.4811
11.4673
11.4545
11.4414
11.4294
11.4169
11.4055
11.3929
11.3843
11.3758
11.3697
11.3611
11.3552
11.3466
11.3409
11.332
11.3268
11.3173
11.3122
11.3023
11.2971
11.2868
11.2811
11.2701
11.2639
11.2514
11.2443
11.2284
11.2195
11.1975
11.1805
11.1532
11.0904
309.003
140.509
86.98
62.2081
48.3783
39.5928
33.6035
29.2753
26.0349
23.5337
21.5687
19.995
18.7237
17.6806
16.8226
16.1072
15.5081
15.0035
14.575
14.2087
13.8947
13.6233
13.3877
13.1818
13.0011
12.8421
12.7009
12.5755
12.4633
12.3626
12.2719
12.1898
12.1154
12.0476
11.9857
11.9289
11.8769
11.8289
11.7847
11.7436
11.7057
11.6703
11.6375
11.6068
11.5782
11.5513
11.5261
11.5025
11.4802
11.4592
11.4394
11.4206
11.4027
11.386
11.3696
11.3544
11.3392
11.3253
11.3111
11.298
11.2844
11.272
11.2584
11.2488
11.2397
11.2328
11.2237
11.2171
11.2079
11.2016
11.1921
11.1863
11.1761
11.1706
11.16
11.1543
11.1433
11.1372
11.1255
11.1187
11.1056
11.0976
11.0815
11.0712
11.0492
11.0319
11.0022
10.9627
330.146
155.587
97.234
69.8354
54.4039
44.5291
37.7453
32.8031
29.0703
26.1624
23.8544
21.9876
20.463
19.1998
18.1493
17.2653
16.5182
15.8835
15.3405
14.8735
14.4707
14.1211
13.8165
13.5497
13.3153
13.1087
12.9254
12.7625
12.6171
12.4867
12.3697
12.2642
12.1688
12.0822
12.0035
11.9316
11.866
11.8056
11.7503
11.6992
11.6522
11.6085
11.5682
11.5306
11.4958
11.4632
11.4328
11.4044
11.3777
11.3527
11.3292
11.307
11.286
11.2663
11.2472
11.2295
11.2121
11.1959
11.1797
11.1648
11.1494
11.1353
11.1203
11.1093
11.0993
11.0913
11.0816
11.0741
11.0643
11.0572
11.0471
11.0406
11.03
11.0239
11.0128
11.0067
10.9951
10.9886
10.9763
10.9691
10.9554
10.9469
10.9305
10.9194
10.8974
10.8806
10.848
10.8283
350.715
171.375
108.229
78.112
60.9976
49.9748
42.3544
36.768
32.5201
29.1883
26.5232
24.351
22.5615
21.067
19.8122
18.7478
17.8402
17.0623
16.3915
15.8102
15.305
14.8636
14.4766
14.1359
13.835
13.5686
13.3314
13.1201
12.9309
12.761
12.6083
12.4704
12.3457
12.2325
12.1296
12.0356
11.95
11.8714
11.7995
11.7331
11.6722
11.6157
11.5637
11.5152
11.4705
11.4287
11.3899
11.3536
11.3198
11.2881
11.2583
11.2304
11.2041
11.1794
11.1558
11.1338
11.1124
11.0925
11.073
11.0548
11.0366
11.0197
11.0022
10.989
10.9778
10.9682
10.9574
10.9485
10.9379
10.9297
10.9189
10.9114
10.9002
10.8932
10.8815
10.8749
10.8626
10.8558
10.8428
10.8353
10.8211
10.8123
10.7955
10.7842
10.7625
10.7467
10.7165
10.7009
370.391
187.757
119.96
87.0606
68.1854
55.9518
47.4468
41.1799
36.3893
32.6125
29.5736
27.0827
25.017
23.2814
21.8132
20.5596
19.4826
18.5527
17.7451
17.0401
16.423
15.8801
15.4008
14.9762
14.5989
14.2629
13.9622
13.6929
13.4506
13.2323
13.0352
12.8566
12.6946
12.5471
12.4127
12.2898
12.1775
12.0743
11.9796
11.8922
11.8119
11.7375
11.6688
11.605
11.546
11.4909
11.4398
11.3921
11.3476
11.3059
11.2669
11.2303
11.1959
11.1637
11.1331
11.1044
11.077
11.0513
11.0266
11.0033
10.9807
10.9594
10.9383
10.9218
10.9087
10.8968
10.8845
10.8737
10.862
10.852
10.8405
10.8315
10.8199
10.8116
10.7998
10.792
10.7798
10.7721
10.7593
10.7513
10.7374
10.7279
10.7128
10.6996
10.6831
10.6631
10.6451
10.6186
388.79
204.558
132.392
96.6927
75.9902
62.4838
53.0426
46.0542
40.6885
36.441
33.0081
30.1823
27.8273
25.8397
24.149
22.6981
21.4447
20.3559
19.4049
18.5699
17.8343
17.1834
16.6053
16.0901
15.6297
15.2171
14.846
14.5118
14.2096
13.9359
13.6876
13.4617
13.2558
13.0676
12.8955
12.7376
12.5926
12.4591
12.3362
12.2226
12.1178
12.0205
11.9305
11.8467
11.769
11.6964
11.629
11.5659
11.5071
11.4519
11.4003
11.3519
11.3064
11.2637
11.2235
11.1856
11.1497
11.1158
11.0837
11.0532
11.0242
10.9966
10.97
10.949
10.9329
10.9177
10.903
10.8893
10.8757
10.8632
10.8504
10.8389
10.8267
10.816
10.804
10.7938
10.782
10.7719
10.7601
10.7495
10.7374
10.7253
10.7126
10.6974
10.6838
10.6637
10.6501
10.6193
405.453
221.525
145.455
107.001
84.4269
69.5918
59.1625
51.4088
45.4318
40.6841
36.8332
33.6531
30.9931
28.7405
26.8166
25.1594
23.7219
22.4677
21.3675
20.3971
19.5381
18.7744
18.0929
17.4826
16.9345
16.441
15.9949
15.5912
15.2246
14.891
14.5869
14.3091
14.0547
13.8213
13.6069
13.4095
13.2276
13.0594
12.9041
12.76
12.6266
12.5025
12.3873
12.2798
12.1798
12.0862
11.999
11.9173
11.8409
11.7692
11.702
11.6388
11.5795
11.5236
11.4711
11.4215
11.3748
11.3305
11.2888
11.2491
11.2116
11.1759
11.142
11.115
11.0949
11.0756
11.0576
11.0402
11.0239
11.0083
10.9934
10.9791
10.9653
10.9521
10.9392
10.9268
10.9145
10.9025
10.8906
10.8785
10.8667
10.8536
10.8416
10.8267
10.8141
10.796
10.7859
10.7515
419.838
238.315
159.025
117.948
93.4952
77.2893
65.8241
57.261
50.6342
45.3539
41.0581
37.5012
34.5175
31.9845
29.8147
27.9405
26.31
24.8827
23.6267
22.5154
21.5281
20.6472
19.8584
19.1495
18.5102
17.9325
17.4085
16.9323
16.4983
16.1019
15.7392
15.4065
15.1008
14.8193
14.5599
14.3201
14.0984
13.8928
13.7022
13.525
13.3603
13.2066
13.0635
12.9297
12.8049
12.6878
12.5784
12.4756
12.3793
12.2887
12.2037
12.1236
12.0483
11.9772
11.9103
11.8471
11.7875
11.7311
11.6779
11.6274
11.5798
11.5344
11.4917
11.4577
11.4325
11.4084
11.386
11.3645
11.3445
11.3254
11.3074
11.2901
11.2739
11.2582
11.2434
11.2289
11.2152
11.2016
11.1887
11.1757
11.1632
11.15
11.1378
11.1239
11.1119
11.0959
11.0892
11.048
431.305
254.489
172.916
129.46
103.171
85.5756
73.0363
63.6229
56.3081
50.4613
45.6916
41.7331
38.4049
35.5737
33.1433
31.0394
29.2052
27.596
26.1765
24.9177
23.7965
22.7936
21.8932
21.0819
20.3483
19.6834
19.0788
18.5277
18.024
17.5627
17.1393
16.7499
16.391
16.0597
15.7534
15.4696
15.2064
14.9618
14.7343
14.5223
14.3246
14.1399
13.9674
13.8057
13.6544
13.5124
13.3792
13.2539
13.1362
13.0254
12.9211
12.8227
12.73
12.6424
12.5599
12.4818
12.4081
12.3383
12.2725
12.21
12.1511
12.095
12.0421
12.0005
11.9694
11.94
11.9125
11.8865
11.8621
11.839
11.8173
11.7968
11.7774
11.759
11.7417
11.7251
11.7093
11.6942
11.6798
11.6658
11.6523
11.6391
11.6263
11.6134
11.6016
11.5878
11.5829
11.5352
439.075
269.499
186.848
141.404
113.396
94.4276
80.7927
70.4955
62.4576
56.0114
50.7381
46.3523
42.6573
39.5088
36.8012
34.4536
32.4037
30.6022
29.0104
27.5964
26.3347
25.2041
24.1871
23.2691
22.4376
21.6822
20.994
20.3654
19.7899
19.2616
18.7757
18.3279
17.9144
17.5318
17.1774
16.8483
16.5425
16.2577
15.9923
15.7445
15.5131
15.2963
15.0935
14.9031
14.7246
14.5567
14.3989
14.2504
14.1105
13.9786
13.8543
13.7369
13.6261
13.5213
13.4224
13.3288
13.2403
13.1564
13.0772
13.0021
12.9311
12.8638
12.8001
12.7502
12.7127
12.6776
12.6446
12.6136
12.5845
12.5571
12.5314
12.5072
12.4844
12.4629
12.4427
12.4237
12.4057
12.3887
12.3726
12.3573
12.3427
12.329
12.3157
12.3033
12.2914
12.2792
12.2748
12.2244
442.273
282.69
200.442
153.582
124.066
103.789
89.0619
77.8611
69.0718
61.9967
56.192
51.3537
47.2696
43.7842
40.7824
38.1763
35.8977
33.8928
32.1189
30.5413
29.1317
27.8671
26.7279
25.6983
24.7644
23.9148
23.1398
22.4308
21.7808
21.1832
20.6329
20.1248
19.6551
19.2198
18.816
18.4405
18.0911
17.7652
17.4611
17.1767
16.9106
16.6613
16.4275
16.2078
16.0015
15.8073
15.6245
15.4522
15.2897
15.1364
14.9916
14.8548
14.7255
14.6032
14.4875
14.3779
14.2742
14.176
14.083
13.9949
13.9115
13.8325
13.7576
13.6991
13.6551
13.6139
13.5752
13.5389
13.5048
13.4728
13.4428
13.4146
13.3882
13.3634
13.3402
13.3184
13.2979
13.2788
13.2608
13.244
13.2281
13.2134
13.1994
13.1868
13.1746
13.1631
13.1577
13.1087
439.908
293.292
213.204
165.711
135.015
113.557
97.7766
85.672
76.1151
68.3889
62.0297
56.7164
52.2227
48.3819
45.0697
42.1906
39.6706
37.451
35.4852
33.7353
32.1704
30.7649
29.4978
28.3513
27.3104
26.3627
25.4972
24.7047
23.9773
23.308
22.6909
22.1208
21.593
21.1035
20.6489
20.2258
19.8315
19.4636
19.1198
18.7981
18.4968
18.2141
17.9487
17.6993
17.4647
17.2437
17.0355
16.8391
16.6537
16.4786
16.3131
16.1566
16.0086
15.8685
15.7357
15.6101
15.491
15.3781
15.2712
15.1698
15.0738
14.9828
14.8966
14.8291
14.7784
14.7309
14.6863
14.6445
14.6052
14.5684
14.534
14.5016
14.4714
14.4431
14.4166
14.3918
14.3687
14.3471
14.327
14.3083
14.2909
14.2748
14.2598
14.2462
14.2334
14.2217
14.2146
14.1695
430.755
300.416
224.54
177.425
146.006
123.57
106.818
93.8371
83.5139
75.1264
68.1976
62.393
57.4737
53.2624
49.6258
46.4613
43.6888
41.2447
39.0783
37.1482
35.4209
33.8685
32.4679
31.1997
30.0476
28.9977
28.0384
27.1593
26.3519
25.6084
24.9225
24.2882
23.7007
23.1555
22.6486
22.1767
21.7366
21.3256
20.9413
20.5814
20.2441
19.9275
19.6301
19.3503
19.087
18.8388
18.6048
18.384
18.1754
17.9783
17.7919
17.6155
17.4485
17.2903
17.1404
16.9984
16.8638
16.7361
16.6151
16.5003
16.3914
16.2883
16.1905
16.1139
16.0564
16.0024
15.9518
15.9043
15.8597
15.8179
15.7788
15.7421
15.7078
15.6757
15.6458
15.6178
15.5917
15.5675
15.545
15.5241
15.5047
15.4868
15.4703
15.4552
15.441
15.4293
15.4124
15.3798
413.512
303.185
233.794
188.278
156.723
133.59
116
102.203
91.1387
82.0968
74.5964
68.2941
62.941
58.3505
54.3811
50.923
47.8905
45.215
42.8417
40.726
38.8314
37.1276
35.5895
34.196
32.9295
31.7748
30.719
29.7511
28.8616
28.0423
27.2859
26.5861
25.9376
25.3355
24.7755
24.2538
23.7671
23.3123
22.8869
22.4883
22.1145
21.7636
21.4337
21.1233
20.831
20.5554
20.2954
20.0499
19.818
19.5987
19.3912
19.1947
19.0087
18.8324
18.6653
18.5069
18.3566
18.214
18.0788
17.9504
17.8287
17.7133
17.6038
17.518
17.4535
17.3929
17.3361
17.2827
17.2327
17.1858
17.1418
17.1006
17.0621
17.026
16.9924
16.961
16.9317
16.9045
16.8792
16.8557
16.8339
16.8138
16.7952
16.7781
16.7623
16.7483
16.7315
16.7013
386.933
300.873
240.347
197.79
166.774
143.289
125.043
110.53
98.7791
89.1128
81.0572
74.2661
68.4835
63.5155
59.2135
55.4615
52.168
49.26
46.6787
44.3762
42.3131
40.4569
38.7805
37.261
35.8794
34.6192
33.4665
32.4094
31.4376
30.542
29.7149
28.9496
28.24
27.5809
26.9677
26.3963
25.863
25.3645
24.8981
24.461
24.0509
23.6657
23.3035
22.9627
22.6415
22.3387
22.0529
21.783
21.5279
21.2866
21.0582
20.842
20.6371
20.4428
20.2586
20.0839
19.9181
19.7607
19.6114
19.4696
19.3351
19.2074
19.0863
18.9911
18.9196
18.8525
18.7894
18.7301
18.6745
18.6223
18.5734
18.5275
18.4846
18.4444
18.4068
18.3717
18.339
18.3085
18.28
18.2536
18.229
18.2061
18.185
18.1653
18.1472
18.1302
18.1144
18.0853
350.352
293.239
243.803
205.516
175.705
152.24
133.555
118.46
106.108
95.8766
87.3072
80.0575
73.8683
68.5408
63.9206
59.8863
56.3418
53.2097
50.4277
47.9447
45.7188
43.7153
41.905
40.2637
38.7707
37.4085
36.1622
35.0188
33.9673
32.9981
32.1028
31.2741
30.5055
29.7915
29.1271
28.5077
27.9295
27.389
26.8831
26.4088
25.9638
25.5458
25.1526
24.7825
24.4337
24.1047
23.7942
23.5008
23.2235
22.9611
22.7127
22.4774
22.2544
22.0429
21.8424
21.652
21.4713
21.2997
21.1368
20.982
20.8351
20.6955
20.5631
20.4589
20.3806
20.3069
20.2376
20.1725
20.1114
20.054
20.0001
19.9495
19.9021
19.8576
19.816
19.777
19.7405
19.7064
19.6745
19.6448
19.617
19.591
19.5668
19.5442
19.5232
19.5031
19.4869
19.4581
306.263
280.403
244.358
211.187
183.034
159.889
140.982
125.462
112.63
101.925
92.9159
85.2676
78.7217
73.0766
68.1739
63.8882
60.1194
56.7868
53.8248
51.1799
48.8079
46.6719
44.7414
42.9905
41.3973
39.9434
38.6128
37.3918
36.2688
35.2334
34.2767
33.391
32.5695
31.8062
31.0956
30.4332
29.8147
29.2365
28.6951
28.1876
27.7113
27.2637
26.8428
26.4464
26.0728
25.7204
25.3877
25.0733
24.7761
24.4948
24.2285
23.9761
23.7369
23.51
23.2947
23.0903
22.8962
22.7118
22.5367
22.3701
22.212
22.0616
21.9189
21.8064
21.7218
21.6421
21.5671
21.4966
21.4303
21.3679
21.3093
21.2542
21.2024
21.1538
21.1081
21.0653
21.0251
20.9873
20.9519
20.9187
20.8876
20.8584
20.831
20.8053
20.7812
20.7584
20.7379
20.7117
271.09
264.534
243.536
214.433
187.642
164.864
145.896
130.143
117.017
106.012
96.7163
88.8053
82.0224
76.1647
71.0723
66.6172
62.697
59.2287
56.1449
53.3902
50.919
48.6931
46.6809
44.8555
43.1944
41.6781
40.2902
39.0165
37.8447
36.7643
35.766
34.8416
33.9841
33.1872
32.4453
31.7537
31.1079
30.504
29.9385
29.4084
28.9108
28.4433
28.0034
27.5892
27.1988
26.8305
26.4828
26.1542
25.8434
25.5493
25.2708
25.0068
24.7566
24.5192
24.2939
24.0799
23.8767
23.6835
23.5
23.3253
23.1595
23.0016
22.8518
22.7334
22.6443
22.5603
22.4812
22.4068
22.3367
22.2706
22.2085
22.1499
22.0948
22.0429
21.9941
21.9481
21.9048
21.864
21.8256
21.7895
21.7555
21.7234
21.6932
21.6648
21.6379
21.6126
21.5888
21.5636
252.474
255.399
242.747
216.071
189.827
167.232
148.248
132.391
119.128
107.981
98.5493
90.5127
83.616
77.6563
72.4726
67.9358
63.9426
60.4089
57.2663
54.4586
51.9395
49.6703
47.6187
45.7574
44.0634
42.517
41.1014
39.8023
38.6071
37.505
36.4865
35.5435
34.6686
33.8555
33.0986
32.3929
31.7338
31.1176
30.5405
29.9995
29.4917
29.0145
28.5655
28.1428
27.7443
27.3683
27.0132
26.6777
26.3603
26.0599
25.7754
25.5056
25.2498
25.007
24.7765
24.5575
24.3493
24.1513
23.963
23.7837
23.6132
23.4506
23.2961
23.1737
23.0815
22.9944
22.9123
22.8349
22.7618
22.6928
22.6278
22.5663
22.5084
22.4537
22.402
22.3533
22.3072
22.2638
22.2227
22.184
22.1473
22.1127
22.08
22.049
22.0197
21.992
21.9657
21.9403
253.881
256.229
243.177
216.245
189.957
167.324
148.314
132.441
119.168
108.012
98.5753
90.5345
83.6347
77.6724
72.4867
67.9484
63.9539
60.4191
57.2756
54.4672
51.9475
49.6777
47.6256
45.7639
44.0695
42.5228
41.107
39.8076
38.6121
37.5098
36.4912
35.548
34.6729
33.8597
33.1027
32.3968
31.7377
31.1214
30.5442
30.0031
29.4952
29.0179
28.5689
28.146
27.7474
27.3713
27.0162
26.6806
26.3631
26.0625
25.7779
25.508
25.252
25.0091
24.7783
24.559
24.3506
24.1522
23.9636
23.7838
23.6129
23.4497
23.2946
23.1717
23.0789
22.9913
22.9087
22.8306
22.7569
22.6873
22.6216
22.5595
22.5008
22.4453
22.3929
22.3433
22.2965
22.2522
22.2103
22.1707
22.1331
22.0976
22.064
22.0321
22.0019
21.9733
21.946
21.9207
274.788
266.915
244.564
215.022
188.029
165.133
146.091
130.291
117.133
106.105
96.7932
88.8699
82.0775
76.2125
71.1143
66.6544
62.7304
59.2589
56.1725
53.4155
50.9424
48.7149
46.7013
44.8747
43.2125
41.6952
40.3065
39.0321
37.8597
36.7787
35.7798
34.8549
33.9969
33.1996
32.4574
31.7655
31.1193
30.5151
29.9494
29.419
28.9212
28.4534
28.0133
27.5988
27.2082
26.8396
26.4915
26.1626
25.8514
25.5568
25.2778
25.0133
24.7623
24.5241
24.2978
24.0827
23.8781
23.6834
23.4982
23.3216
23.1535
22.993
22.8403
22.7192
22.6277
22.5413
22.4597
22.3826
22.3097
22.2408
22.1756
22.114
22.0557
22.0005
21.9483
21.8989
21.8522
21.8079
21.766
21.7263
21.6886
21.653
21.6192
21.5871
21.5566
21.5277
21.5002
21.4752
310.954
283.3
245.933
212.163
183.71
160.388
141.367
125.77
112.883
102.138
93.0984
85.4263
78.8618
73.2015
68.2866
63.9906
60.2134
56.8734
53.9054
51.2551
48.8785
46.7385
44.8044
43.0504
41.4544
39.998
38.6652
37.4422
36.3173
35.2802
34.322
33.435
32.6122
31.8477
31.136
30.4726
29.8532
29.2741
28.7319
28.2236
27.7465
27.2983
26.8766
26.4795
26.1053
25.7522
25.4188
25.1037
24.8056
24.5234
24.2561
24.0027
23.7623
23.534
23.3171
23.1109
22.9148
22.7281
22.5504
22.3808
22.2194
22.0652
21.9183
21.8017
21.7136
21.6303
21.5516
21.4772
21.4067
21.3401
21.277
21.2173
21.1608
21.1073
21.0567
21.0086
20.9632
20.9201
20.8792
20.8405
20.8037
20.7689
20.7358
20.7044
20.6746
20.6463
20.6192
20.5952
354.323
295.886
245.696
206.935
176.825
153.153
134.319
119.111
106.672
96.3714
87.7467
80.4518
74.2255
68.8668
64.2204
60.1637
56.6
53.4512
50.6547
48.1589
45.9217
43.9081
42.0889
40.4395
38.9393
37.5705
36.3182
35.1694
34.1129
33.1392
32.2397
31.4071
30.635
29.9177
29.2501
28.6279
28.047
27.504
26.9957
26.5193
26.0722
25.6521
25.257
24.8851
24.5345
24.2038
23.8915
23.5964
23.3173
23.0531
22.8028
22.5655
22.3404
22.1266
21.9235
21.7304
21.5467
21.3717
21.2051
21.0462
20.8947
20.7499
20.6119
20.5024
20.4196
20.3412
20.2671
20.197
20.1307
20.0678
20.0083
19.952
19.8986
19.848
19.8001
19.7546
19.7115
19.6707
19.6319
19.5952
19.5603
19.5273
19.4958
19.466
19.4377
19.4109
19.3848
19.363
389.977
303.511
242.568
199.65
168.343
144.625
126.193
111.531
99.6595
89.8954
81.7593
74.9013
69.0628
64.0473
59.705
55.9182
52.5947
49.6603
47.056
44.733
42.6518
40.7794
39.0884
37.5558
36.1623
34.8914
33.7289
32.6628
31.6827
30.7796
29.9455
29.1737
28.4581
27.7935
27.1751
26.5989
26.0611
25.5585
25.088
24.6472
24.2335
23.8451
23.4797
23.1358
22.8117
22.5061
22.2175
21.9449
21.687
21.4429
21.2118
20.9926
20.7847
20.5873
20.3997
20.2214
20.0517
19.8901
19.7361
19.5892
19.4492
19.3154
19.1876
19.0863
19.0096
18.9371
18.8684
18.8035
18.7419
18.6836
18.6284
18.5761
18.5265
18.4796
18.435
18.3928
18.3527
18.3147
18.2787
18.2445
18.212
18.1812
18.152
18.1242
18.0978
18.073
18.0483
18.0292
415.998
305.983
236.411
190.589
158.728
135.325
117.509
103.527
92.3104
83.143
75.5385
69.1492
63.7228
59.0699
55.0472
51.5429
48.4703
45.7596
43.3555
41.2123
39.2932
37.5675
36.0097
34.5985
33.3158
32.1464
31.0773
30.0971
29.1963
28.3666
27.6005
26.892
26.2352
25.6254
25.0582
24.5299
24.0369
23.5764
23.1454
22.7417
22.363
22.0075
21.6731
21.3586
21.0622
20.7828
20.519
20.2699
20.0343
19.8114
19.6002
19.4001
19.2103
19.0301
18.8589
18.6961
18.5412
18.3937
18.2532
18.1192
17.9913
17.8691
17.7524
17.6598
17.5898
17.5235
17.4608
17.4014
17.3451
17.2918
17.2413
17.1934
17.1481
17.105
17.0643
17.0256
16.9889
16.9541
16.9211
16.8897
16.86
16.8318
16.805
16.7796
16.7553
16.7329
16.7097
16.6931
433.07
303.56
227.616
180.182
148.414
125.662
108.643
95.4412
84.9357
76.3981
69.3442
63.4351
58.4274
54.1407
50.4397
47.2191
44.3979
41.911
39.7069
37.7433
35.9861
34.4068
32.982
31.6919
30.5199
29.452
28.476
27.5818
26.7603
26.004
25.3061
24.6609
24.063
23.5083
22.9924
22.5122
22.0642
21.646
21.2547
20.8885
20.5449
20.2226
19.9196
19.6347
19.3662
19.1133
18.8746
18.6493
18.4362
18.2348
18.0439
17.8632
17.6917
17.529
17.3745
17.2276
17.0878
16.9547
16.8279
16.707
16.5917
16.4815
16.3761
16.2927
16.2295
16.1697
16.1131
16.0596
16.0088
15.9607
15.9151
15.8719
15.831
15.7922
15.7554
15.7204
15.6873
15.6559
15.6261
15.5978
15.571
15.5456
15.5213
15.4986
15.4764
15.4567
15.4351
15.421
442.376
296.933
216.772
168.889
137.778
115.952
99.8632
87.5055
77.7402
69.8428
63.3409
57.9085
53.314
49.3872
46.0012
43.058
40.4822
38.2135
36.2045
34.4158
32.8165
31.3799
30.0848
28.9129
27.849
26.8802
25.9954
25.1852
24.4414
23.7571
23.1259
22.5429
22.0029
21.5023
21.037
20.6042
20.2006
19.8242
19.4721
19.1428
18.8341
18.5447
18.2727
18.0171
17.7764
17.5499
17.3361
17.1345
16.9438
16.7637
16.5932
16.4318
16.2786
16.1335
15.9956
15.8646
15.74
15.6215
15.5085
15.4009
15.2981
15.2001
15.1063
15.0321
14.9759
14.9228
14.8724
14.8248
14.7797
14.737
14.6964
14.6581
14.6217
14.5872
14.5545
14.5235
14.4941
14.4662
14.4397
14.4147
14.3907
14.3683
14.3466
14.3267
14.3067
14.2898
14.2699
14.2581
445.147
286.918
204.493
157.132
127.125
106.427
91.3545
79.8726
70.8531
63.5899
57.6284
52.6595
48.4646
44.8848
41.802
39.1253
36.7852
34.7261
32.9042
31.2837