/*--------------------------------*- C++ -*----------------------------------*\
| =========                 |                                                 |
| \\      /  F ield         | OpenFOAM: The Open Source CFD Toolbox           |
|  \\    /   O peration     | Version:  2306                                  |
|   \\  /    A nd           | Website:  www.openfoam.com                      |
|    \\/     M anipulation  |                                                 |
\*---------------------------------------------------------------------------*/
FoamFile
{
    version     2.0;
    format      ascii;
    arch        "LSB;label=32;scalar=64";
    class       volScalarField;
    location    "2000";
    object      mag(U);
}
// * * * * * * * * * * * * * * * * * * * * * * * * * * * * * * * * * * * * * //

dimensions      [0 1 -1 0 0 0 0];

internalField   nonuniform List<scalar> 
20540
(
29.2912
28.3959
29.3075
28.4124
29.329
28.4339
29.3567
28.4619
29.3922
28.4976
29.437
28.5429
29.4932
28.5997
29.563
28.6703
29.6492
28.7576
29.755
28.8651
29.8846
28.9969
30.0422
29.1577
30.2335
29.3536
30.4649
29.5915
30.7438
29.8795
31.079
30.2276
31.4802
30.6471
31.959
31.1514
32.5278
31.7557
33.2005
32.4777
33.992
33.3368
34.9182
34.3547
35.9947
35.5537
37.2368
36.9565
38.6582
38.5838
40.2705
40.4521
42.0824
42.5682
44.1005
44.9232
46.3312
47.4801
48.7739
50.1429
51.0103
52.3543
52.4771
53.6105
52.3549
53.5122
50.7442
52.0991
48.47
49.8149
46.0528
47.159
43.8389
44.6095
41.8251
42.2549
40.0062
40.13
38.3772
38.2439
36.9312
36.5908
35.6586
35.1565
34.5476
33.9223
33.5844
32.8672
32.7547
31.9702
32.0442
31.211
31.4387
30.5708
30.9251
30.0329
30.4912
29.5821
30.1259
29.2053
29.8194
28.891
29.5631
28.6296
29.3495
28.4125
29.1719
28.2329
29.0248
28.0845
28.9033
27.9623
28.8035
27.8621
28.7217
27.7802
28.6552
27.7136
28.6013
27.6598
28.5581
27.6167
28.5237
27.5824
28.4967
27.5555
28.4758
27.5347
28.4598
27.5188
9.25791
6.18817
5.52541
5.07967
4.82146
4.60395
4.44545
4.3097
4.1982
4.10152
4.01804
3.94438
3.87933
3.82098
3.76875
3.72155
3.67867
3.63967
3.60405
3.57137
3.54131
3.51362
3.48804
3.46433
3.44233
3.42188
3.40282
3.38504
3.36842
3.35287
3.33829
3.32461
3.31176
3.29967
3.28829
3.27756
3.26745
3.2579
3.24889
3.24038
3.23234
3.22476
3.21761
3.21087
3.20455
3.19863
3.19311
3.188
3.18331
3.17906
3.17527
3.17197
3.1692
3.16701
3.16545
3.16458
3.16449
3.16526
3.16704
3.16987
3.174
3.17949
3.18663
3.194
3.20078
3.20838
3.21689
3.22624
3.2365
3.24769
3.25991
3.27315
3.28755
3.30306
3.32001
3.33814
3.35851
3.37975
3.40557
3.43035
3.46573
3.49426
3.5483
3.57793
3.69146
3.66628
4.18781
3.17759
23.082
18.6167
16.9201
15.6928
14.9563
14.3316
13.8693
13.4719
13.143
12.8567
12.6085
12.3889
12.1943
12.0194
11.8624
11.7203
11.591
11.4733
11.3655
11.2666
11.1755
11.0914
11.0137
10.9416
10.8747
10.8124
10.7543
10.7001
10.6495
10.602
10.5575
10.5157
10.4764
10.4394
10.4046
10.3718
10.3409
10.3116
10.284
10.258
10.2333
10.2101
10.1881
10.1675
10.148
10.1298
10.1128
10.0971
10.0825
10.0693
10.0575
10.0472
10.0383
10.0312
10.026
10.0228
10.0218
10.0234
10.0279
10.0355
10.0467
10.0619
10.0819
10.1027
10.122
10.1435
10.1675
10.1938
10.2228
10.2544
10.2888
10.3259
10.3662
10.4096
10.4568
10.5073
10.5638
10.6223
10.693
10.7597
10.8546
10.9282
11.0697
11.139
11.4339
11.3205
12.652
10.3224
28.5599
26.6866
25.2065
23.8149
22.9329
22.1601
21.5791
21.0741
20.6526
20.2833
19.9612
19.6747
19.4198
19.1896
18.9824
18.7941
18.6223
18.4653
18.3213
18.1887
18.0664
17.9533
17.8485
17.7511
17.6605
17.5761
17.4973
17.4236
17.3546
17.2898
17.2291
17.1719
17.1182
17.0676
17.0199
16.9748
16.9323
16.8922
16.8542
16.8183
16.7844
16.7523
16.722
16.6935
16.6666
16.6414
16.6179
16.5961
16.5759
16.5576
16.5412
16.5267
16.5144
16.5044
16.497
16.4923
16.4908
16.4927
16.4985
16.5086
16.5237
16.5441
16.571
16.599
16.6249
16.6537
16.6859
16.7213
16.7601
16.8022
16.8481
16.8975
16.9511
17.0085
17.071
17.1371
17.2113
17.2868
17.3784
17.4631
17.5837
17.6759
17.8518
17.932
18.2955
18.1188
19.6415
17.3828
30.8434
30.7672
29.934
28.6708
27.8063
27.0097
26.4005
25.8649
25.4149
25.0189
24.6724
24.3635
24.0881
23.8391
23.6146
23.4105
23.2239
23.0534
22.8969
22.7526
22.6195
22.4963
22.3821
22.2759
22.1771
22.085
21.9989
21.9184
21.843
21.7723
21.7059
21.6434
21.5846
21.5293
21.477
21.4277
21.3812
21.3372
21.2956
21.2563
21.2191
21.1839
21.1508
21.1195
21.09
21.0624
21.0366
21.0126
20.9905
20.9704
20.9524
20.9365
20.923
20.912
20.9039
20.8988
20.8971
20.8991
20.9055
20.9165
20.9331
20.9554
20.9849
21.0156
21.0439
21.0753
21.1104
21.1489
21.1911
21.2368
21.2867
21.3403
21.3985
21.4604
21.5282
21.5991
21.6793
21.7595
21.8578
21.947
22.0743
22.1713
22.3531
22.4359
22.8007
22.6349
24.0097
22.2923
32.1014
33.0513
32.8728
31.8515
31.0727
30.2936
29.6817
29.1332
28.6678
28.2554
27.8929
27.5688
27.2791
27.0168
26.7799
26.5642
26.367
26.1866
26.0209
25.8682
25.7271
25.5965
25.4755
25.363
25.2581
25.1604
25.0691
24.9837
24.9037
24.8286
24.7581
24.6918
24.6294
24.5706
24.5152
24.4628
24.4134
24.3666
24.3225
24.2807
24.2412
24.2038
24.1686
24.1353
24.104
24.0747
24.0472
24.0218
23.9983
23.9769
23.9576
23.9408
23.9263
23.9146
23.9058
23.9003
23.8984
23.9004
23.9069
23.9184
23.9357
23.9591
23.99
24.0222
24.0518
24.0847
24.1213
24.1616
24.2057
24.2534
24.3055
24.3612
24.4219
24.4862
24.5569
24.6301
24.7135
24.7956
24.8972
24.9883
25.118
25.2168
25.3986
25.4834
25.8321
25.7105
26.863
25.7014
32.9394
34.4752
34.8254
34.0972
33.4627
32.7432
32.1555
31.6127
31.1448
30.7255
30.3542
30.0204
29.721
29.4491
29.2029
28.9785
28.773
28.5848
28.4117
28.2521
28.1045
27.9679
27.8412
27.7233
27.6134
27.5111
27.4153
27.3258
27.2419
27.1631
27.0891
27.0196
26.9541
26.8924
26.8342
26.7792
26.7273
26.6782
26.6319
26.588
26.5465
26.5073
26.4702
26.4353
26.4024
26.3715
26.3427
26.3159
26.2912
26.2686
26.2483
26.2305
26.2152
26.2028
26.1934
26.1874
26.1851
26.1869
26.1934
26.2049
26.2226
26.2465
26.2782
26.3112
26.3416
26.3754
26.413
26.4542
26.4994
26.5483
26.6016
26.6586
26.7207
26.7862
26.8585
26.9328
27.018
27.1009
27.2039
27.2956
27.4256
27.5247
27.7047
27.7904
28.1193
28.0485
28.9822
28.2936
33.5684
35.4557
36.1872
35.7399
35.2827
34.6592
34.1233
33.6065
33.1507
32.7353
32.3635
32.0265
31.7222
31.4448
31.1927
30.9622
30.7507
30.5566
30.3779
30.2128
30.0601
29.9185
29.7871
29.6648
29.5508
29.4445
29.345
29.2519
29.1647
29.0828
29.0059
28.9335
28.8653
28.8011
28.7405
28.6832
28.6292
28.5781
28.5297
28.484
28.4408
28.3999
28.3613
28.3248
28.2906
28.2584
28.2282
28.2003
28.1744
28.1508
28.1296
28.1109
28.0948
28.0816
28.0716
28.065
28.0623
28.0637
28.07
28.0814
28.0991
28.1231
28.1551
28.1886
28.2193
28.2535
28.2915
28.3333
28.379
28.4284
28.4823
28.5398
28.6026
28.6685
28.7415
28.816
28.9017
28.9847
29.0878
29.1793
29.3084
29.4067
29.584
29.6695
29.9792
29.9531
30.701
30.3611
34.0787
36.1891
37.1841
36.9716
36.6941
36.189
35.7283
35.2577
34.8298
34.4308
34.068
33.7352
33.4321
33.154
32.8998
32.6665
32.4516
32.2539
32.0714
31.9025
31.746
31.6008
31.4658
31.34
31.2227
31.1132
31.0106
30.9146
30.8246
30.74
30.6606
30.5858
30.5153
30.4489
30.3862
30.327
30.2711
30.2182
30.1682
30.1208
30.0761
30.0337
29.9937
29.956
29.9204
29.887
29.8558
29.8267
29.7999
29.7753
29.7532
29.7336
29.7168
29.7029
29.6922
29.685
29.6818
29.6828
29.6887
29.6998
29.7172
29.7411
29.7729
29.8064
29.8372
29.8715
29.9095
29.9513
29.9971
30.0466
30.1005
30.1579
30.2207
30.2865
30.3594
30.4337
30.5189
30.6015
30.7036
30.7944
30.9216
31.0184
31.1923
31.2775
31.5682
31.5788
32.1799
32.0598
34.5159
36.7741
37.9498
37.9197
37.8023
37.4204
37.0491
36.6411
36.2562
35.8865
35.5432
35.2235
34.9286
34.6555
34.404
34.1716
33.9567
33.7581
33.5741
33.4034
33.2449
33.0974
32.9601
32.832
32.7123
32.6005
32.4957
32.3974
32.3053
32.2186
32.1371
32.0604
31.9881
31.9198
31.8554
31.7946
31.7371
31.6827
31.6312
31.5825
31.5364
31.4928
31.4516
31.4127
31.376
31.3416
31.3093
31.2793
31.2515
31.2261
31.2032
31.1828
31.1652
31.1507
31.1393
31.1315
31.1277
31.1281
31.1336
31.1442
31.1612
31.1846
31.2161
31.2493
31.2798
31.3138
31.3516
31.3931
31.4386
31.4877
31.5412
31.5982
31.6605
31.7258
31.7978
31.8715
31.9554
32.0374
32.1375
32.2274
32.3518
32.4471
32.6161
32.702
32.973
33.0126
33.5032
33.498
34.9062
37.2644
38.5645
38.6711
38.6854
38.4171
38.1379
37.8018
37.4713
37.1425
36.8293
36.5318
36.2529
35.9916
35.7484
35.5218
35.3109
35.1147
34.9323
34.7622
34.6038
34.4559
34.3179
34.1889
34.0681
33.955
33.8489
33.7493
33.6557
33.5677
33.4848
33.4067
33.333
33.2635
33.1978
33.1356
33.0769
33.0213
32.9687
32.9189
32.8717
32.8271
32.7849
32.745
32.7074
32.6721
32.639
32.6082
32.5796
32.5534
32.5298
32.5087
32.4904
32.4752
32.4632
32.4548
32.4504
32.4502
32.455
32.465
32.4814
32.5042
32.5351
32.5677
32.5978
32.6313
32.6686
32.7095
32.7544
32.8028
32.8556
32.9119
32.9732
33.0376
33.1084
33.1811
33.2632
33.3442
33.4417
33.5306
33.6513
33.7454
33.908
33.9957
34.2467
34.3074
34.7171
34.7563
35.2661
37.6915
39.0774
39.2849
39.4024
39.2309
39.037
38.7738
38.5033
38.2232
37.9487
37.6818
37.4269
37.1844
36.9557
36.7404
36.5382
36.3487
36.1712
36.0049
35.8493
35.7035
35.5668
35.4387
35.3184
35.2055
35.0993
34.9995
34.9055
34.817
34.7335
34.6547
34.5803
34.5101
34.4436
34.3807
34.3212
34.2649
34.2115
34.1609
34.113
34.0676
34.0247
33.9841
33.9459
33.9099
33.8761
33.8446
33.8155
33.7887
33.7644
33.7427
33.7239
33.7081
33.6955
33.6865
33.6815
33.6807
33.6849
33.6942
33.7099
33.7319
33.762
33.7938
33.8233
33.8561
33.8926
33.9328
33.9768
34.0244
34.0762
34.1314
34.1915
34.2546
34.3239
34.3953
34.4754
34.555
34.6496
34.7372
34.8537
34.9471
35.1019
35.192
35.4228
35.498
35.847
35.893
35.6071
38.0752
39.5194
39.8009
39.997
39.9039
39.7835
39.5875
39.3763
39.1477
38.9169
38.6868
38.4623
38.245
38.037
37.8386
37.6502
37.472
37.3037
37.1449
36.9953
36.8543
36.7216
36.5966
36.4788
36.3679
36.2634
36.1647
36.0717
35.9838
35.9008
35.8224
35.7482
35.6779
35.6115
35.5485
35.4888
35.4323
35.3786
35.3277
35.2795
35.2338
35.1906
35.1496
35.111
35.0746
35.0405
35.0086
34.979
34.9518
34.9271
34.905
34.8858
34.8695
34.8564
34.8469
34.8413
34.84
34.8436
34.8522
34.8671
34.8883
34.9174
34.9483
34.977
35.009
35.0447
35.0839
35.1269
35.1734
35.224
35.2779
35.3366
35.3983
35.4659
35.5356
35.6136
35.6915
35.7831
35.8693
35.9811
36.0737
36.2202
36.3128
36.5239
36.6077
36.9081
36.9462
35.9382
38.429
39.9111
40.2462
40.5013
40.4696
40.4093
40.2712
40.1139
39.9349
39.7484
39.5577
39.3676
39.1801
38.9978
38.8212
38.6515
38.4892
38.3344
38.1869
38.047
37.9142
37.7884
37.6693
37.5565
37.4498
37.3488
37.2533
37.1628
37.0771
36.9959
36.919
36.8462
36.7771
36.7115
36.6493
36.5903
36.5342
36.481
36.4305
36.3825
36.337
36.2939
36.2531
36.2145
36.1781
36.144
36.112
36.0824
36.0551
36.0302
36.008
35.9885
35.9719
35.9586
35.9487
35.9427
35.9408
35.9439
35.9519
35.9661
35.9864
36.0145
36.0445
36.0724
36.1034
36.1382
36.1763
36.2182
36.2635
36.3128
36.3653
36.4224
36.4825
36.5482
36.6162
36.6918
36.7679
36.8564
36.9408
37.0478
37.1396
37.2775
37.3719
37.5642
37.652
37.9115
37.937
36.2663
38.7625
40.2664
40.6397
40.9381
40.9536
40.9409
40.8504
40.7392
40.6045
40.4594
40.3071
40.1521
39.9964
39.8424
39.6912
39.5439
39.4012
39.2636
39.1313
39.0046
38.8834
38.7678
38.6574
38.5524
38.4525
38.3574
38.267
38.181
38.0994
38.0217
37.9479
37.8778
37.8111
37.7477
37.6873
37.63
37.5754
37.5235
37.4742
37.4272
37.3826
37.3403
37.3002
37.2623
37.2264
37.1928
37.1612
37.1319
37.1049
37.0803
37.0581
37.0387
37.0222
37.0088
36.9988
36.9927
36.9905
36.9931
37.0006
37.0142
37.0337
37.0609
37.0899
37.117
37.1472
37.181
37.218
37.2587
37.3027
37.3506
37.4016
37.4571
37.5156
37.5793
37.6454
37.7186
37.7928
37.8779
37.9605
38.0625
38.1533
38.2824
38.3775
38.552
38.6398
38.8644
38.8774
36.5981
39.0832
40.5957
40.9947
41.3242
41.3752
41.3991
41.3466
41.2733
41.1761
41.0672
40.9499
40.8278
40.7031
40.5778
40.453
40.3299
40.2092
40.0915
39.9771
39.8665
39.7598
39.6571
39.5584
39.4638
39.3731
39.2864
39.2035
39.1242
39.0486
38.9763
38.9074
38.8416
38.7789
38.719
38.6619
38.6075
38.5556
38.5061
38.4589
38.4139
38.3712
38.3305
38.2919
38.2553
38.2207
38.1881
38.1576
38.1292
38.103
38.079
38.0575
38.0387
38.0225
38.0095
37.9997
37.9937
37.9915
37.994
38.0012
38.0143
38.0333
38.0596
38.0878
38.1142
38.1435
38.1763
38.2123
38.2518
38.2945
38.341
38.3906
38.4444
38.5011
38.5629
38.6271
38.6977
38.7699
38.8516
38.9324
39.0294
39.1186
39.239
39.3333
39.4907
39.5758
39.7701
39.7743
36.9397
39.3972
40.9065
41.3211
41.6716
41.7486
41.8004
41.7774
41.7342
41.6677
41.5892
41.5018
41.4088
41.3123
41.2138
41.1144
41.0153
40.917
40.82
40.725
40.6322
40.5418
40.4541
40.3691
40.287
40.2078
40.1316
40.0582
39.9877
39.92
39.855
39.7928
39.7331
39.6759
39.6211
39.5687
39.5186
39.4706
39.4248
39.3809
39.3391
39.2991
39.2611
39.2248
39.1905
39.1579
39.1273
39.0985
39.0717
39.0469
39.0243
39.004
38.9862
38.971
38.9588
38.9496
38.9441
38.9423
38.9451
38.9524
38.9653
38.9839
39.0097
39.0373
39.063
39.0915
39.1235
39.1585
39.1969
39.2385
39.2836
39.3317
39.3839
39.439
39.4987
39.5609
39.629
39.699
39.7775
39.8559
39.948
40.035
40.1469
40.2389
40.3797
40.4602
40.6279
40.6288
37.2976
39.7096
41.2049
41.6263
41.9895
42.0849
42.157
42.1566
42.1369
42.0947
42.0409
41.9783
41.9099
41.8376
41.7627
41.6862
41.6091
41.5319
41.4551
41.379
41.3041
41.2306
41.1586
41.0884
41.0201
40.9537
40.8894
40.8271
40.7668
40.7086
40.6525
40.5984
40.5463
40.4962
40.448
40.4016
40.3571
40.3144
40.2734
40.234
40.1964
40.1604
40.126
40.0932
40.062
40.0324
40.0045
39.9782
39.9538
39.9312
39.9106
39.8922
39.8761
39.8624
39.8515
39.8436
39.8391
39.8382
39.8416
39.8493
39.8625
39.8812
39.9067
39.9339
39.9591
39.9871
40.0183
40.0526
40.09
40.1304
40.1742
40.2212
40.2717
40.3251
40.3827
40.4431
40.5087
40.5765
40.6514
40.7275
40.8144
40.8986
41.0018
41.0902
41.2148
41.2898
41.4337
41.4362
37.6784
40.0257
41.4962
41.9161
42.2847
42.392
42.4785
42.4948
42.4931
42.4698
42.4356
42.393
42.3446
42.2924
42.2374
42.1807
42.1228
42.0642
42.0055
41.947
41.8889
41.8314
41.7748
41.7191
41.6646
41.6113
41.5593
41.5087
41.4594
41.4116
41.3652
41.3202
41.2767
41.2346
41.194
41.1548
41.1169
41.0804
41.0453
41.0115
40.9791
40.9479
40.9181
40.8896
40.8624
40.8366
40.8123
40.7894
40.768
40.7484
40.7305
40.7146
40.7008
40.6893
40.6804
40.6742
40.6713
40.6717
40.6762
40.6849
40.6988
40.7179
40.7436
40.7707
40.7956
40.8233
40.8539
40.8875
40.9241
40.9636
41.0063
41.0519
41.1008
41.1527
41.2083
41.2668
41.3298
41.3954
41.4667
41.5399
41.6215
41.7021
41.7964
41.88
41.9888
42.0581
42.1804
42.1878
38.0896
40.3503
41.7847
42.1954
42.5628
42.6763
42.772
42.8003
42.8119
42.8032
42.7842
42.7574
42.7251
42.6892
42.6505
42.61
42.5682
42.5255
42.4824
42.4391
42.3958
42.3527
42.31
42.2678
42.2262
42.1852
42.1451
42.1058
42.0673
42.0298
41.9932
41.9576
41.923
41.8893
41.8567
41.8251
41.7944
41.7648
41.7361
41.7085
41.6818
41.6562
41.6315
41.608
41.5855
41.5641
41.5439
41.5249
41.5073
41.4912
41.4766
41.4638
41.4528
41.444
41.4375
41.4336
41.4327
41.435
41.4411
41.4512
41.4661
41.4861
41.5123
41.5395
41.5644
41.5919
41.6222
41.6552
41.6911
41.7298
41.7714
41.8158
41.8632
41.9136
41.9673
42.0237
42.0841
42.1471
42.2148
42.2847
42.3607
42.4369
42.522
42.5996
42.6934
42.7571
42.8596
42.8728
38.5396
40.6886
42.0748
42.4682
42.8281
42.9427
43.0432
43.0794
43.1006
43.1027
43.0954
43.0808
43.0613
43.0383
43.0127
42.9853
42.9567
42.9271
42.8969
42.8664
42.8356
42.8048
42.7741
42.7435
42.7133
42.6834
42.6539
42.6248
42.5963
42.5684
42.541
42.5142
42.4881
42.4626
42.4377
42.4135
42.39
42.3672
42.3451
42.3237
42.303
42.283
42.2638
42.2454
42.2278
42.2111
42.1954
42.1807
42.1671
42.1548
42.1438
42.1343
42.1266
42.1208
42.1171
42.1158
42.1172
42.1216
42.1296
42.1413
42.1577
42.1787
42.2057
42.2333
42.2583
42.2857
42.3157
42.3485
42.3838
42.4216
42.4622
42.5054
42.5515
42.6002
42.6519
42.7061
42.7637
42.8239
42.8877
42.9536
43.0238
43.0945
43.1704
43.2411
43.3208
43.3789
43.4637
43.4814
39.038
41.0457
42.3703
42.7379
43.084
43.1951
43.2964
43.3371
43.3646
43.3745
43.376
43.3708
43.361
43.3482
43.333
43.3161
43.298
43.279
43.2593
43.2391
43.2187
43.198
43.1773
43.1566
43.1359
43.1153
43.095
43.0748
43.055
43.0354
43.0161
42.9972
42.9787
42.9605
42.9427
42.9254
42.9085
42.892
42.876
42.8604
42.8453
42.8308
42.8168
42.8034
42.7906
42.7785
42.7671
42.7566
42.747
42.7385
42.7311
42.7251
42.7206
42.7178
42.7169
42.7183
42.7221
42.7288
42.7387
42.7522
42.77
42.7923
42.8201
42.8481
42.8733
42.9007
42.9306
42.9629
42.9975
43.0346
43.0742
43.1162
43.1606
43.2076
43.2571
43.309
43.3635
43.4203
43.4798
43.5412
43.6051
43.6694
43.7361
43.799
43.8661
43.9182
43.9871
44.0077
39.5961
41.428
42.6752
43.0075
43.3335
43.4364
43.535
43.577
43.6082
43.6233
43.6311
43.6329
43.6307
43.6257
43.6186
43.61
43.6003
43.5897
43.5784
43.5666
43.5544
43.542
43.5294
43.5167
43.5039
43.491
43.4782
43.4655
43.4528
43.4403
43.4279
43.4157
43.4036
43.3917
43.3801
43.3686
43.3575
43.3465
43.3359
43.3255
43.3154
43.3057
43.2964
43.2874
43.279
43.271
43.2637
43.257
43.2511
43.246
43.242
43.2392
43.2377
43.2377
43.2395
43.2434
43.2495
43.2582
43.2701
43.2852
43.3044
43.3278
43.3563
43.3847
43.4099
43.4373
43.4668
43.4985
43.5325
43.5687
43.607
43.6475
43.6902
43.7351
43.7821
43.8311
43.8822
43.9351
43.9898
44.0458
44.1029
44.1601
44.2178
44.2725
44.3281
44.3738
44.429
44.4504
40.2269
41.8419
42.993
43.2797
43.5787
43.669
43.7614
43.802
43.8344
43.8526
43.8646
43.8715
43.875
43.876
43.8753
43.8731
43.87
43.866
43.8614
43.8563
43.8507
43.8449
43.8388
43.8325
43.826
43.8194
43.8127
43.806
43.7992
43.7924
43.7857
43.7789
43.7722
43.7655
43.759
43.7525
43.7461
43.7398
43.7336
43.7276
43.7218
43.7162
43.7108
43.7058
43.701
43.6966
43.6927
43.6893
43.6866
43.6846
43.6835
43.6834
43.6845
43.687
43.6911
43.6971
43.7052
43.7157
43.7291
43.7456
43.7659
43.7901
43.8191
43.8476
43.8727
43.8997
43.9286
43.9596
43.9926
44.0274
44.0643
44.103
44.1436
44.1859
44.2299
44.2755
44.3225
44.3708
44.42
44.4698
44.5198
44.5694
44.6182
44.6645
44.7099
44.7489
44.7922
44.8127
40.9452
42.2951
43.3274
43.5565
43.8214
43.8945
43.9774
44.014
44.0455
44.065
44.0795
44.0899
44.0975
44.1031
44.1071
44.11
44.1119
44.1132
44.1138
44.114
44.1137
44.1131
44.1122
44.111
44.1096
44.108
44.1062
44.1043
44.1023
44.1001
44.0978
44.0955
44.0931
44.0907
44.0882
44.0857
44.0832
44.0807
44.0782
44.0758
44.0735
44.0712
44.0691
44.0672
44.0655
44.0641
44.063
44.0623
44.0622
44.0627
44.064
44.0662
44.0695
44.074
44.08
44.0877
44.0973
44.1092
44.1238
44.1412
44.1621
44.1867
44.2158
44.244
44.2687
44.295
44.3231
44.3528
44.3844
44.4175
44.4524
44.4887
44.5265
44.5657
44.6061
44.6475
44.6897
44.7326
44.7757
44.8188
44.8612
44.9028
44.9429
44.981
45.0172
45.0492
45.0823
45.1006
41.7675
42.7953
43.6808
43.839
44.0622
44.1138
44.1839
44.2144
44.2431
44.2621
44.2778
44.2903
44.3006
44.3095
44.3172
44.3239
44.3298
44.3352
44.3399
44.3443
44.3482
44.3517
44.3549
44.3578
44.3604
44.3627
44.3649
44.3668
44.3685
44.37
44.3713
44.3725
44.3736
44.3745
44.3753
44.376
44.3766
44.3772
44.3777
44.3781
44.3785
44.379
44.3795
44.3801
44.3808
44.3818
44.383
44.3845
44.3865
44.389
44.3922
44.3962
44.4011
44.4072
44.4146
44.4235
44.4343
44.4471
44.4623
44.4802
44.5014
44.5258
44.5545
44.5818
44.6055
44.6308
44.6574
44.6855
44.7151
44.7459
44.7782
44.8115
44.8458
44.881
44.917
44.9534
44.99
45.0268
45.0631
45.0989
45.1337
45.1671
45.199
45.2289
45.2569
45.282
45.3066
45.3215
42.7106
43.3501
44.0549
44.1272
44.301
44.3266
44.3812
44.4033
44.4275
44.4448
44.4603
44.4738
44.486
44.4971
44.5074
44.517
44.526
44.5345
44.5425
44.5501
44.5573
44.5641
44.5705
44.5766
44.5824
44.5879
44.5932
44.5981
44.6028
44.6072
44.6114
44.6154
44.6192
44.6228
44.6262
44.6294
44.6325
44.6355
44.6383
44.641
44.6436
44.6462
44.6488
44.6514
44.6541
44.6569
44.6598
44.6631
44.6667
44.6707
44.6753
44.6807
44.6868
44.694
44.7023
44.7121
44.7235
44.7367
44.7522
44.7701
44.7908
44.8146
44.842
44.8679
44.8902
44.9137
44.9384
44.9642
44.9911
45.0189
45.0476
45.0771
45.1071
45.1376
45.1682
45.1988
45.2292
45.2591
45.2884
45.3166
45.3437
45.3696
45.3939
45.4162
45.4366
45.4547
45.4712
45.4817
43.7894
43.965
44.4484
44.4193
44.536
44.5316
44.5681
44.5801
44.5985
44.6129
44.6273
44.6408
44.6539
44.6665
44.6786
44.6904
44.7017
44.7126
44.7231
44.7333
44.743
44.7524
44.7614
44.7701
44.7784
44.7864
44.7941
44.8014
44.8084
44.8152
44.8217
44.8278
44.8338
44.8395
44.8449
44.8502
44.8552
44.86
44.8647
44.8692
44.8736
44.8779
44.8821
44.8862
44.8904
44.8946
44.8989
44.9035
44.9083
44.9135
44.9191
44.9253
44.9323
44.9402
44.9491
44.9592
44.9707
44.9839
44.9991
45.0163
45.0361
45.0584
45.0838
45.1076
45.1278
45.1488
45.1708
45.1935
45.2168
45.2409
45.2653
45.29
45.3148
45.3396
45.3642
45.3884
45.412
45.435
45.457
45.4779
45.4977
45.5157
45.5317
45.5462
45.5588
45.5698
45.5792
45.5851
45.0099
44.6375
44.856
44.7099
44.7629
44.7256
44.7421
44.7428
44.7543
44.7649
44.7774
44.7904
44.8037
44.8172
44.8305
44.8438
44.8568
44.8696
44.882
44.8941
44.9059
44.9173
44.9283
44.939
44.9493
44.9593
44.9689
44.9781
44.987
44.9956
45.0038
45.0117
45.0194
45.0267
45.0338
45.0406
45.0472
45.0535
45.0596
45.0655
45.0712
45.0768
45.0822
45.0876
45.0929
45.0982
45.1035
45.109
45.1147
45.1206
45.127
45.1338
45.1412
45.1493
45.1583
45.1683
45.1796
45.1922
45.2064
45.2224
45.2403
45.2603
45.2828
45.3035
45.3208
45.3387
45.357
45.3758
45.3948
45.414
45.4332
45.4524
45.4713
45.4899
45.508
45.5254
45.542
45.5576
45.5716
45.5845
45.5958
45.6059
45.6145
45.6219
45.6279
45.6325
45.6359
45.6372
46.3547
45.3497
45.2636
44.9885
44.974
44.9025
44.8983
44.8873
44.8915
44.898
44.9082
44.9201
44.9332
44.947
44.9612
44.9755
44.9897
45.0039
45.0178
45.0314
45.0447
45.0577
45.0703
45.0826
45.0944
45.1059
45.117
45.1277
45.1381
45.1481
45.1577
45.167
45.1759
45.1846
45.1929
45.2009
45.2087
45.2161
45.2233
45.2303
45.237
45.2436
45.25
45.2562
45.2624
45.2685
45.2745
45.2807
45.2869
45.2933
45.2999
45.307
45.3144
45.3224
45.3311
45.3405
45.3508
45.3622
45.3748
45.3888
45.4041
45.4209
45.4392
45.4558
45.4694
45.4832
45.4971
45.511
45.5248
45.5384
45.5518
45.5648
45.5772
45.5891
45.5999
45.6096
45.6184
45.626
45.6326
45.638
45.6423
45.6456
45.6476
45.6487
45.6488
45.6478
45.6458
45.6428
47.7491
46.0509
45.6415
45.2353
45.1558
45.0519
45.0285
45.0065
45.004
45.0065
45.0144
45.0252
45.0379
45.0518
45.0665
45.0815
45.0967
45.1118
45.1268
45.1416
45.1561
45.1702
45.1841
45.1975
45.2105
45.2232
45.2354
45.2473
45.2587
45.2698
45.2805
45.2908
45.3007
45.3103
45.3196
45.3285
45.3372
45.3455
45.3535
45.3613
45.3688
45.376
45.3831
45.39
45.3967
45.4033
45.4098
45.4163
45.4227
45.4293
45.4359
45.4428
45.4499
45.4573
45.4651
45.4734
45.4823
45.4918
45.502
45.5129
45.5246
45.537
45.5501
45.5616
45.5706
45.5795
45.5881
45.5964
45.6043
45.6116
45.6186
45.6248
45.6299
45.6342
45.6377
45.6402
45.6419
45.6426
45.6424
45.6414
45.6393
45.6365
45.6329
45.6285
45.6234
45.6176
45.6112
45.6043
48.833
46.5647
45.8996
45.3956
45.2708
45.1449
45.1087
45.0794
45.0725
45.0724
45.0788
45.0889
45.1014
45.1154
45.1304
45.1459
45.1617
45.1775
45.1932
45.2088
45.224
45.2389
45.2535
45.2677
45.2815
45.2948
45.3078
45.3203
45.3325
45.3442
45.3556
45.3665
45.3771
45.3873
45.3971
45.4066
45.4158
45.4246
45.4331
45.4413
45.4493
45.457
45.4644
45.4716
45.4786
45.4854
45.492
45.4986
45.505
45.5114
45.5177
45.5241
45.5304
45.5369
45.5435
45.5503
45.5572
45.5644
45.5716
45.5791
45.5867
45.5943
45.6017
45.6077
45.612
45.6158
45.6193
45.6221
45.6244
45.626
45.6266
45.6265
45.6257
45.624
45.6216
45.6184
45.6144
45.6097
45.6041
45.598
45.5912
45.5838
45.5759
45.5675
45.5587
45.5495
45.54
45.5303
49.3797
46.8086
46.0129
45.4619
45.3168
45.1814
45.1399
45.1078
45.0993
45.0984
45.1045
45.1145
45.1271
45.1414
45.1567
45.1726
45.1888
45.205
45.2212
45.2372
45.2528
45.2682
45.2832
45.2978
45.312
45.3257
45.3391
45.352
45.3645
45.3765
45.3882
45.3995
45.4104
45.4209
45.431
45.4407
45.4502
45.4592
45.468
45.4764
45.4846
45.4924
45.5
45.5073
45.5143
45.5211
45.5277
45.5341
45.5403
45.5463
45.5521
45.5578
45.5633
45.5687
45.5739
45.5789
45.5838
45.5885
45.5928
45.5968
45.6004
45.6033
45.6054
45.6064
45.6064
45.6059
45.6048
45.6029
45.6003
45.5969
45.5927
45.5878
45.5822
45.5759
45.5689
45.5612
45.553
45.5442
45.5349
45.525
45.5147
45.5041
45.4932
45.482
45.4706
45.4591
45.4474
45.4358
49.3197
46.7676
45.9847
45.4405
45.2997
45.1669
45.1274
45.0968
45.0894
45.0894
45.0963
45.1069
45.12
45.1348
45.1505
45.1667
45.1832
45.1997
45.2161
45.2323
45.2482
45.2637
45.2789
45.2936
45.3079
45.3218
45.3353
45.3483
45.3609
45.373
45.3848
45.3961
45.4071
45.4176
45.4278
45.4376
45.4471
45.4562
45.465
45.4734
45.4816
45.4894
45.4969
45.5042
45.5111
45.5177
45.5241
45.5302
45.536
45.5414
45.5466
45.5515
45.556
45.5601
45.5638
45.5671
45.5698
45.572
45.5734
45.574
45.5737
45.5722
45.5694
45.5658
45.5621
45.5576
45.5524
45.5464
45.5398
45.5322
45.5241
45.5154
45.5059
45.4959
45.4853
45.4742
45.4627
45.4508
45.4385
45.426
45.4132
45.4002
45.3871
45.3739
45.3606
45.3474
45.3342
45.3212
48.6611
46.4447
45.816
45.3318
45.2195
45.1015
45.0713
45.0463
45.0428
45.0454
45.0542
45.0661
45.0802
45.0956
45.1118
45.1283
45.145
45.1616
45.1781
45.1942
45.2101
45.2255
45.2406
45.2552
45.2694
45.2831
45.2964
45.3093
45.3217
45.3337
45.3453
45.3565
45.3672
45.3776
45.3876
45.3973
45.4066
45.4155
45.4241
45.4324
45.4403
45.4479
45.4552
45.4622
45.4689
45.4752
45.4812
45.4868
45.492
45.4969
45.5013
45.5052
45.5086
45.5114
45.5136
45.515
45.5156
45.5153
45.5139
45.5113
45.5073
45.5018
45.4944
45.4868
45.4796
45.4717
45.4631
45.4538
45.4436
45.4329
45.4214
45.4095
45.397
45.384
45.3706
45.3568
45.3427
45.3284
45.3139
45.2993
45.2846
45.2698
45.2552
45.2405
45.2259
45.2114
45.1972
45.1833
47.498
45.867
45.5085
45.132
45.0722
44.9812
44.9675
44.9525
44.9556
44.9626
44.9742
44.9881
45.0035
45.0197
45.0363
45.0531
45.0698
45.0863
45.1025
45.1184
45.1339
45.1489
45.1636
45.1777
45.1915
45.2047
45.2175
45.2299
45.2419
45.2534
45.2645
45.2752
45.2855
45.2954
45.305
45.3142
45.3231
45.3316
45.3397
45.3476
45.3551
45.3623
45.3691
45.3757
45.3818
45.3876
45.393
45.398
45.4026
45.4066
45.4101
45.413
45.4152
45.4166
45.4172
45.4167
45.4152
45.4125
45.4084
45.4027
45.3953
45.386
45.3746
45.3634
45.3533
45.3424
45.3308
45.3185
45.3055
45.292
45.2779
45.2632
45.2482
45.2328
45.2171
45.2012
45.1852
45.1689
45.1527
45.1365
45.1203
45.1042
45.0883
45.0725
45.0569
45.0416
45.0265
45.0119
46.0794
45.1334
45.0995
44.8581
44.8675
44.8118
44.82
44.818
44.8298
44.8422
44.8574
44.8735
44.8902
44.9072
44.9241
44.9408
44.9572
44.9732
44.9889
45.004
45.0188
45.033
45.0468
45.0601
45.0729
45.0853
45.0972
45.1087
45.1198
45.1304
45.1407
45.1505
45.16
45.1691
45.1779
45.1863
45.1944
45.2022
45.2096
45.2167
45.2235
45.23
45.2362
45.242
45.2474
45.2525
45.2571
45.2613
45.265
45.2681
45.2706
45.2723
45.2733
45.2733
45.2723
45.2701
45.2666
45.2617
45.2552
45.2468
45.2365
45.2241
45.2093
45.1951
45.1827
45.1694
45.1555
45.1409
45.1257
45.1098
45.0936
45.077
45.06
45.0428
45.0254
45.0079
44.9903
44.9726
44.9551
44.9376
44.9204
44.9033
44.8865
44.8698
44.8535
44.8375
44.8219
44.8068
44.7222
44.4011
44.6714
44.5609
44.6403
44.6211
44.6518
44.6632
44.6836
44.7014
44.72
44.7381
44.7558
44.7731
44.7899
44.8061
44.8218
44.837
44.8516
44.8656
44.8792
44.8922
44.9047
44.9167
44.9283
44.9394
44.9501
44.9603
44.9702
44.9796
44.9886
44.9973
45.0057
45.0137
45.0213
45.0287
45.0357
45.0425
45.0489
45.0551
45.0609
45.0664
45.0716
45.0765
45.081
45.0852
45.0889
45.0921
45.0948
45.0969
45.0983
45.0989
45.0986
45.0973
45.0948
45.091
45.0858
45.079
45.0705
45.06
45.0473
45.0325
45.015
44.9984
44.9841
44.969
44.9533
44.9369
44.9201
44.9027
44.8848
44.8667
44.8483
44.8297
44.811
44.7921
44.7734
44.7547
44.7361
44.7178
44.6996
44.6817
44.6641
44.6469
44.63
44.6135
44.5973
44.5818
43.4911
43.7143
44.2496
44.2574
44.4023
44.4178
44.4699
44.494
44.5224
44.545
44.5663
44.5858
44.6041
44.6212
44.6373
44.6526
44.667
44.6808
44.6939
44.7063
44.7182
44.7296
44.7404
44.7507
44.7606
44.77
44.779
44.7875
44.7957
44.8036
44.811
44.8182
44.825
44.8315
44.8378
44.8437
44.8494
44.8548
44.8599
44.8647
44.8693
44.8736
44.8776
44.8813
44.8847
44.8877
44.8902
44.8923
44.8938
44.8947
44.8949
44.8943
44.8927
44.89
44.8861
44.8808
44.874
44.8655
44.8552
44.8427
44.828
44.8109
44.7914
44.7728
44.7569
44.7404
44.7232
44.7053
44.6871
44.6682
44.6492
44.6297
44.6101
44.5904
44.5705
44.5508
44.531
44.5114
44.492
44.4728
44.4539
44.4353
44.417
44.3991
44.3816
44.3647
44.3479
44.3323
42.401
43.0883
43.8461
43.9566
44.16
44.2069
44.2785
44.3138
44.3491
44.3754
44.3987
44.4189
44.4369
44.4531
44.4679
44.4816
44.4942
44.506
44.517
44.5273
44.537
44.5461
44.5547
44.5627
44.5704
44.5776
44.5844
44.5908
44.5969
44.6027
44.6081
44.6133
44.6181
44.6227
44.6271
44.6312
44.6351
44.6388
44.6422
44.6454
44.6484
44.6512
44.6536
44.6559
44.6577
44.6593
44.6604
44.6611
44.6612
44.6607
44.6595
44.6574
44.6544
44.6502
44.6448
44.638
44.6295
44.6193
44.6071
44.5929
44.5763
44.5572
44.5355
44.5154
44.4981
44.4801
44.4616
44.4425
44.4229
44.4029
44.3826
44.362
44.3413
44.3205
44.2996
44.2789
44.2582
44.2378
44.2175
44.1976
44.1779
44.1586
44.1397
44.1212
44.1032
44.0856
44.0684
44.0523
41.4454
42.524
43.4651
43.663
43.9171
43.9911
44.0795
44.1241
44.1648
44.1938
44.218
44.2378
44.2547
44.2693
44.282
44.2933
44.3034
44.3125
44.3207
44.3281
44.3349
44.3411
44.3468
44.352
44.3568
44.3612
44.3652
44.3689
44.3723
44.3755
44.3783
44.3809
44.3833
44.3855
44.3875
44.3893
44.391
44.3925
44.3938
44.3949
44.3958
44.3966
44.3971
44.3974
44.3975
44.3972
44.3966
44.3955
44.3939
44.3917
44.3888
44.3851
44.3804
44.3745
44.3674
44.3588
44.3486
44.3366
44.3225
44.3064
44.2879
44.2669
44.2431
44.2212
44.2025
44.1834
44.1635
44.1431
44.1222
44.1011
44.0795
44.0578
44.036
44.0142
43.9923
43.9705
43.949
43.9276
43.9065
43.8858
43.8653
43.8453
43.8257
43.8065
43.7878
43.7697
43.7518
43.7353
40.6106
42.0162
43.1072
43.3776
43.6747
43.7716
43.8737
43.9256
43.97
44.0002
44.0241
44.0425
44.0572
44.0691
44.0789
44.0869
44.0935
44.099
44.1036
44.1074
44.1105
44.113
44.115
44.1166
44.1177
44.1185
44.1191
44.1193
44.1193
44.1191
44.1187
44.1181
44.1174
44.1165
44.1155
44.1144
44.1132
44.1119
44.1105