/*--------------------------------*- C++ -*----------------------------------*\
| =========                 |                                                 |
| \\      /  F ield         | OpenFOAM: The Open Source CFD Toolbox           |
|  \\    /   O peration     | Version:  2306                                  |
|   \\  /    A nd           | Website:  www.openfoam.com                      |
|    \\/     M anipulation  |                                                 |
\*---------------------------------------------------------------------------*/
FoamFile
{
    version     2.0;
    format      ascii;
    arch        "LSB;label=32;scalar=64";
    class       volScalarField;
    location    "2000";
    object      nut;
}
// * * * * * * * * * * * * * * * * * * * * * * * * * * * * * * * * * * * * * //

dimensions      [0 2 -1 0 0 0 0];

internalField   nonuniform List<scalar> 
20540
(
0.271638
0.310526
0.271634
0.310618
0.271624
0.310737
0.271603
0.310875
0.27157
0.311032
0.271522
0.311212
0.271456
0.311418
0.271365
0.311658
0.271246
0.311938
0.271089
0.312269
0.270887
0.312661
0.270626
0.313128
0.27029
0.313688
0.269858
0.314359
0.2693
0.315163
0.268577
0.316124
0.267636
0.31727
0.266406
0.318625
0.264787
0.320212
0.262644
0.322044
0.25979
0.324114
0.255967
0.326376
0.25082
0.328721
0.243857
0.330926
0.234407
0.332581
0.221554
0.332957
0.204084
0.330792
0.180464
0.323886
0.149083
0.308461
0.109956
0.278712
0.0747372
0.235524
0.0504886
0.204012
0.0522691
0.206056
0.077927
0.240171
0.113015
0.282316
0.151046
0.309949
0.181351
0.324609
0.204254
0.331354
0.22129
0.33352
0.23389
0.333172
0.243196
0.331522
0.250075
0.329284
0.255172
0.326871
0.258959
0.324514
0.261786
0.322332
0.263905
0.320378
0.265501
0.318668
0.266711
0.317193
0.267632
0.315934
0.268338
0.314868
0.268881
0.31397
0.2693
0.313214
0.269626
0.31258
0.269879
0.312048
0.270075
0.3116
0.270228
0.311222
0.270346
0.310901
0.270436
0.310627
0.270505
0.310391
0.270555
0.310187
0.270592
0.310009
0.270616
0.309853
0.270631
0.309715
0.270639
0.309597
0.27064
0.309506
6.75853e-07
2.12509e-07
1.65286e-07
1.38516e-07
1.24168e-07
1.12828e-07
1.04902e-07
9.83743e-08
9.31712e-08
8.87821e-08
8.5081e-08
8.18838e-08
7.91135e-08
7.66708e-08
7.45181e-08
7.26001e-08
7.08802e-08
6.93349e-08
6.79387e-08
6.66707e-08
6.55158e-08
6.44607e-08
6.34941e-08
6.26052e-08
6.17858e-08
6.10296e-08
6.03289e-08
5.96792e-08
5.90754e-08
5.8513e-08
5.79884e-08
5.74983e-08
5.70401e-08
5.66107e-08
5.6208e-08
5.58298e-08
5.54745e-08
5.51401e-08
5.48256e-08
5.45292e-08
5.42503e-08
5.39874e-08
5.37404e-08
5.35081e-08
5.32904e-08
5.30868e-08
5.28973e-08
5.2722e-08
5.2561e-08
5.24151e-08
5.22847e-08
5.2171e-08
5.20747e-08
5.1998e-08
5.19418e-08
5.19089e-08
5.19013e-08
5.19217e-08
5.19752e-08
5.20631e-08
5.21934e-08
5.23681e-08
5.2598e-08
5.28369e-08
5.30561e-08
5.33014e-08
5.35772e-08
5.38812e-08
5.42152e-08
5.45805e-08
5.49805e-08
5.5415e-08
5.58898e-08
5.64021e-08
5.69638e-08
5.75658e-08
5.82416e-08
5.89459e-08
5.97991e-08
6.06137e-08
6.17826e-08
6.27086e-08
6.44723e-08
6.55228e-08
6.88296e-08
6.90656e-08
8.22176e-08
6.0829e-08
1.5306e-05
3.26673e-06
2.29045e-06
1.86482e-06
1.64241e-06
1.47669e-06
1.36004e-06
1.26601e-06
1.19096e-06
1.12815e-06
1.07529e-06
1.02979e-06
9.90475e-07
9.55879e-07
9.25465e-07
8.98415e-07
8.74205e-07
8.52493e-07
8.32905e-07
8.15141e-07
7.98986e-07
7.84247e-07
7.70761e-07
7.58374e-07
7.46969e-07
7.36455e-07
7.26722e-07
7.17707e-07
7.09336e-07
7.01546e-07
6.94287e-07
6.87509e-07
6.81178e-07
6.75249e-07
6.69693e-07
6.64476e-07
6.5958e-07
6.54972e-07
6.5064e-07
6.46558e-07
6.42716e-07
6.39095e-07
6.35688e-07
6.32479e-07
6.29466e-07
6.26639e-07
6.23996e-07
6.21533e-07
6.19252e-07
6.17157e-07
6.15248e-07
6.13541e-07
6.12035e-07
6.10756e-07
6.09708e-07
6.0892e-07
6.08402e-07
6.08188e-07
6.08328e-07
6.08802e-07
6.09713e-07
6.11079e-07
6.12999e-07
6.15085e-07
6.17038e-07
6.1924e-07
6.21685e-07
6.24409e-07
6.2739e-07
6.30663e-07
6.34211e-07
6.38072e-07
6.42218e-07
6.46737e-07
6.51537e-07
6.56802e-07
6.62396e-07
6.68388e-07
6.75132e-07
6.81521e-07
6.90364e-07
6.9671e-07
7.08683e-07
7.16965e-07
7.31292e-07
7.50518e-07
7.6049e-07
7.80409e-07
0.000100992
3.21152e-05
2.40853e-05
2.0893e-05
1.91924e-05
1.79205e-05
1.69882e-05
1.62169e-05
1.55811e-05
1.50352e-05
1.45642e-05
1.41499e-05
1.37846e-05
1.34574e-05
1.31652e-05
1.29013e-05
1.26619e-05
1.24446e-05
1.22463e-05
1.20646e-05
1.18977e-05
1.17442e-05
1.16025e-05
1.14714e-05
1.13498e-05
1.1237e-05
1.11319e-05
1.1034e-05
1.09426e-05
1.08571e-05
1.07771e-05
1.07021e-05
1.06317e-05
1.05655e-05
1.05033e-05
1.04446e-05
1.03894e-05
1.03373e-05
1.02881e-05
1.02416e-05
1.01978e-05
1.01563e-05
1.01172e-05
1.00803e-05
1.00456e-05
1.00129e-05
9.98217e-06
9.95348e-06
9.92681e-06
9.90218e-06
9.87963e-06
9.85928e-06
9.84116e-06
9.82555e-06
9.81245e-06
9.80221e-06
9.79487e-06
9.79077e-06
9.7906e-06
9.79382e-06
9.80165e-06
9.81437e-06
9.83288e-06
9.85347e-06
9.87286e-06
9.89485e-06
9.91909e-06
9.94622e-06
9.97574e-06
1.00083e-05
1.00432e-05
1.00813e-05
1.01216e-05
1.01661e-05
1.02119e-05
1.02634e-05
1.03155e-05
1.03735e-05
1.04348e-05
1.04943e-05
1.05731e-05
1.06303e-05
1.0726e-05
1.08191e-05
1.0874e-05
1.12037e-05
1.08668e-05
1.10273e-05
0.00029095
9.49222e-05
6.5871e-05
5.65026e-05
5.21888e-05
4.94093e-05
4.74813e-05
4.59587e-05
4.47255e-05
4.3681e-05
4.27844e-05
4.19975e-05
4.13041e-05
4.06817e-05
4.01251e-05
3.9621e-05
3.91623e-05
3.87447e-05
3.83624e-05
3.80109e-05
3.76872e-05
3.73883e-05
3.71118e-05
3.6855e-05
3.66163e-05
3.63942e-05
3.61867e-05
3.5993e-05
3.58117e-05
3.56418e-05
3.54823e-05
3.53325e-05
3.51916e-05
3.50589e-05
3.49339e-05
3.48159e-05
3.47046e-05
3.45993e-05
3.44999e-05
3.44057e-05
3.43168e-05
3.42325e-05
3.41529e-05
3.40775e-05
3.40064e-05
3.39393e-05
3.38761e-05
3.38168e-05
3.37614e-05
3.37099e-05
3.36623e-05
3.36188e-05
3.35795e-05
3.35449e-05
3.35148e-05
3.34899e-05
3.34702e-05
3.34561e-05
3.34491e-05
3.34483e-05
3.34544e-05
3.34694e-05
3.3494e-05
3.35237e-05
3.35524e-05
3.35858e-05
3.36221e-05
3.36637e-05
3.37083e-05
3.37586e-05
3.38115e-05
3.38711e-05
3.3931e-05
3.40016e-05
3.40674e-05
3.41512e-05
3.42235e-05
3.43196e-05
3.44033e-05
3.45e-05
3.46095e-05
3.47088e-05
3.48054e-05
3.50726e-05
3.49155e-05
3.58548e-05
3.45673e-05
3.52478e-05
0.000602698
0.000213868
0.000136522
0.000110919
9.98712e-05
9.36606e-05
8.96907e-05
8.67975e-05
8.45679e-05
8.27517e-05
8.1234e-05
7.99278e-05
7.87947e-05
7.77875e-05
7.68957e-05
7.60926e-05
7.53656e-05
7.47069e-05
7.41055e-05
7.3554e-05
7.30471e-05
7.25799e-05
7.21483e-05
7.17478e-05
7.13759e-05
7.10302e-05
7.07073e-05
7.04061e-05
7.01244e-05
6.98602e-05
6.96125e-05
6.93797e-05
6.9161e-05
6.89549e-05
6.87608e-05
6.85775e-05
6.84047e-05
6.82412e-05
6.80868e-05
6.79405e-05
6.78024e-05
6.76713e-05
6.75476e-05
6.74302e-05
6.73194e-05
6.72146e-05
6.71159e-05
6.70229e-05
6.69356e-05
6.68542e-05
6.67784e-05
6.67086e-05
6.66446e-05
6.65874e-05
6.65362e-05
6.64926e-05
6.64557e-05
6.64265e-05
6.64057e-05
6.63953e-05
6.63929e-05
6.64009e-05
6.64217e-05
6.64512e-05
6.64817e-05
6.6519e-05
6.65588e-05
6.66066e-05
6.66567e-05
6.67162e-05
6.67762e-05
6.6849e-05
6.69154e-05
6.70051e-05
6.70749e-05
6.7186e-05
6.726e-05
6.73923e-05
6.74803e-05
6.76149e-05
6.77445e-05
6.78881e-05
6.79925e-05
6.84464e-05
6.80403e-05
6.9595e-05
6.77646e-05
6.73813e-05
0.00105317
0.000412555
0.000254585
0.000195565
0.000169372
0.000155446
0.000147044
0.000141344
0.000137183
0.000133962
0.000131373
0.000129213
0.000127389
0.000125797
0.000124413
0.000123182
0.00012208
0.000121091
0.000120195
0.000119378
0.000118631
0.000117946
0.000117315
0.000116732
0.000116192
0.000115691
0.000115224
0.000114789
0.000114383
0.000114003
0.000113647
0.000113313
0.000112999
0.000112704
0.000112426
0.000112164
0.000111917
0.000111683
0.000111462
0.000111253
0.000111056
0.000110869
0.000110692
0.000110524
0.000110366
0.000110216
0.000110075
0.000109941
0.000109816
0.000109698
0.000109588
0.000109486
0.000109392
0.000109307
0.000109229
0.000109161
0.000109102
0.000109053
0.000109013
0.000108987
0.000108972
0.000108969
0.000108979
0.000109004
0.000109033
0.000109071
0.000109111
0.000109163
0.000109216
0.000109283
0.000109347
0.000109433
0.000109503
0.000109615
0.000109686
0.000109829
0.000109906
0.00011008
0.000110176
0.00011036
0.000110528
0.000110716
0.000110866
0.000111482
0.000110981
0.000112978
0.000111133
0.000108152
0.00166878
0.000712083
0.000442615
0.000327842
0.000272945
0.00024349
0.00022601
0.000214592
0.000206595
0.000200657
0.000196063
0.000192365
0.000189337
0.000186759
0.000184572
0.000182664
0.000180982
0.000179495
0.000178164
0.000176963
0.000175875
0.000174886
0.000173981
0.000173149
0.000172383
0.000171676
0.000171019
0.00017041
0.000169843
0.000169313
0.000168819
0.000168355
0.000167922
0.000167514
0.000167131
0.000166769
0.00016643
0.000166109
0.000165806
0.00016552
0.00016525
0.000164994
0.000164752
0.000164523
0.000164306
0.000164101
0.000163908
0.000163725
0.000163553
0.000163392
0.00016324
0.000163099
0.000162968
0.000162849
0.000162738
0.000162641
0.000162554
0.00016248
0.000162418
0.000162372
0.000162338
0.000162323
0.000162323
0.000162339
0.000162367
0.000162406
0.000162446
0.000162503
0.00016256
0.000162638
0.000162709
0.000162814
0.000162892
0.000163031
0.000163116
0.000163293
0.000163396
0.000163607
0.000163739
0.00016398
0.000164182
0.000164483
0.000164667
0.000165459
0.000165031
0.000167147
0.000166043
0.000159123
0.00248641
0.00113495
0.000725245
0.000529957
0.000428708
0.000371764
0.000337408
0.000315084
0.000299719
0.000288575
0.000280194
0.000273629
0.000268399
0.000264055
0.000260462
0.000257395
0.000254739
0.000252437
0.000250406
0.000248601
0.000246985
0.000245531
0.000244217
0.000243018
0.000241922
0.000240919
0.000239993
0.000239139
0.000238348
0.000237613
0.00023693
0.000236292
0.000235697
0.00023514
0.000234617
0.000234126
0.000233665
0.000233231
0.000232822
0.000232436
0.000232073
0.000231728
0.000231404
0.000231096
0.000230807
0.000230532
0.000230273
0.000230029
0.000229798
0.000229582
0.000229379
0.00022919
0.000229013
0.000228852
0.000228702
0.00022857
0.000228448
0.000228346
0.000228256
0.000228188
0.000228134
0.000228106
0.000228091
0.000228109
0.000228136
0.000228179
0.000228223
0.000228291
0.000228359
0.000228453
0.000228542
0.000228672
0.000228773
0.000228947
0.000229067
0.000229284
0.000229443
0.000229699
0.000229914
0.000230215
0.000230496
0.000230932
0.00023117
0.000232089
0.000231946
0.000234071
0.000234746
0.00022284
0.00355424
0.00170873
0.00112895
0.000828032
0.000660317
0.000560314
0.000497727
0.000456317
0.000427699
0.00040704
0.000391693
0.000379856
0.000370585
0.000363048
0.000356917
0.000351788
0.000347424
0.000343709
0.000340486
0.000337663
0.00033517
0.000332958
0.000330982
0.000329199
0.000327587
0.000326125
0.000324784
0.00032356
0.000322434
0.000321394
0.000320433
0.000319541
0.000318714
0.000317942
0.000317221
0.000316547
0.000315917
0.000315324
0.00031477
0.000314246
0.000313755
0.000313291
0.000312855
0.000312442
0.000312054
0.000311687
0.000311341
0.000311015
0.000310708
0.000310421
0.00031015
0.0003099
0.000309664
0.000309451
0.00030925
0.000309074
0.00030891
0.000308774
0.000308651
0.000308559
0.000308483
0.000308444
0.000308417
0.000308445
0.000308471
0.000308535
0.000308585
0.000308677
0.000308766
0.000308889
0.000309011
0.000309178
0.000309328
0.000309548
0.000309733
0.000310006
0.000310256
0.000310567
0.000310925
0.000311277
0.000311734
0.000312256
0.000312719
0.000313738
0.000313819
0.000316139
0.000318592
0.000300407
0.00493348
0.00246821
0.00168405
0.00125189
0.000996107
0.000835312
0.000730002
0.000658106
0.000607456
0.000570509
0.000542999
0.000521837
0.000505364
0.000492122
0.000481455
0.000472642
0.000465257
0.000459043
0.000453727
0.000449136
0.000445129
0.00044162
0.000438522
0.000435758
0.000433286
0.000431066
0.00042905
0.000427226
0.000425562
0.000424037
0.000422638
0.000421348
0.00042016
0.000419057
0.000418034
0.000417082
0.000416197
0.000415368
0.000414595
0.000413868
0.00041319
0.00041255
0.000411953
0.000411387
0.000410859
0.000410359
0.00040989
0.000409449
0.000409034
0.000408647
0.000408283
0.000407947
0.00040763
0.000407345
0.000407076
0.000406842
0.000406623
0.000406443
0.00040628
0.000406158
0.000406058
0.000406011
0.000405975
0.000406023
0.000406054
0.000406151
0.000406217
0.000406354
0.000406468
0.000406652
0.000406811
0.000407055
0.000407258
0.000407575
0.000407827
0.000408219
0.000408569
0.000408997
0.000409529
0.000409983
0.000410689
0.000411333
0.000412095
0.000413246
0.000413697
0.000416138
0.000419923
0.000396629
0.00670065
0.00345717
0.00242682
0.00183538
0.00146965
0.00122832
0.00106397
0.000947437
0.000863039
0.000800203
0.000752797
0.000716033
0.000687306
0.000664242
0.000645696
0.000630451
0.000617777
0.000607183
0.000598196
0.000590504
0.000583864
0.000578097
0.000573052
0.000568597
0.000564648
0.000561134
0.000557968
0.000555131
0.000552563
0.000550228
0.000548101
0.000546155
0.000544375
0.000542732
0.000541218
0.000539817
0.000538522
0.000537315
0.000536197
0.000535149
0.000534176
0.000533262
0.000532412
0.00053161
0.000530864
0.00053016
0.000529502
0.000528885
0.000528307
0.000527769
0.000527264
0.000526799
0.000526362
0.000525971
0.000525601
0.000525281
0.000524982
0.000524739
0.000524518
0.000524356
0.000524225
0.000524165
0.000524122
0.000524199
0.000524243
0.000524385
0.00052448
0.000524679
0.000524836
0.000525102
0.000525319
0.000525677
0.000525943
0.000526413
0.000526734
0.00052732
0.000527764
0.000528395
0.0005291
0.000529724
0.000530715
0.000531522
0.000532645
0.000533995
0.000535025
0.000537852
0.000542227
0.000515084
0.00895045
0.00473042
0.00340133
0.0026185
0.00211925
0.00177723
0.00153551
0.00135862
0.00122636
0.00112536
0.00104765
0.000986421
0.000938027
0.000898897
0.000867269
0.000841209
0.000819564
0.000801484
0.000786195
0.000773154
0.000761965
0.000752291
0.000743876
0.000736492
0.000729988
0.000724238
0.000719098
0.000714513
0.000710392
0.00070667
0.000703301
0.000700236
0.000697452
0.000694894
0.000692551
0.000690396
0.000688415
0.000686577
0.000684881
0.000683302
0.000681841
0.000680474
0.000679208
0.00067802
0.000676918
0.000675882
0.000674916
0.000674014
0.000673171
0.000672389
0.000671657
0.000670984
0.000670355
0.000669792
0.000669259
0.000668802
0.000668374
0.000668027
0.000667713
0.000667478
0.000667297
0.000667205
0.000667152
0.000667254
0.000667315
0.000667508
0.000667643
0.000667916
0.00066814
0.000668503
0.000668806
0.000669305
0.000669661
0.000670325
0.000670742
0.000671576
0.000672138
0.000673037
0.000673948
0.000674794
0.000676135
0.000677145
0.000678702
0.000680267
0.000681966
0.000684925
0.00069067
0.000659807
0.0117989
0.00635605
0.00466122
0.00364903
0.00299
0.00252556
0.00218774
0.00193276
0.00173725
0.00158376
0.001463
0.00136595
0.00128799
0.00122412
0.00117195
0.0011286
0.00109241
0.00106205
0.00103631
0.00101434
0.000995492
0.000979208
0.000965064
0.000952687
0.000941815
0.000932233
0.000923705
0.00091612
0.00090933
0.000903223
0.000897719
0.000892735
0.000888221
0.000884098
0.000880337
0.000876888
0.000873731
0.000870815
0.000868136
0.000865649
0.000863359
0.000861223
0.000859252
0.000857408
0.000855705
0.000854104
0.000852619
0.000851236
0.000849948
0.000848752
0.000847639
0.000846614
0.000845662
0.000844807
0.000843997
0.000843301
0.000842653
0.00084212
0.000841642
0.000841268
0.000840989
0.000840813
0.000840728
0.000840826
0.000840905
0.000841134
0.000841324
0.000841662
0.000841981
0.000842439
0.00084287
0.000843511
0.000844008
0.000844882
0.000845446
0.000846554
0.000847295
0.000848493
0.000849679
0.000850786
0.000852552
0.000853799
0.000855895
0.000857667
0.000860261
0.00086276
0.000871209
0.000838207
0.0153868
0.00841828
0.00627155
0.00498432
0.0041353
0.00352442
0.00307025
0.00271899
0.00244314
0.00222154
0.00204346
0.0018972
0.0017776
0.001678
0.00159552
0.00152611
0.00146762
0.00141813
0.00137588
0.00133961
0.00130839
0.00128133
0.00125777
0.00123712
0.00121898
0.00120299
0.00118877
0.00117613
0.00116483
0.00115467
0.00114554
0.00113729
0.00112982
0.00112303
0.00111684
0.00111118
0.00110601
0.00110125
0.00109688
0.00109284
0.00108913
0.00108568
0.00108249
0.00107953
0.00107679
0.00107423
0.00107185
0.00106964
0.00106759
0.00106568
0.00106391
0.00106227
0.00106077
0.0010594
0.0010581
0.00105699
0.00105595
0.00105507
0.00105429
0.00105365
0.00105317
0.0010528
0.00105263
0.00105264
0.00105273
0.00105294
0.0010532
0.00105356
0.001054
0.00105452
0.00105513
0.00105589
0.00105659
0.00105766
0.00105845
0.00105981
0.00106084
0.00106232
0.0010639
0.00106528
0.00106756
0.00106908
0.00107182
0.00107387
0.00107741
0.00107963
0.00109019
0.00105537
0.0198821
0.0110206
0.00831085
0.00669311
0.0056186
0.00483398
0.00424113
0.00377387
0.00339979
0.00309355
0.00284214
0.00263227
0.00245743
0.00230926
0.00218479
0.00207843
0.00198778
0.00191019
0.00184327
0.00178534
0.00173514
0.00169132
0.00165296
0.00161921
0.00158944
0.0015631
0.00153964
0.00151874
0.00150003
0.00148321
0.00146807
0.00145439
0.00144199
0.00143072
0.00142047
0.00141108
0.00140252
0.00139464
0.00138741
0.00138074
0.00137461
0.00136891
0.00136367
0.00135878
0.00135427
0.00135007
0.00134617
0.00134254
0.00133917
0.00133604
0.00133314
0.00133045
0.00132797
0.0013257
0.00132358
0.00132171
0.00131998
0.00131848
0.00131713
0.00131601
0.00131511
0.00131435
0.00131395
0.00131373
0.00131378
0.00131387
0.00131418
0.00131448
0.00131506
0.00131557
0.00131639
0.00131721
0.00131818
0.00131939
0.00132052
0.00132207
0.00132353
0.00132523
0.00132734
0.00132899
0.0013319
0.00133374
0.00133723
0.00133961
0.00134419
0.00134616
0.00135885
0.00132155
0.0254825
0.0142893
0.0108731
0.00885738
0.00751523
0.00652518
0.00576831
0.00516324
0.00467153
0.00426286
0.00392165
0.00363249
0.00338745
0.00317692
0.00299749
0.00284171
0.00270737
0.00259095
0.00248932
0.00240047
0.00232278
0.00225436
0.00219399
0.00214051
0.00209307
0.00205086
0.00201309
0.00197929
0.00194889
0.0019215
0.00189677
0.00187438
0.00185405
0.00183553
0.00181865
0.0018032
0.00178907
0.00177605
0.00176412
0.00175308
0.00174294
0.00173352
0.00172483
0.00171674
0.00170927
0.0017023
0.00169585
0.00168982
0.00168424
0.00167903
0.00167421
0.00166973
0.00166558
0.00166177
0.00165823
0.00165503
0.00165209
0.00164949
0.00164715
0.00164515
0.0016434
0.00164196
0.00164102
0.00164033
0.00164022
0.00164002
0.0016403
0.00164039
0.00164107
0.00164146
0.0016425
0.00164327
0.00164457
0.00164582
0.00164738
0.00164904
0.00165106
0.00165294
0.0016557
0.00165765
0.00166127
0.0016635
0.00166787
0.00167065
0.00167637
0.0016784
0.00169266
0.00165296
0.0324148
0.0183775
0.0140699
0.0115742
0.00991412
0.00868136
0.00773118
0.00696351
0.00633257
0.00580205
0.00535321
0.00496819
0.00463744
0.00434986
0.00410114
0.00388275
0.00369223
0.00352505
0.00337731
0.00324686
0.00313169
0.00302921
0.00293801
0.00285654
0.00278377
0.00271853
0.00265977
0.0026069
0.00255908
0.00251578
0.00247651
0.0024408
0.00240824
0.00237851
0.0023513
0.00232633
0.00230344
0.00228232
0.00226291
0.00224494
0.00222836
0.00221297
0.00219874
0.00218548
0.0021732
0.00216174
0.00215111
0.00214117
0.00213196
0.00212333
0.00211535
0.00210788
0.00210098
0.00209458
0.00208867
0.00208323
0.00207826
0.00207376
0.00206968
0.00206616
0.00206297
0.00206032
0.00205823
0.00205674
0.00205617
0.00205544
0.00205548
0.00205517
0.0020558
0.00205591
0.00205707
0.00205766
0.00205929
0.00206045
0.0020625
0.00206419
0.00206683
0.00206888
0.00207235
0.00207465
0.00207908
0.00208181
0.00208715
0.00209049
0.00209741
0.00210011
0.00211579
0.00207167
0.0409305
0.0234684
0.0180319
0.0149577
0.0129194
0.0113998
0.0102219
0.00926301
0.00846817
0.00779402
0.00721791
0.00671905
0.00628592
0.00590573
0.00557299
0.00527831
0.00501806
0.00478741
0.00458157
0.00439809
0.00423457
0.00408755
0.00395556
0.0038367
0.00372974
0.00363303
0.0035453
0.00346586
0.00339349
0.00332763
0.00326757
0.00321265
0.00316233
0.00311616
0.00307374
0.00303467
0.00299867
0.00296538
0.00293466
0.00290614
0.00287976
0.0028552
0.00283244
0.0028112
0.00279148
0.00277303
0.00275589
0.00273982
0.0027249
0.00271089
0.0026979
0.00268571
0.00267442
0.00266387
0.00265414
0.0026451
0.00263683
0.00262919
0.00262236
0.00261607
0.0026107
0.00260596
0.00260188
0.00259902
0.00259757
0.00259596
0.00259542
0.00259443
0.00259475
0.00259438
0.00259551
0.00259577
0.00259767
0.00259859
0.00260121
0.00260283
0.00260624
0.00260845
0.00261283
0.00261553
0.00262106
0.00262429
0.00263122
0.00263479
0.00264422
0.00264643
0.00266588
0.00261347
0.0512959
0.0297783
0.0229099
0.0191403
0.0166518
0.014793
0.0133467
0.0121629
0.0111755
0.0103327
0.00960708
0.00897438
0.00842062
0.00793104
0.00749864
0.00711306
0.0067693
0.00646205
0.00618586
0.00593735
0.00571387
0.00551162
0.00532838
0.00516217
0.00501161
0.00487422
0.00474878
0.00463448
0.00452955
0.00443359
0.00434556
0.00426456
0.00418994
0.00412115
0.0040576
0.00399885
0.00394445
0.00389394
0.00384715
0.00380357
0.0037631
0.0037253
0.00369015
0.00365723
0.00362659
0.00359783
0.00357105
0.00354587
0.00352243
0.00350036
0.00347985
0.00346053
0.00344262
0.00342579
0.00341025
0.00339568
0.00338237
0.00336989
0.00335874
0.00334829
0.0033392
0.00333111
0.00332398
0.00331878
0.00331584
0.00331269
0.0033111
0.00330887
0.00330853
0.00330719
0.00330807
0.00330758
0.0033096
0.00331002
0.00331312
0.00331441
0.00331866
0.00332071
0.0033263
0.00332896
0.00333616
0.00333932
0.00334846
0.00335206
0.00336393
0.00336647
0.00338837
0.00332821
0.0637715
0.0375576
0.0288735
0.0242742
0.0212497
0.0189891
0.0172261
0.0157775
0.0145637
0.0135231
0.0126223
0.011833
0.0111381
0.0105205
0.0099714
0.00947923
0.00903739
0.00863984
0.00828045
0.0079548
0.00765976
0.00739123
0.0071464
0.00692273
0.00671854
0.00653139
0.00635934
0.00620162
0.00605577
0.00592197
0.00579839
0.00568396
0.00557804
0.00547993
0.00538883
0.00530426
0.00522551
0.00515217
0.00508394
0.00502013
0.00496062
0.00490486
0.00485281
0.00480393
0.00475826
0.00471528
0.00467512
0.00463725
0.0046019
0.00456851
0.00453738
0.00450799
0.00448064
0.00445485
0.00443096
0.00440845
0.00438782
0.00436837
0.00435087
0.00433433
0.0043199
0.0043066
0.00429502
0.00428625
0.0042811
0.00427557
0.00427232
0.00426816
0.00426666
0.0042639
0.00426401
0.00426259
0.00426423
0.00426411
0.00426727
0.00426834
0.00427309
0.00427522
0.00428172
0.00428477
0.00429328
0.00429707
0.00430801
0.00431236
0.00432648
0.0043301
0.00435445
0.00428611
0.0785794
0.0470879
0.0361062
0.0305319
0.026869
0.0241321
0.0219944
0.0202335
0.0187533
0.0174805
0.0163745
0.015402
0.0145423
0.0137758
0.0130908
0.0124748
0.011919
0.0114165
0.0109603
0.0105449
0.0101665
0.00982042
0.00950338
0.00921225
0.00894482
0.0086987
0.00847128
0.00826167
0.00806716
0.00788736
0.00772065
0.00756573
0.00742158
0.00728747
0.00716238
0.00704579
0.00693663
0.00683483
0.00673965
0.00665024
0.00656657
0.00648792
0.00641424
0.00634483
0.00627976
0.00621836
0.00616078
0.00610636
0.00605537
0.00600712
0.00596197
0.00591924
0.00587933
0.00584161
0.00580653
0.0057734
0.00574283
0.00571404
0.00568773
0.00566333
0.00564103
0.00562058
0.00560313
0.00558936
0.00558093
0.00557226
0.00556629
0.00555979
0.00555609
0.00555165
0.00555013
0.00554763
0.0055482
0.00554752
0.00555014
0.00555115
0.00555585
0.00555839
0.0055653
0.0055692
0.00557858
0.00558359
0.0055959
0.00560168
0.00561781
0.00562277
0.00564972
0.00557168
0.0958528
0.05864
0.0448325
0.0381048
0.0336818
0.0303796
0.0277977
0.0256677
0.0238733
0.0223273
0.0209806
0.0197939
0.0187422
0.0178023
0.0169599
0.0162003
0.015513
0.0148895
0.0143218
0.0138031
0.0133287
0.0128934
0.0124933
0.0121245
0.0117843
0.0114701
0.0111787
0.0109089
0.010658
0.0104248
0.0102077
0.0100054
0.00981648
0.00964003
0.00947488
0.00932036
0.0091754
0.00903942
0.00891195
0.00879197
0.00867927
0.00857304
0.00847317
0.00837887
0.00829017
0.00820628
0.00812736
0.00805262
0.00798234
0.00791574
0.00785318
0.0077939
0.00773832
0.0076857
0.00763656
0.0075901
0.007547
0.00750634
0.00746902
0.00743398
0.00740245
0.00737276
0.00734716
0.00732737
0.00731432
0.00730182
0.007292
0.00728254
0.00727574
0.00726915
0.00726522
0.0072613
0.00726013
0.00725872
0.00726022
0.00726112
0.00726528
0.00726831
0.00727519
0.00728013
0.00728996
0.0072965
0.00730972
0.00731732
0.00733493
0.00734165
0.00737044
0.00728279
0.115561
0.0724473
0.0553017
0.0471997
0.0418725
0.0378987
0.0347891
0.0322217
0.0300559
0.028188
0.0265586
0.0251213
0.0238455
0.0227042
0.0216792
0.0207538
0.0199151
0.0191524
0.0184568
0.0178201
0.0172362
0.0166993
0.0162045
0.0157475
0.0153246
0.014933
0.014569
0.0142309
0.0139159
0.0136222
0.0133479
0.0130917
0.0128518
0.012627
0.0124162
0.0122183
0.0120323
0.0118573
0.0116928
0.0115376
0.0113914
0.0112534
0.0111232
0.0110001
0.010884
0.0107739
0.0106701
0.0105717
0.0104788
0.0103907
0.0103077
0.010229
0.0101549
0.0100847
0.0100189
0.00995663
0.00989859
0.00984382
0.00979326
0.00974571
0.00970254
0.00966221
0.00962638
0.00959936
0.0095806
0.00956338
0.00954882
0.00953563
0.00952498
0.00951555
0.00950859
0.00950269
0.00949924
0.00949663
0.00949655
0.009497
0.00950019
0.00950346
0.00950989
0.00951572
0.00952551
0.00953354
0.009547
0.0095566
0.0095746
0.00958357
0.00961296
0.00951888
0.137431
0.088653
0.0677683
0.0580277
0.0516279
0.0468567
0.0431192
0.0400326
0.037427
0.0351793
0.0332177
0.0314871
0.0299499
0.0285746
0.0273383
0.0262217
0.0252088
0.0242868
0.023445
0.0226738
0.0219655
0.0213133
0.0207115
0.0201549
0.019639
0.0191603
0.0187149
0.0183003
0.0179134
0.0175519
0.0172138
0.0168973
0.0166004
0.0163218
0.01606
0.0158137
0.0155819
0.0153633
0.0151574
0.0149629
0.0147793
0.0146057
0.0144417
0.0142863
0.0141394
0.0140001
0.0138683
0.0137433
0.013625
0.0135128
0.0134067
0.013306
0.013211
0.0131209
0.0130362
0.0129561
0.012881
0.0128102
0.0127444
0.0126827
0.0126261
0.0125735
0.0125259
0.0124903
0.012465
0.0124421
0.012422
0.0124042
0.0123891
0.012376
0.0123654
0.0123568
0.0123506
0.0123461
0.0123439
0.0123433
0.012345
0.012348
0.0123534
0.0123596
0.0123686
0.0123777
0.0123905
0.0124018
0.0124188
0.0124302
0.0124581
0.0123629
0.16086
0.107224
0.0824653
0.0707821
0.0631196
0.0574041
0.0529195
0.0492161
0.0460894
0.0433938
0.0410423
0.0389688
0.0371275
0.0354809
0.0340009
0.0326642
0.0314518
0.030348
0.0293398
0.0284159
0.0275669
0.0267848
0.0260626
0.0253942
0.0247742
0.0241983
0.0236621
0.0231623
0.0226956
0.0222592
0.0218505
0.0214673
0.0211077
0.0207697
0.0204517
0.0201523
0.0198701
0.0196038
0.0193525
0.0191149
0.0188904
0.0186778
0.0184767
0.018286
0.0181055
0.0179341
0.0177718
0.0176177
0.0174716
0.0173329
0.0172016
0.0170769
0.016959
0.0168472
0.0167416
0.0166419
0.016548
0.0164596
0.016377
0.0162996
0.016228
0.0161617
0.0161009
0.0160556
0.0160228
0.0159933
0.015967
0.0159436
0.0159233
0.0159057
0.0158909
0.0158786
0.0158689
0.0158617
0.0158568
0.0158541
0.0158538
0.0158553
0.0158591
0.0158645
0.0158722
0.015881
0.0158924
0.015904
0.0159192
0.0159315
0.0159568
0.0158659
0.184767
0.127816
0.099564
0.0855934
0.0764694
0.0696424
0.0642714
0.0598372
0.0560952
0.0528732
0.0500657
0.0475935
0.0454003
0.0434412
0.0416816
0.0400936
0.038654
0.0373439
0.0361477
0.0350517
0.0340447
0.0331171
0.0322604
0.0314675
0.0307319
0.0300483
0.0294117
0.0288181
0.0282635
0.0277447
0.0272586
0.0268026
0.0263743
0.0259716
0.0255926
0.0252354
0.0248986
0.0245805
0.0242801
0.0239959
0.0237272
0.0234726
0.0232315
0.0230028
0.0227861
0.0225803
0.0223852
0.0221998
0.0220239
0.0218569
0.0216984
0.021548
0.0214054
0.0212702
0.0211424
0.0210214
0.0209074
0.0207999
0.020699
0.0206046
0.0205167
0.0204352
0.0203601
0.0203037
0.0202626
0.0202255
0.0201921
0.0201622
0.0201358
0.0201126
0.0200927
0.0200757
0.0200618
0.0200506
0.0200421
0.0200361
0.0200327
0.0200315
0.0200326
0.0200357
0.0200409
0.0200477
0.0200566
0.0200665
0.0200788
0.0200911
0.0201026
0.0200305
0.207501
0.149833
0.118993
0.102444
0.091686
0.0835668
0.0771534
0.0718606
0.0673982
0.0635636
0.0602285
0.0572976
0.0547018
0.0523869
0.0503106
0.0484389
0.0467441
0.0452031
0.043797
0.0425097
0.0413275
0.0402389
0.0392339
0.038304
0.0374415
0.0366401
0.0358939
0.035198
0.0345479
0.0339396
0.0333698
0.0328351
0.0323329
0.0318605
0.0314158
0.0309966
0.0306013
0.0302279
0.029875
0.0295412
0.0292254
0.0289261
0.0286426
0.0283736
0.0281185
0.0278763
0.0276463
0.0274279
0.0272205
0.0270235
0.0268364
0.0266587
0.0264901
0.0263302
0.0261787
0.0260353
0.0258998
0.025772
0.0256517
0.0255389
0.0254334
0.0253353
0.0252445
0.0251758
0.0251255
0.0250797
0.0250381
0.0250006
0.024967
0.0249371
0.0249108
0.024888
0.0248684
0.0248519
0.0248384
0.0248277
0.0248197
0.0248141
0.024811
0.02481
0.0248111
0.024814
0.0248188
0.0248249
0.0248332
0.0248413
0.0248507
0.0247874
0.22683
0.172244
0.140258
0.121139
0.108556
0.0989626
0.0913471
0.085065
0.0797759
0.0752425
0.0713097
0.0678624
0.0648161
0.0621052
0.0596782
0.0574938
0.0555186
0.0537249
0.05209
0.0505947
0.0492226
0.0479601
0.0467953
0.045718
0.0447194
0.0437918
0.0429286
0.0421237
0.041372
0.0406688
0.0400101
0.0393922
0.0388119
0.0382661
0.0377523
0.037268
0.0368112
0.0363798
0.0359721
0.0355864
0.0352214
0.0348756
0.0345478
0.0342369
0.033942
0.0336619
0.0333959
0.0331433
0.0329032
0.0326751
0.0324584
0.0322525
0.0320569
0.0318713
0.0316952
0.0315284
0.0313705
0.0312213
0.0310806
0.0309482
0.0308241
0.030708
0.0306002
0.0305178
0.0304571
0.0304014
0.0303505
0.0303041
0.030262
0.030224
0.03019
0.0301597
0.0301329
0.0301095
0.0300893
0.0300721
0.0300577
0.0300459
0.0300366
0.0300295
0.0300246
0.0300216
0.0300204
0.0300206
0.030023
0.0300243
0.0300334
0.0299776
0.240048
0.193522
0.162317
0.141018
0.126437
0.115226
0.106277
0.0988998
0.0926994
0.0874008
0.0828178
0.0788124
0.0752824
0.0721486
0.0693489
0.0668339
0.0645634
0.0625047
0.0606305
0.0589182
0.0573487
0.0559058
0.0545756
0.0533463
0.0522075
0.0511503
0.0501668
0.0492503
0.0483947
0.0475947
0.0468455
0.0461429
0.0454832
0.0448629
0.0442791
0.043729
0.0432101
0.0427201
0.0422572
0.0418193
0.0414048
0.0410122
0.0406401
0.0402872
0.0399523
0.0396343
0.0393323
0.0390453
0.0387726
0.0385134
0.038267
0.0380327
0.0378102
0.0375987
0.0373979
0.0372073
0.0370267
0.0368557
0.036694
0.0365413
0.0363978