/*--------------------------------*- C++ -*----------------------------------*\
| =========                 |                                                 |
| \\      /  F ield         | OpenFOAM: The Open Source CFD Toolbox           |
|  \\    /   O peration     | Version:  2306                                  |
|   \\  /    A nd           | Website:  www.openfoam.com                      |
|    \\/     M anipulation  |                                                 |
\*---------------------------------------------------------------------------*/
FoamFile
{
    version     2.0;
    format      ascii;
    arch        "LSB;label=32;scalar=64";
    class       volScalarField;
    location    "2000";
    object      omega;
}
// * * * * * * * * * * * * * * * * * * * * * * * * * * * * * * * * * * * * * //

dimensions      [0 0 -1 0 0 0 0];

internalField   nonuniform List<scalar> 
20540
(
1694.89
2474.71
1694.79
2473.86
1694.4
2472.5
1693.69
2470.64
1692.6
2468.21
1691.04
2465.1
1688.93
2461.16
1686.16
2456.24
1682.58
2450.11
1678.04
2442.53
1672.35
2433.18
1665.27
2421.69
1656.53
2407.64
1645.8
2390.51
1632.72
2369.68
1616.84
2344.44
1597.64
2314
1574.56
2277.43
1546.92
2233.71
1514.01
2181.75
1475.05
2120.42
1429.22
2048.59
1375.73
1965.26
1313.84
1869.64
1242.96
1761.35
1162.69
1640.6
1072.93
1508.47
973.717
1367.14
864.918
1219.89
745.397
1067.45
631.661
932.746
557.627
841.941
564.86
849.692
649.215
947.407
764.133
1083.03
881.305
1231.62
988.112
1374.56
1085.8
1511.32
1174.49
1639.4
1254.1
1756.77
1324.72
1862.44
1386.69
1956.17
1440.53
2038.29
1486.93
2109.47
1526.61
2170.62
1560.33
2222.76
1588.84
2266.93
1612.82
2304.13
1632.89
2335.33
1649.63
2361.38
1663.52
2383.05
1675.01
2401.02
1684.46
2415.88
1692.19
2428.13
1698.49
2438.2
1703.57
2446.46
1707.63
2453.2
1710.85
2458.69
1713.36
2463.13
1715.27
2466.71
1716.68
2469.58
1717.68
2471.84
1718.33
2473.59
1718.69
2474.9
1718.81
2475.74
7.14206e+06
7.11582e+06
7.11315e+06
7.11164e+06
7.11083e+06
7.11019e+06
7.10974e+06
7.10937e+06
7.10908e+06
7.10883e+06
7.10862e+06
7.10844e+06
7.10828e+06
7.10815e+06
7.10802e+06
7.10792e+06
7.10782e+06
7.10773e+06
7.10765e+06
7.10758e+06
7.10752e+06
7.10746e+06
7.1074e+06
7.10735e+06
7.10731e+06
7.10726e+06
7.10722e+06
7.10719e+06
7.10715e+06
7.10712e+06
7.10709e+06
7.10706e+06
7.10704e+06
7.10701e+06
7.10699e+06
7.10697e+06
7.10695e+06
7.10693e+06
7.10691e+06
7.1069e+06
7.10688e+06
7.10687e+06
7.10685e+06
7.10684e+06
7.10683e+06
7.10681e+06
7.1068e+06
7.10679e+06
7.10679e+06
7.10678e+06
7.10677e+06
7.10676e+06
7.10676e+06
7.10675e+06
7.10675e+06
7.10675e+06
7.10675e+06
7.10675e+06
7.10675e+06
7.10676e+06
7.10676e+06
7.10677e+06
7.10679e+06
7.1068e+06
7.10681e+06
7.10683e+06
7.10684e+06
7.10686e+06
7.10688e+06
7.1069e+06
7.10692e+06
7.10695e+06
7.10697e+06
7.107e+06
7.10703e+06
7.10707e+06
7.1071e+06
7.10714e+06
7.10719e+06
7.10724e+06
7.1073e+06
7.10735e+06
7.10744e+06
7.1075e+06
7.10766e+06
7.10772e+06
7.10824e+06
7.10753e+06
1.37614e+06
1.38348e+06
1.36415e+06
1.34204e+06
1.32784e+06
1.31546e+06
1.30624e+06
1.29832e+06
1.29179e+06
1.28613e+06
1.28124e+06
1.27693e+06
1.27313e+06
1.26973e+06
1.26669e+06
1.26394e+06
1.26145e+06
1.25919e+06
1.25713e+06
1.25523e+06
1.2535e+06
1.2519e+06
1.25043e+06
1.24906e+06
1.2478e+06
1.24662e+06
1.24553e+06
1.24451e+06
1.24356e+06
1.24266e+06
1.24183e+06
1.24105e+06
1.24031e+06
1.23962e+06
1.23898e+06
1.23836e+06
1.23779e+06
1.23724e+06
1.23673e+06
1.23625e+06
1.23579e+06
1.23536e+06
1.23495e+06
1.23457e+06
1.23421e+06
1.23387e+06
1.23355e+06
1.23326e+06
1.23299e+06
1.23275e+06
1.23252e+06
1.23233e+06
1.23216e+06
1.23203e+06
1.23192e+06
1.23185e+06
1.23183e+06
1.23185e+06
1.23192e+06
1.23204e+06
1.23223e+06
1.23249e+06
1.23284e+06
1.23319e+06
1.23353e+06
1.2339e+06
1.23431e+06
1.23477e+06
1.23527e+06
1.23581e+06
1.2364e+06
1.23704e+06
1.23773e+06
1.23847e+06
1.23928e+06
1.24013e+06
1.24109e+06
1.24206e+06
1.24324e+06
1.24431e+06
1.24586e+06
1.24697e+06
1.24924e+06
1.24994e+06
1.25487e+06
1.25044e+06
1.27382e+06
1.25098e+06
490930
534908
553325
550161
545310
539398
534471
529915
525971
522432
519291
516461
513916
511601
509499
507580
505818
504201
502712
501336
500062
498881
497783
496761
495808
494918
494085
493304
492572
491885
491239
490630
490057
489516
489006
488524
488068
487637
487230
486844
486479
486133
485807
485498
485208
484935
484680
484443
484223
484023
483842
483682
483544
483430
483343
483284
483257
483266
483313
483405
483550
483746
484007
484279
484529
484804
485112
485450
485819
486216
486649
487107
487609
488129
488707
489279
489949
490556
491346
491974
492927
493524
494816
494929
497330
494241
500299
514435
253525
257303
277286
282897
283793
282343
280574
278619
276780
275046
273457
271996
270661
269435
268312
267280
266329
265453
264644
263894
263199
262553
261953
261393
260870
260381
259924
259495
259093
258715
258359
258024
257708
257411
257130
256864
256613
256375
256151
255938
255736
255546
255365
255195
255034
254883
254742
254610
254488
254375
254274
254183
254104
254037
253985
253946
253925
253922
253938
253976
254041
254132
254256
254386
254504
254634
254778
254936
255109
255292
255493
255701
255933
256161
256428
256664
256970
257200
257542
257759
258123
258290
258719
258547
259072
258071
256330
271983
159864
146447
157384
164176
167309
167980
167804
167151
166347
165482
164628
163803
163024
162291
161608
160971
160379
159828
159316
158839
158395
157981
157594
157233
156896
156579
156283
156004
155743
155497
155265
155047
154842
154647
154464
154290
154126
153971
153824
153685
153553
153428
153310
153198
153093
152993
152900
152812
152731
152655
152586
152524
152469
152420
152380
152348
152326
152314
152313
152323
152347
152386
152443
152504
152560
152622
152691
152765
152847
152933
153028
153122
153231
153330
153455
153551
153690
153773
153919
153983
154111
154136
154219
154103
154013
153706
151198
161891
111990
94607.2
98020.1
102873
106281
107907
108627
108768
108628
108322
107939
107520
107091
106668
106257
105863
105488
105134
104800
104486
104190
103913
103652
103407
103177
102960
102756
102564
102384
102213
102053
101901
101758
101622
101494
101373
101258
101149
101046
100948
100855
100767
100684
100605
100530
100460
100393
100330
100272
100217
100166
100120
100078
100040
100007
99979.4
99957
99940.3
99930.6
99926.5
99930
99940.8
99961.7
99986.6
100010
100036
100065
100097
100132
100168
100208
100245
100291
100327
100377
100408
100459
100480
100525
100525
100541
100518
100487
100366
100183
99958.5
98145.4
104652
83305.6
66728.8
65874
68295.6
70913.6
72658.9
73750.6
74338.1
74613.5
74683.3
74629.6
74497.9
74318.2
74115.7
73898.1
73676.2
73456.4
73240.6
73031.5
72830.4
72638.2
72454.9
72280.5
72115.1
71958.2
71809.5
71668.8
71535.6
71409.4
71289.9
71176.8
71069.6
70968
70871.7
70780.3
70693.7
70611.5
70533.4
70459.2
70388.8
70321.9
70258.3
70198
70140.6
70086.2
70034.7
69985.8
69939.7
69896.2
69855.3
69817.1
69781.5
69748.6
69718.5
69691.3
69666.9
69645.9
69627.7
69613.6
69602.3
69595
69591.1
69592.1
69596.3
69601.1
69607.7
69614.9
69622.8
69631.9
69640.5
69650.6
69658
69668.5
69672.7
69680.8
69680.2
69681.2
69674.9
69665.5
69641
69615.5
69552.7
69498.5
69363.8
69204.1
69017.5
67777
71720.1
64308.6
49935.9
47048.6
47677.8
49199.9
50574.7
51642.2
52383.4
52870.4
53167.8
53330.1
53398.5
53399
53359.3
53286.1
53193.6
53090.3
52978.9
52864.2
52748.4
52634
52521.5
52412
52305.9
52203.8
52105.6
52011.6
51921.6
51835.7
51753.6
51675.4
51600.8
51529.7
51462
51397.5
51336.1
51277.6
51221.8
51168.7
51118.1
51069.8
51023.9
50980.1
50938.4
50898.7
50860.9
50825
50790.8
50758.4
50727.7
50698.6
50671.2
50645.5
50621.4
50598.9
50578
50559
50541.2
50525.6
50511.1
50498.5
50486.9
50477.4
50470.4
50465
50460.3
50455.4
50450.4
50445
50439
50432.5
50424
50415.6
50403
50390.4
50372.9
50351.8
50328.5
50294.6
50259.2
50211.3
50142.9
50081.7
49949.7
49831.7
49646.5
48825.5
51286.8
50865.5
38904.3
35232.1
34772.7
35371.6
36212.8
37026.4
37704.7
38231.5
38623.5
38901.9
39093.2
39214.8
39287.9
39320.8
39324.9
39310.2
39279.2
39237.6
39188.3
39134.8
39077.9
39019.2
38959.8
38900.6
38842
38784.6
38728.5
38673.9
38621.1
38570
38520.8
38473.4
38427.9
38384.2
38342.2
38301.9
38263.4
38226.4
38191.1
38157.2
38124.8
38093.7
38064
38035.6
38008.4
37982.4
37957.5
37933.7
37911
37889.2
37868.4
37848.6
37829.5
37811.3
37793.8
37777.2
37761
37745.7
37730.5
37715.8
37700.8
37686.2
37673.6
37663.1
37652.4
37641.3
37629.4
37616.8
37603.2
37588.4
37571.7
37554.2
37533.1
37511.3
37485.3
37455.2
37425
37381
37344.1
37285.4
37226.3
37152.9
37051.7
36943
36773.9
36234.9
37847.3
40906.9
31173.4
27351.6
26310.3
26290.2
26643.3
27134.3
27631
28077
28456.1
28762.3
29005.5
29191.1
29332.2
29434.4
29505.8
29554.3
29583.2
29597.1
29599.2
29593.4
29580.3
29562
29539.9
29515.1
29488.4
29460.6
29431.8
29402.6
29373.3
29344.2
29315.6
29287.3
29259.6
29232.7
29206.4
29180.9
29156.2
29132.3
29109.2
29086.9
29065.3
29044.5
29024.5
29005.1
28986.5
28968.5
28951.2
28934.4
28918.2
28902.5
28887.2
28872.4
28857.8
28843.7
28829.6
28815.7
28801.7
28787.7
28773.4
28758.6
28743
28726.6
28711.8
28699.3
28686.2
28672.3
28657.7
28641.8
28625.1
28606.8
28586.9
28566
28541.5
28517
28487.6
28456
28423.7
28378.8
28343.9
28283.5
28235.6
28159.7
28084.5
27981.8
27845.5
27470.6
28606.9
33284.5
25486
21822.3
20520.5
20124.9
20133.2
20331.2
20618.1
20924.9
21222.6
21490.1
21725.5
21924
22090.8
22226.5
22336
22423.7
22492.1
22544.7
22584.1
22613.3
22633.4
22646.4
22653.5
22656
22654.7
22650.7
22644
22635.5
22625.5
22614.4
22602.6
22590.1
22577.2
22564.1
22550.9
22537.6
22524.3
22511.2
22498.2
22485.5
22473
22460.7
22448.7
22436.9
22425.4
22414.2
22403.1
22392.3
22381.6
22371.1
22360.7
22350.3
22339.8
22329.4
22318.6
22307.7
22296.3
22284.4
22271.9
22258.3
22243.8
22227.6
22212.9
22200.2
22186.9
22172.4
22157.5
22140.8
22123.8
22104.8
22084.7
22063.5
22038.9
22015.1
21985.7
21956.3
21924.7
21883.6
21851.8
21795.8
21756.8
21686.7
21629.4
21537.6
21433.3
21158.5
21960.1
27309.2
21144.2
17779.4
16401.6
15807
15592.9
15582
15683.4
15845.7
16035.4
16227.7
16415.3
16587.6
16744.2
16881.8
17001.6
17104.9
17192.6
17266.7
17328.6
17380.4
17423.1
17458
17486.3
17509.1
17527.1
17541.3
17551.9
17559.7
17565.2
17568.6
17570.5
17570.7
17570.1
17568.4
17565.8
17562.7
17559
17554.8
17550.4
17545.7
17540.7
17535.6
17530.4
17525
17519.5
17514
17508.4
17502.6
17496.8
17490.8
17484.6
17478.2
17471.5
17464.6
17457.1
17449.1
17440.5
17431.1
17420.9
17409.3
17396.9
17382.1
17369
17357
17344.9
17331.2
17317.4
17301.4
17285.8
17267.6
17249.2
17229.2
17206.6
17184.7
17157.7
17131.7
17102.7
17066.9
17038.9
16989.9
16957.7
16897.3
16852.2
16773.6
16696.1
16489.5
17057.4
22541.7
17733.2
14723.3
13370.6
12689
12349.2
12200.6
12170.8
12211
12298.4
12407
12529.7
12653.8
12776.6
12892
12999.6
13097.9
13186.3
13265.2
13335.2
13396.9
13450.9
13498.1
13539.2
13574.8
13605.6
13632.3
13655.2
13674.8
13691.7
13706
13718.3
13728.6
13737.3
13744.6
13750.7
13755.7
13759.7
13762.9
13765.4
13767.3
13768.6
13769.5
13769.8
13769.8
13769.5
13768.8
13767.8
13766.4
13764.7
13762.6
13760.2
13757.3
13754
13750.3
13745.9
13740.8
13735
13728.1
13720.7
13711.3
13701.5
13688.9
13678
13667.4
13657.3
13644.9
13633.2
13618.6
13605.3
13588.7
13573
13554.8
13535.4
13515.9
13492.7
13469.9
13445
13414.4
13390.5
13349.1
13322.6
13272
13236.3
13170.2
13115.2
12956.1
13352.4
18687.6
14992.2
12350
11075.2
10373.3
9972.99
9744.95
9628.92
9583.87
9590.05
9625.17
9684.65
9755.11
9834.26
9914.8
9995.98
10074.5
10149.1
10219.3
10284.5
10344.4
10399.3
10449.1
10494.3
10535.1
10571.8
10604.9
10634.6
10661.2
10685
10706.4
10725.6
10742.7
10758
10771.7
10784
10795
10804.8
10813.5
10821.4
10828.3
10834.6
10840.1
10845
10849.2
10853
10856.2
10858.9
10861.2
10862.9
10864.1
10864.9
10865
10864.7
10863.8
10862.2
10859.7
10856.5
10852.3
10847.4
10840.5
10833.5
10823.3
10814.9
10806
10798
10787.3
10778
10765.3
10754.6
10739.9
10727.3
10711.1
10695.5
10678.2
10659.5
10639.5
10619.4
10593.3
10573.7
10539.3
10517.7
10476.1
10447.7
10393
10355.8
10230.6
10508.5
15541.8
12749.7
10465.8
9294.35
8610.39
8190.51
7923.24
7757.36
7657.79
7607.33
7588.89
7596.12
7619.25
7656.41
7699.86
7749.7
7801.7
7854.45
7907.15
7958.56
8007.82
8054.81
8099.19
8140.85
8179.69
8215.77
8249.25
8280.17
8308.7
8334.99
8359.17
8381.42
8401.85
8420.63
8437.89
8453.75
8468.31
8481.7
8493.99
8505.3
8515.68
8525.23
8533.98
8542.02
8549.35
8556.07
8562.16
8567.68
8572.59
8576.99
8580.75
8584.03
8586.59
8588.63
8590
8590.65
8590.44
8589.62
8587.7
8585.05
8580.61
8576.12
8568.38
8562.49
8555.22
8549.37
8540.46
8533.51
8522.75
8514.65
8502.1
8492.42
8478.45
8466.53
8451.26
8437.04
8419.43
8403.99
8381.85
8366.29
8338.16
8320.67
8286.92
8264.45
8219.95
8195.06
8096.72
8295.32
12955.8
10888.3
8942.62
7884.43
7239.15
6824.2
6543.56
6353.21
6222.86
6137.3
6082.75
6053.05
6040.82
6043.52
6054.82
6075.68
6101.19
6130.37
6162.54
6196.07
6229.92
6263.93
6297.44
6330.13
6361.61
6391.8
6420.67
6448.03
6473.96
6498.43
6521.45
6543.08
6563.38
6582.41
6600.23
6616.91
6632.51
6647.1
6660.73
6673.48
6685.37
6696.5
6706.86
6716.54
6725.53
6733.91
6741.65
6748.85
6755.4
6761.46
6766.85
6771.78
6775.99
6779.7
6782.67
6785.07
6786.59
6787.49
6787.31
6786.49
6784.38
6781.72
6776.45
6772.58
6766.96
6762.94
6755.81
6750.88
6742.1
6736.21
6725.82
6718.7
6706.91
6698.14
6685.01
6674.57
6659.41
6647.9
6629.42
6617.27
6594.61
6580.64
6553.59
6536
6500.61
6482.71
6408.85
6550.84
10819.6
9325.25
7692.27
6748.79
6152.6
5756.57
5478.39
5280.09
5135.37
5030.69
4954.63
4901.39
4865.08
4843.16
4830.91
4828.49
4831.82
4840.3
4853.44
4869.37
4887.15
4906.76
4927.36
4948.59
4969.86
4991.14
5012.23
5032.82
5052.94
5072.4
5091.14
5109.15
5126.42
5142.92
5158.67
5173.66
5187.91
5201.46
5214.3
5226.48
5238
5248.93
5259.23
5268.98
5278.14
5286.81
5294.89
5302.53
5309.58
5316.2
5322.22
5327.83
5332.78
5337.3
5341.11
5344.47
5347
5349.01
5350.11
5350.4
5349.85
5348.52
5345.48
5342.93
5338.94
5336.17
5330.81
5327.29
5320.52
5316.21
5307.98
5302.79
5293.18
5286.83
5275.91
5268.33
5255.71
5247.17
5232.14
5222.72
5204.76
5193.69
5172.39
5158.68
5131.33
5117.22
5064.99
5165.38
9049.27
8000.45
6652.65
5820.47
5277.76
4908.14
4641.66
4445.63
4297.19
4184.3
4097.25
4030.73
3979.84
3942.17
3914.09
3895.1
3882.5
3875.31
3873.15
3874.43
3878.31
3884.98
3893.46
3903.4
3914.19
3925.9
3938.23
3950.78
3963.66
3976.5
3989.26
4001.88
4014.32
4026.46
4038.32
4049.82
4060.96
4071.74
4082.11
4092.11
4101.69
4110.9
4119.7
4128.13
4136.15
4143.82
4151.05
4157.96
4164.41
4170.55
4176.19
4181.52
4186.3
4190.76
4194.6
4198.11
4200.88
4203.31
4204.83
4206.03
4206.01
4205.52
4203.98
4202.29
4199.57
4197.6
4193.75
4191.16
4186.13
4182.9
4176.65
4172.74
4165.25
4160.56
4151.84
4146.24
4136.15
4129.7
4117.86
4110.55
4096.57
4087.94
4071.42
4060.89
4040.18
4029.23
3993.11
4063.02
7579.36
6869.37
5778.82
5051.79
4563.48
4223.88
3974.2
3786.45
3640.88
3526.77
3435.81
3363.16
3304.66
3258.05
3220.45
3191.05
3167.93
3150.07
3136.98
3127.64
3121.24
3117.66
3116.38
3116.92
3118.69
3121.96
3126.27
3131.26
3137.08
3143.26
3149.79
3156.65
3163.71
3170.87
3178.1
3185.3
3192.5
3199.61
3206.59
3213.45
3220.16
3226.71
3233.06
3239.25
3245.19
3250.97
3256.47
3261.79
3266.8
3271.63
3276.1
3280.39
3284.26
3287.92
3291.1
3294.06
3296.43
3298.58
3299.97
3301.16
3301.45
3301.19
3300.28
3299.09
3297.16
3295.72
3292.88
3290.94
3287.18
3284.72
3279.99
3276.99
3271.29
3267.64
3260.98
3256.63
3248.91
3243.87
3234.87
3229.09
3218.5
3211.82
3199.27
3191.29
3175.98
3167.61
3143.13
3190.71
6357.91
5898.26
5037.65
4407.99
3973.09
3664.82
3434.47
3258.37
3119.52
3008.48
2918.1
2844.01
2782.63
2731.85
2689.36
2654.16
2624.87
2600.48
2580.47
2564.13
2550.74
2540.09
2531.75
2525.4
2520.56
2517.22
2515.19
2514.05
2514.06
2514.54
2515.69
2517.44
2519.64
2522.16
2525.02
2528.06
2531.35
2534.73
2538.2
2541.77
2545.37
2549
2552.59
2556.19
2559.71
2563.21
2566.57
2569.9
2573.05
2576.15
2579.02
2581.82
2584.35
2586.77
2588.85
2590.81
2592.35
2593.75
2594.6
2595.34
2595.34
2595.06
2594.18
2593.18
2591.6
2590.44
2588.19
2586.65
2583.74
2581.74
2578.18
2575.69
2571.46
2568.44
2563.52
2559.96
2554.25
2550.15
2543.52
2538.87
2531.09
2525.82
2516.61
2510.61
2499.51
2493.25
2476.98
2508.44
5342.85
5061.07
4404.38
3863.13
3479.67
3202.75
2992.77
2830.01
2700.01
2594.55
2507.45
2434.83
2373.59
2321.79
2277.52
2239.76
2207.39
2179.54
2155.66
2135.19
2117.56
2102.48
2089.61
2078.7
2069.38
2061.52
2055
2049.51
2045.12
2041.49
2038.58
2036.35
2034.71
2033.54
2032.82
2032.43
2032.45
2032.65
2033.08
2033.76
2034.59
2035.57
2036.65
2037.84
2039.07
2040.38
2041.69
2043.05
2044.35
2045.69
2046.92
2048.16
2049.26
2050.32
2051.19
2052.01
2052.56
2053.03
2053.18
2053.1
2052.78
2052.17
2050.94
2049.91
2048.49
2047.35
2045.52
2044.06
2041.82
2040
2037.33
2035.13
2031.99
2029.41
2025.78
2022.81
2018.63
2015.27
2010.45
2006.69
2001.09
1996.93
1990.35
1985.81
1977.99
1973.39
1962.79
1982.88
4499.66
4339.85
3856.92
3397.47
3063.11
2816.88
2627.43
2478.72
2358.62
2260.08
2177.8
2108.38
2049.11
1998.26
1954.22
1915.98
1882.62
1853.39
1827.75
1805.23
1785.36
1767.85
1752.4
1738.78
1726.73
1716.07
1706.71
1698.4
1691.13
1684.71
1679.05
1674.08
1669.75
1665.94
1662.65
1659.76
1657.3
1655.17
1653.32
1651.77
1650.44
1649.35
1648.42
1647.69
1647.06
1646.59
1646.19
1645.91
1645.66
1645.5
1645.33
1645.22
1645.06
1644.93
1644.7
1644.49
1644.12
1643.72
1643.12
1642.46
1641.49
1640.5
1639.02
1637.76
1636.43
1635.21
1633.64
1632.18
1630.36
1628.66
1626.56
1624.61
1622.21
1619.99
1617.26
1614.77
1611.68
1608.93
1605.43
1602.42
1598.41
1595.16
1590.53
1587.12
1581.69
1578.37
1571.54
1583.89
3799.52
3719.93
3378.71
2995.87
2708.13
2491.58
2322.36
2187.83
2078.05
1987.07
1910.42
1845.14
1788.9
1740.16
1697.54
1660.11
1627.09
1597.82
1571.8
1548.61
1527.87
1509.3
1492.62
1477.64
1464.15
1451.97
1441.01
1431.07
1422.11
1413.99
1406.64
1399.96
1393.93
1388.43
1383.46
1378.94
1374.84
1371.11
1367.71
1364.63
1361.82
1359.27
1356.93
1354.82
1352.87
1351.1
1349.46
1347.97
1346.57
1345.3
1344.07
1342.94
1341.82
1340.78
1339.71
1338.68
1337.59
1336.52
1335.33
1334.14
1332.75
1331.35
1329.69
1328.23
1326.93
1325.64
1324.2
1322.78
1321.21
1319.64
1317.9
1316.17
1314.25
1312.35
1310.24
1308.17
1305.84
1303.6
1301.02
1298.62
1295.76
1293.22
1290.01
1287.41
1283.75
1281.27
1276.91
1284.23
3218.14
3188.72
2957.75
2646.7
2403.08
2215.03
2065.48
1944.94
1845.51
1762.31
1691.63
1630.94
1578.29
1532.28
1491.77
1455.91
1424.02
1395.52
1369.97
1346.99
1326.25
1307.49
1290.49
1275.03
1260.98
1248.14
1236.44
1225.71
1215.9
1206.89
1198.62
1191.01
1184.01
1177.56
1171.61
1166.11
1161.03
1156.34
1151.98
1147.95
1144.21
1140.74
1137.5
1134.5
1131.7
1129.09
1126.63
1124.34
1122.18
1120.15
1118.22
1116.4
1114.64
1112.97
1111.32
1109.75
1108.16
1106.62
1105.03
1103.46
1101.81
1100.13
1098.34
1096.77
1095.48
1094.18
1092.83
1091.47
1090.06
1088.62
1087.13
1085.61
1084.02
1082.4
1080.71
1079
1077.19
1075.39
1073.45
1071.56
1069.49
1067.52
1065.29
1063.29
1060.86
1058.96
1056.16
1060.33
2734.74
2735.32
2585.38
2341.15
2139.03
1978.21
1847.65
1740.73
1651.47
1576.01
1511.36
1455.43
1406.58
1363.6
1325.54
1291.64
1261.31
1234.05
1209.46
1187.2
1166.99
1148.6
1131.81
1116.45
1102.37
1089.44
1077.55
1066.59
1056.47
1047.12
1038.47
1030.44
1022.99
1016.07
1009.64
1003.65
998.059
992.848
987.977
983.427
979.163
975.174
971.427
967.916
964.608
961.503
958.568
955.806
953.186
950.711
948.35
946.111
943.96
941.906
939.916
938
936.122
934.294
932.477
930.685
928.875
927.059
925.199
923.61
922.336
921.068
919.792
918.516
917.226
915.928
914.612
913.283
911.931
910.564
909.17
907.763
906.324
904.875
903.39
901.904
900.37
898.859
897.273
895.765
894.102
892.678
890.821
893.079
2331.34
2350.38
2255.23
2072.88
1909.34
1774.35
1661.99
1568.21
1488.79
1420.88
1362.16
1310.96
1265.93
1226.08
1190.59
1158.82
1130.25
1104.46
1081.07
1059.81
1040.42
1022.69
1006.43
991.488
977.734
965.038
953.306
942.44
932.364
923.004
914.299
906.191
898.629
891.569
884.968
878.793
873.006
867.582
862.488
857.705
853.203
848.969
844.976
841.214
837.659
834.303
831.123
828.115
825.257
822.546
819.961
817.5
815.143
812.888
810.716
808.624
806.595
804.625
802.697
800.805
798.932
797.073
795.21
793.646
792.415
791.202
790.003
788.816
787.638
786.467
785.3
784.136
782.973
781.81
780.646
779.483
778.316
777.152
775.984
774.822
773.654
772.5
771.333
770.202
769.022
767.967
766.685
767.821
1992.82
2023.49
1964.78
1837.87
1709.35
1598.6
1503.49
1422.24
1352.24
1291.57
1238.56
1191.92
1150.62
1113.84
1080.91
1051.28
1024.53
1000.26
978.19
958.042
939.602
922.678
907.11
892.754
879.492
867.214
855.829
845.251
835.41
826.239
817.682
809.687
802.207
795.201
788.631
782.464
776.669
771.219
766.087
761.252
756.69
752.385
748.316
744.47
740.828
737.38
734.108
731.004
728.052
725.245
722.57
720.017
717.577
715.24
712.996
710.837
708.754
706.737
704.778
702.867
700.995
699.154
697.333
695.826
694.652
693.508
692.389
691.294
690.22
689.164
688.126
687.103
686.095
685.1
684.118
683.148
682.19
681.245
680.312
679.392
678.485
677.594
676.713
675.858
674.995
674.211
673.282
673.783
1705.83
1746.78
1713.6
1632.75
1536.29
1447.91
1368.88
1299.37
1238.21
1184.34
1136.69
1094.36
1056.58
1022.71
992.214
964.652
939.649
916.893
896.117
877.093
859.628
843.553
828.726
815.019
802.323
790.54
779.587
769.388
759.876
750.993
742.685
734.906
727.612
720.767
714.334
708.283
702.585
697.216
692.15
687.368
682.849
678.575
674.53
670.699
667.066
663.621
660.348
657.238
654.279
651.462
648.777
646.213
643.763
641.418
639.17
637.01
634.932
632.926
630.986
629.104
627.273
625.484
623.732
622.298
621.19
620.118
619.08
618.073
617.094
616.143
615.217
614.315
613.435
612.577
611.74
610.924
610.127
609.35
608.592
607.854
607.135
606.436
605.754
605.096
604.445
603.851
603.143
603.296
1459.51
1515.27
1502.01
1457.38
1389.67
1321.23
1256.67
1197.78
1144.65
1096.98
1054.21
1015.8
981.216
949.995
921.725
896.048
872.659
851.292
831.722
813.75
797.208
781.945
767.834
754.761
742.627
731.345
720.838
711.036
701.88
693.314
685.291
677.765
670.699
664.057
657.806
651.918
646.366
641.127
636.177
631.499
627.073
622.882
618.911
615.145
611.571
608.178
604.953
601.885
598.966
596.184
593.532
591.001
588.583
586.269
584.054
581.928
579.887
577.922
576.029
574.2
572.429
570.709
569.038
567.682
566.641
565.641
564.679
563.753
562.861
562.001
561.172
560.371
559.598
558.852
558.131
557.435
556.763
556.114
555.487
554.883
554.3
553.738
553.195
552.674
552.168
551.698
551.161
551.111
1252.45
1328.09
1333.73
1314.33
1271.98
1219.97
1167.55
1117.67
1071.38
1028.99
990.385
955.316
923.463
894.502
868.127
844.058
822.046
801.869
783.334
766.268
750.523
735.965
722.481
709.966
698.332
687.497
677.392
667.953
659.124
650.854
643.098
635.815
628.97
622.528
616.459
610.737
605.337
600.236
595.413
590.85
586.529
582.435
578.553
574.869
571.371
568.047
564.887
561.879
559.016
556.288
553.687
551.204
548.833
546.567
544.399
542.321
540.33
538.418
536.58
534.81
533.106
531.457
529.866
528.584
527.605
526.67
525.776
524.922
524.104
523.321
522.571
521.854
521.166
520.507
519.877
519.272
518.693
518.139
517.608
517.099
516.613
516.147
515.701
515.274
514.866
514.478
514.085
513.897
1112.85
1207.5
1231.43
1223.37
1198.46
1157.18
1112.5
1068.42
1026.56
987.603
951.716
918.825
888.75
861.259
836.118
813.095
791.979
772.576
754.715
738.24
723.016
708.92
695.847
683.7
672.395
661.858
652.02
642.824
634.215
626.145
618.571
611.455
604.761
598.459
592.518
586.913
581.62
576.618
571.887
567.408
563.166
559.144
555.328
551.706
548.266
544.997
541.887
538.928
536.11
533.425
530.866
528.424
526.093
523.867
521.739
519.703
517.755
515.888
514.099
512.38
510.732
509.144
507.621
506.401
505.474
504.593
503.755
502.958
502.2
501.479
500.793
500.14
499.52
498.929
498.367
497.832
497.323
496.839
496.379
495.941
495.524
495.128
494.752
494.394
494.053
493.729
493.416
493.18
1045.37
1151.16
1185.29
1181.72
1164.45
1128.69
1087.4
1045.99
1006.2
968.853
934.239
902.371
873.13
846.331
821.768
799.235
778.54
759.5
741.955
725.758
710.778
696.9
684.019
672.046
660.897
650.499
640.789
631.708
623.203
615.228
607.741
600.705
594.084
587.848
581.968
576.42
571.18
566.226
561.539
557.102
552.898
548.911
545.129
541.539
538.128
534.886
531.803
528.87
526.077
523.417
520.883
518.467
516.163
513.964
511.866
509.862
507.948
506.119
504.371
502.698
501.101
499.57
498.109
496.948
496.069
495.238
494.452
493.709
493.006
492.34
491.711
491.116
490.553
490.02
489.516
489.039
488.588
488.162
487.759
487.377
487.016
486.674
486.35
486.044
485.753
485.478
485.216
484.978
1048.56
1152.8
1186.11
1182.32
1164.75
1128.81
1087.48
1046.05
1006.25
968.889
934.27
902.401
873.158
846.358
821.794
799.262
778.566
759.526
741.981
725.783
710.803
696.925
684.044
672.07
660.921
650.523
640.813
631.731
623.226
615.251
607.764
600.728
594.107
587.87
581.991
576.443
571.202
566.248
561.562
557.124
552.92
548.934
545.153
541.563
538.153
534.913
531.831
528.9
526.11
523.453
520.923
518.512
516.214
514.023
511.934
509.941
508.04
506.226
504.496
502.844
501.271
499.768
498.338
497.206
496.352
495.547
494.788
494.072
493.397
492.76
492.16
491.595
491.061
490.559
490.085
489.638
489.217
488.82
488.445
488.092
487.759
487.445
487.148
486.867
486.602
486.351
486.115
485.876
1121.05
1211.84
1233.69
1225
1199.16
1157.55
1112.73
1068.58
1026.68
987.707
951.809
918.914
888.836
861.343
836.201
813.176
792.06
772.656
754.794
738.318
723.093
708.997
695.922
683.775
672.469
661.931
652.093
642.896
634.286
626.216
618.641
611.525
604.83
598.527
592.586
586.981
581.688
576.685
571.954
567.476
563.234
559.213
555.399
551.779
548.342
545.076
541.972
539.02
536.212
533.539
530.995
528.573
526.266
524.069
521.976
519.982
518.084
516.277
514.557
512.919
511.363
509.883
508.48
507.375
506.544
505.763
505.029
504.34
503.692
503.084
502.513
501.976
501.472
500.999
500.555
500.138
499.746
499.379
499.033
498.708
498.403
498.116
497.846
497.591
497.352
497.125
496.914
496.682
1261.71
1332.29
1335.67
1315.26
1271.78
1219.55
1167.05
1117.16
1070.89
1028.52
989.95
954.909
923.079
894.138
867.78
843.725
821.725
801.559
783.031
765.973
750.233
735.681
722.2
709.69
698.058
687.227
677.124
667.688
658.86
650.592
642.837
635.556
628.712
622.271
616.203
610.482
605.083
599.983
595.162
590.6
586.282
582.19
578.312
574.632
571.14
567.824
564.674
561.68
558.834
556.128
553.553
551.105
548.776
546.56
544.453
542.45
540.547
538.739
537.023
535.395
533.854
532.393
531.016
529.938
529.13
528.374
527.667
527.005
526.387
525.808
525.268
524.762
524.29
523.849
523.437
523.052
522.692
522.356
522.041
521.747
521.472
521.215
520.974
520.748
520.536
520.337
520.156
519.932
1461.68
1512.16
1497.69
1452.16
1384.58
1316.57
1252.43
1193.91
1141.1
1093.67
1051.11
1012.87
978.419
947.309
919.131
893.531
870.207
848.897
829.374
811.445
794.937
779.706
765.622
752.574
740.462
729.199
718.708
708.922
699.779
691.226
683.212
675.697
668.639
662.005
655.76
649.879
644.333
639.1
634.156
629.483
625.063
620.879
616.915
613.159
609.596
606.217
603.009
599.963
597.071
594.323
591.713
589.234
586.88
584.644
582.523
580.51
578.603
576.797
575.09
573.476
571.955
570.522
569.179
568.135
567.357
566.633
565.96
565.333
564.751
564.21
563.707
563.241
562.808
562.406
562.033
561.688
561.367
561.07
560.794
560.538
560.301
560.08
559.875
559.684
559.508
559.34
559.202
558.968
1697.24
1732.92
1699.47
1619.23
1524.34
1437.36
1359.44
1290.79
1230.31
1176.97
1129.74
1087.74
1050.22
1016.57
986.255
958.845
933.971
911.323
890.64
871.697
854.301
838.288
823.513
809.853
797.196
785.45
774.527
764.356
754.867
746.006
737.716
729.954
722.674
715.841
709.418
703.378
697.688
692.327
687.269
682.494
677.982
673.717
669.681
665.862
662.243
658.815
655.565
652.484
649.562
646.791
644.163
641.671
639.309
637.072
634.955
632.953
631.062
629.278
627.6
626.022
624.544
623.162
621.875
620.886
620.154
619.478
618.854
618.279
617.748
617.26
616.81
616.397
616.018
615.671
615.352
615.06
614.792
614.547
614.322
614.117
613.929
613.757
613.6
613.456
613.324
613.201
613.107
612.841
1969.92
1995.28
1937.69
1813.94
1688.73
1580.54
1487.34
1407.5
1338.59
1278.73
1226.37
1180.23
1139.35
1102.89
1070.24
1040.84
1014.28
990.175
968.238
948.209
929.867
913.031
897.534
883.244
870.033
857.803
846.455
835.913
826.097
816.952
808.412
800.434
792.965
785.97
779.407
773.247
767.455
762.008
756.878
752.045
747.486
743.184
739.121
735.282
731.652
728.22
724.972
721.898
718.99
716.238
713.635
711.173
708.846
706.65
704.579
702.629
700.797
699.079
697.473
695.974
694.584
693.296
692.111
691.216
690.561
689.964
689.419
688.924
688.474
688.066
687.698
687.366
687.068
686.8
686.56
686.346
686.155
685.986
685.836
685.704
685.587
685.484
685.394
685.316
685.246
685.187
685.147
684.871
2288.92
2303.63
2211.97
2036.33
1878.06
1746.91
1637.31
1545.53
1467.62
1400.83
1342.99
1292.46
1248
1208.58
1173.46
1141.99
1113.66
1088.07
1064.86
1043.74
1024.46
1006.83
990.649
975.777
962.068
949.418
937.714
926.875
916.812
907.465
898.76
890.655
883.085
876.02
869.407
863.22
857.416
851.977
846.865
842.065
837.547
833.299
829.294
825.524
821.967
818.614
815.451
812.467
809.652
806.998
804.496
802.141
799.925
797.844
795.894
794.07
792.37
790.79
789.33
787.983
786.755
785.636
784.631
783.892
783.365
782.894
782.478
782.109
781.788
781.506
781.265
781.056
780.88
780.732
780.612
780.515
780.44
780.383
780.344
780.319
780.305
780.289
780.29
780.304
780.334
780.362
780.355
780.141
2666.22
2664.92
2522.62
2289.27
2094.66
1939.04
1812.13
1707.82
1620.48
1546.44
1482.91
1427.81
1379.65
1337.2
1299.57
1266.02
1235.96
1208.92
1184.51
1162.39
1142.29
1123.97
1107.24
1091.92
1077.86
1064.95
1053.04
1042.07
1031.92
1022.54
1013.84
1005.77
998.272
991.304
984.807
978.759
973.107
967.837
962.902
958.293
953.97
949.927
946.129
942.573
939.231
936.098
933.154
930.394
927.803
925.375
923.101
920.975
918.992
917.146
915.434
913.852
912.4
911.072
909.875
908.792
907.846
907.005
906.3
905.813
905.489
905.218
905.003
904.83
904.711
904.616
904.583
904.538
904.548
904.58
904.643
904.725
904.825
904.937
905.064
905.198
905.343
905.492
905.649
905.806
905.971