/*--------------------------------*- C++ -*----------------------------------*\
| =========                 |                                                 |
| \\      /  F ield         | OpenFOAM: The Open Source CFD Toolbox           |
|  \\    /   O peration     | Version:  2306                                  |
|   \\  /    A nd           | Website:  www.openfoam.com                      |
|    \\/     M anipulation  |                                                 |
\*---------------------------------------------------------------------------*/
FoamFile
{
    version     2.0;
    format      ascii;
    arch        "LSB;label=32;scalar=64";
    class       volScalarField;
    location    "2000";
    object      p;
}
// * * * * * * * * * * * * * * * * * * * * * * * * * * * * * * * * * * * * * //

dimensions      [0 2 -2 0 0 0 0];

internalField   nonuniform List<scalar> 
20540
(
1242.23
96.9974
1242.21
30.5051
1242.19
-8.19207
1242.15
-21.2931
1242.11
-26.3576
1242.05
-30.0929
1241.97
-33.3039
1241.87
-35.9376
1241.75
-38.1097
1241.6
-39.9652
1241.4
-41.5933
1241.16
-43.0419
1240.87
-44.3389
1240.51
-45.5012
1240.06
-46.5369
1239.52
-47.4458
1238.86
-48.2196
1238.07
-48.841
1237.11
-49.2814
1235.96
-49.4984
1234.6
-49.4317
1233.01
-48.9982
1231.18
-48.0869
1229.13
-46.5546
1226.91
-44.2236
1224.66
-40.8841
1222.63
-36.3014
1221.3
-30.267
1221.33
-22.8442
1223.24
-14.937
1226.24
-9.17123
1228.27
-6.27409
1228.13
-6.6824
1225.93
-10.3245
1223.02
-16.6776
1221.34
-24.7735
1221.49
-32.2686
1222.93
-38.3895
1225.02
-43.0955
1227.32
-46.5799
1229.59
-49.0615
1231.7
-50.7405
1233.59
-51.7896
1235.25
-52.3506
1236.66
-52.5349
1237.86
-52.4274
1238.87
-52.0909
1239.72
-51.5707
1240.42
-50.8986
1241
-50.0951
1241.48
-49.1722
1241.88
-48.1343
1242.2
-46.9787
1242.46
-45.6957
1242.68
-44.267
1242.85
-42.6638
1242.99
-40.8376
1243.11
-38.6989
1243.2
-36.1036
1243.27
-32.9388
1243.32
-29.2483
1243.36
-24.1723
1243.4
-10.9448
1243.42
27.6892
1243.44
93.2903
-29.3242
-6.00394
-41.6735
-34.8119
-47.904
-49.7671
-56.1317
-60.0589
-64.5421
-68.4819
-72.2988
-75.8863
-79.2986
-82.5371
-85.6202
-88.5533
-91.3509
-94.0168
-96.562
-98.9911
-101.312
-103.53
-105.649
-107.676
-109.615
-111.47
-113.245
-114.944
-116.571
-118.129
-119.62
-121.049
-122.419
-123.731
-124.989
-126.195
-127.353
-128.464
-129.531
-130.556
-131.543
-132.494
-133.413
-134.302
-135.165
-136.005
-136.828
-137.639
-138.442
-139.243
-140.051
-140.871
-141.713
-142.585
-143.497
-144.462
-145.491
-146.602
-147.808
-149.133
-150.593
-152.219
-154.028
-155.721
-157.148
-158.649
-160.237
-161.918
-163.687
-165.559
-167.53
-169.615
-171.809
-174.129
-176.567
-179.154
-181.873
-184.792
-187.871
-191.26
-194.831
-198.95
-203.204
-208.585
-213.816
-222.155
-228.894
-252.185
-29.3583
-6.00371
-41.673
-34.8115
-47.9037
-49.7669
-56.1315
-60.0587
-64.5419
-68.4818
-72.2987
-75.8862
-79.2985
-82.537
-85.6201
-88.5533
-91.3508
-94.0167
-96.5619
-98.9911
-101.312
-103.529
-105.649
-107.676
-109.615
-111.47
-113.245
-114.944
-116.571
-118.129
-119.62
-121.049
-122.419
-123.731
-124.989
-126.195
-127.353
-128.464
-129.531
-130.556
-131.543
-132.494
-133.413
-134.302
-135.165
-136.005
-136.828
-137.639
-138.442
-139.243
-140.05
-140.871
-141.713
-142.585
-143.497
-144.462
-145.491
-146.602
-147.808
-149.133
-150.593
-152.22
-154.028
-155.721
-157.148
-158.649
-160.237
-161.918
-163.687
-165.559
-167.53
-169.615
-171.809
-174.129
-176.567
-179.154
-181.874
-184.793
-187.871
-191.26
-194.831
-198.951
-203.205
-208.587
-213.815
-222.163
-228.885
-251.885
-29.4212
-6.00462
-41.6723
-34.8108
-47.9032
-49.7665
-56.1312
-60.0585
-64.5417
-68.4815
-72.2985
-75.886
-79.2983
-82.5369
-85.62
-88.5531
-91.3507
-94.0166
-96.5618
-98.991
-101.312
-103.529
-105.649
-107.676
-109.615
-111.47
-113.245
-114.944
-116.571
-118.129
-119.62
-121.049
-122.419
-123.731
-124.989
-126.195
-127.353
-128.464
-129.53
-130.556
-131.543
-132.494
-133.413
-134.302
-135.164
-136.005
-136.828
-137.639
-138.441
-139.243
-140.05
-140.871
-141.713
-142.585
-143.497
-144.462
-145.491
-146.602
-147.808
-149.133
-150.593
-152.22
-154.028
-155.722
-157.148
-158.649
-160.237
-161.918
-163.688
-165.56
-167.53
-169.616
-171.809
-174.13
-176.568
-179.155
-181.875
-184.794
-187.872
-191.261
-194.833
-198.952
-203.206
-208.59
-213.814
-222.174
-228.87
-251.429
-29.5136
-6.00782
-41.6717
-34.8098
-47.9023
-49.7657
-56.1305
-60.0579
-64.5412
-68.4811
-72.2981
-75.8857
-79.298
-82.5366
-85.6197
-88.5529
-91.3504
-94.0164
-96.5616
-98.9907
-101.312
-103.529
-105.649
-107.676
-109.615
-111.47
-113.245
-114.944
-116.571
-118.128
-119.62
-121.049
-122.418
-123.731
-124.989
-126.195
-127.353
-128.463
-129.53
-130.556
-131.543
-132.494
-133.413
-134.301
-135.164
-136.005
-136.828
-137.638
-138.441
-139.243
-140.05
-140.871
-141.713
-142.585
-143.497
-144.462
-145.491
-146.602
-147.808
-149.133
-150.593
-152.22
-154.029
-155.722
-157.148
-158.65
-160.238
-161.919
-163.688
-165.561
-167.531
-169.616
-171.81
-174.131
-176.569
-179.156
-181.876
-184.795
-187.874
-191.264
-194.835
-198.956
-203.209
-208.595
-213.81
-222.192
-228.829
-250.797
-29.6465
-6.01548
-41.6721
-34.8087
-47.9012
-49.7646
-56.1296
-60.0571
-64.5404
-68.4804
-72.2975
-75.8851
-79.2975
-82.5361
-85.6192
-88.5524
-91.35
-94.016
-96.5612
-98.9904
-101.312
-103.529
-105.649
-107.676
-109.615
-111.47
-113.245
-114.944
-116.57
-118.128
-119.62
-121.049
-122.418
-123.731
-124.989
-126.195
-127.352
-128.463
-129.53
-130.556
-131.543
-132.494
-133.412
-134.301
-135.164
-136.005
-136.828
-137.638
-138.441
-139.243
-140.05
-140.871
-141.712
-142.585
-143.497
-144.462
-145.491
-146.602
-147.808
-149.133
-150.593
-152.22
-154.029
-155.722
-157.149
-158.65
-160.239
-161.92
-163.689
-165.562
-167.532
-169.618
-171.812
-174.133
-176.571
-179.159
-181.879
-184.798
-187.877
-191.268
-194.839
-198.96
-203.212
-208.602
-213.804
-222.209
-228.757
-249.958
-29.8308
-6.0303
-41.6746
-34.8079
-47.9
-49.7633
-56.1284
-60.0559
-64.5394
-68.4795
-72.2966
-75.8843
-79.2968
-82.5354
-85.6186
-88.5518
-91.3494
-94.0155
-96.5607
-98.9899
-101.311
-103.528
-105.648
-107.675
-109.614
-111.469
-113.244
-114.944
-116.57
-118.128
-119.62
-121.049
-122.418
-123.73
-124.988
-126.195
-127.352
-128.463
-129.53
-130.556
-131.543
-132.494
-133.412
-134.301
-135.164
-136.005
-136.828
-137.638
-138.441
-139.243
-140.05
-140.871
-141.712
-142.585
-143.497
-144.462
-145.491
-146.602
-147.808
-149.133
-150.593
-152.22
-154.03
-155.723
-157.15
-158.651
-160.24
-161.921
-163.69
-165.563
-167.534
-169.62
-171.814
-174.135
-176.574
-179.162
-181.882
-184.802
-187.881
-191.272
-194.844
-198.965
-203.216
-208.608
-213.793
-222.211
-228.651
-248.856
-30.0768
-6.05483
-41.6804
-34.8082
-47.8991
-49.7619
-56.127
-60.0546
-64.5382
-68.4783
-72.2956
-75.8833
-79.2958
-82.5345
-85.6178
-88.5511
-91.3487
-94.0148
-96.56
-98.9893
-101.31
-103.528
-105.648
-107.675
-109.614
-111.469
-113.244
-114.943
-116.57
-118.127
-119.619
-121.048
-122.417
-123.73
-124.988
-126.194
-127.352
-128.463
-129.53
-130.555
-131.542
-132.493
-133.412
-134.301
-135.164
-136.004
-136.828
-137.638
-138.441
-139.242
-140.05
-140.87
-141.712
-142.585
-143.497
-144.462
-145.491
-146.602
-147.808
-149.134
-150.594
-152.221
-154.03
-155.724
-157.151
-158.652
-160.241
-161.922
-163.692
-165.565
-167.536
-169.622
-171.817
-174.138
-176.577
-179.165
-181.886
-184.806
-187.885
-191.277
-194.848
-198.97
-203.218
-208.61
-213.776
-222.186
-228.506
-247.465
-30.3972
-6.0914
-41.6908
-34.81
-47.8988
-49.7607
-56.1256
-60.0531
-64.5367
-68.477
-72.2943
-75.8821
-79.2947
-82.5334
-85.6167
-88.5501
-91.3478
-94.0139
-96.5592
-98.9885
-101.31
-103.527
-105.647
-107.674
-109.613
-111.468
-113.243
-114.942
-116.569
-118.127
-119.619
-121.048
-122.417
-123.729
-124.987
-126.194
-127.351
-128.462
-129.529
-130.555
-131.542
-132.493
-133.411
-134.3
-135.163
-136.004
-136.827
-137.637
-138.44
-139.242
-140.05
-140.87
-141.712
-142.584
-143.497
-144.462
-145.491
-146.602
-147.808
-149.134
-150.594
-152.221
-154.031
-155.724
-157.151
-158.653
-160.242
-161.924
-163.694
-165.567
-167.538
-169.624
-171.819
-174.141
-176.58
-179.168
-181.889
-184.81
-187.889
-191.281
-194.852
-198.972
-203.217
-208.606
-213.751
-222.117
-228.313
-245.784
-30.8085
-6.14255
-41.7073
-34.8142
-47.8997
-49.7599
-56.1243
-60.0516
-64.5352
-68.4754
-72.2928
-75.8806
-79.2933
-82.5321
-85.6155
-88.5489
-91.3466
-94.0128
-96.5582
-98.9875
-101.309
-103.526
-105.646
-107.673
-109.612
-111.467
-113.243
-114.942
-116.568
-118.126
-119.618
-121.047
-122.416
-123.729
-124.987
-126.193
-127.351
-128.462
-129.528
-130.554
-131.541
-132.492
-133.411
-134.3
-135.163
-136.004
-136.827
-137.637
-138.44
-139.242
-140.049
-140.87
-141.712
-142.584
-143.497
-144.462
-145.491
-146.602
-147.808
-149.134
-150.594
-152.222
-154.031
-155.725
-157.152
-158.654
-160.243
-161.925
-163.696
-165.569
-167.54
-169.627
-171.822
-174.143
-176.583
-179.172
-181.892
-184.814
-187.893
-191.284
-194.854
-198.972
-203.212
-208.59
-213.713
-221.984
-228.056
-243.83
-31.331
-6.21156
-41.7315
-34.8216
-47.9024
-49.7599
-56.1235
-60.0502
-64.5336
-68.4738
-72.2911
-75.879
-79.2917
-82.5306
-85.614
-88.5475
-91.3453
-94.0115
-96.5569
-98.9862
-101.308
-103.525
-105.645
-107.672
-109.611
-111.466
-113.242
-114.941
-116.567
-118.125
-119.617
-121.046
-122.415
-123.728
-124.986
-126.192
-127.35
-128.461
-129.528
-130.553
-131.54
-132.492
-133.41
-134.299
-135.162
-136.003
-136.826
-137.636
-138.439
-139.241
-140.049
-140.869
-141.711
-142.584
-143.496
-144.462
-145.491
-146.602
-147.808
-149.134
-150.595
-152.222
-154.032
-155.726
-157.153
-158.655
-160.245
-161.927
-163.697
-165.571
-167.542
-169.629
-171.824
-174.146
-176.585
-179.174
-181.895
-184.816
-187.894
-191.285
-194.852
-198.965
-203.199
-208.555
-213.657
-221.764
-227.711
-241.632
-31.9892
-6.30257
-41.7651
-34.8331
-47.9073
-49.7611
-56.1233
-60.0492
-64.5322
-68.4722
-72.2894
-75.8773
-79.29
-82.5289
-85.6124
-88.5459
-91.3437
-94.01
-96.5554
-98.9848
-101.306
-103.524
-105.644
-107.671
-109.61
-111.465
-113.24
-114.94
-116.566
-118.124
-119.616
-121.045
-122.414
-123.727
-124.985
-126.191
-127.349
-128.46
-129.527
-130.553
-131.54
-132.491
-133.409
-134.298
-135.161
-136.002
-136.825
-137.636
-138.439
-139.24
-140.048
-140.868
-141.71
-142.583
-143.496
-144.461
-145.49
-146.601
-147.808
-149.134
-150.595
-152.222
-154.032
-155.726
-157.154
-158.656
-160.246
-161.928
-163.698
-165.572
-167.544
-169.63
-171.825
-174.147
-176.586
-179.175
-181.895
-184.815
-187.892
-191.28
-194.845
-198.949
-203.175
-208.492
-213.572
-221.433
-227.248
-239.237
-32.812
-6.42082
-41.8102
-34.8497
-47.9153
-49.764
-56.1242
-60.0488
-64.5313
-68.4708
-72.2879
-75.8756
-79.2883
-82.5271
-85.6106
-88.5441
-91.342
-94.0083
-96.5538
-98.9832
-101.305
-103.522
-105.642
-107.67
-109.609
-111.464
-113.239
-114.938
-116.565
-118.123
-119.615
-121.044
-122.413
-123.726
-124.984
-126.19
-127.348
-128.459
-129.526
-130.551
-131.538
-132.49
-133.408
-134.297
-135.16
-136.001
-136.824
-137.635
-138.438
-139.24
-140.047
-140.868
-141.71
-142.582
-143.495
-144.46
-145.49
-146.601
-147.808
-149.133
-150.594
-152.222
-154.032
-155.726
-157.154
-158.656
-160.246
-161.928
-163.699
-165.572
-167.544
-169.63
-171.825
-174.146
-176.585
-179.172
-181.891
-184.81
-187.885
-191.268
-194.828
-198.917
-203.132
-208.389
-213.441
-220.965
-226.624
-236.707
-33.8333
-6.5728
-41.8695
-34.8727
-47.9271
-49.7689
-56.1266
-60.0494
-64.5309
-68.4699
-72.2866
-75.8741
-79.2866
-82.5254
-85.6088
-88.5423
-91.3402
-94.0064
-96.552
-98.9814
-101.303
-103.52
-105.641
-107.668
-109.607
-111.462
-113.237
-114.937
-116.563
-118.121
-119.613
-121.042
-122.412
-123.724
-124.982
-126.189
-127.346
-128.457
-129.524
-130.55
-131.537
-132.489
-133.407
-134.296
-135.159
-136
-136.823
-137.633
-138.437
-139.238
-140.046
-140.867
-141.709
-142.581
-143.494
-144.459
-145.489
-146.6
-147.807
-149.133
-150.593
-152.221
-154.031
-155.725
-157.153
-158.655
-160.245
-161.927
-163.697
-165.57
-167.542
-169.627
-171.821
-174.141
-176.579
-179.164
-181.881
-184.797
-187.868
-191.244
-194.796
-198.86
-203.059
-208.227
-213.237
-220.337
-225.794
-234.113
-35.0916
-6.76655
-41.946
-34.9035
-47.9436
-49.7766
-56.1307
-60.0512
-64.5314
-68.4696
-72.2858
-75.8729
-79.2852
-82.5239
-85.6071
-88.5406
-91.3384
-94.0046
-96.5501
-98.9796
-101.301
-103.519
-105.639
-107.666
-109.605
-111.46
-113.236
-114.935
-116.562
-118.12
-119.612
-121.041
-122.41
-123.723
-124.981
-126.187
-127.345
-128.456
-129.523
-130.549
-131.536
-132.487
-133.406
-134.295
-135.158
-135.999
-136.822
-137.632
-138.435
-139.237
-140.045
-140.865
-141.707
-142.58
-143.493
-144.458
-145.487
-146.598
-147.805
-149.131
-150.592
-152.219
-154.029
-155.723
-157.151
-158.653
-160.242
-161.923
-163.693
-165.565
-167.536
-169.62
-171.813
-174.131
-176.566
-179.148
-181.861
-184.771
-187.837
-191.2
-194.74
-198.768
-202.94
-207.986
-212.925
-219.528
-224.712
-231.515
-36.6297
-7.01187
-42.0433
-34.9437
-47.9657
-49.7877
-56.1372
-60.0546
-64.5332
-68.4702
-72.2857
-75.8724
-79.2843
-82.5227
-85.6058
-88.5391
-91.3368
-94.003
-96.5484
-98.9778
-101.299
-103.517
-105.637
-107.664
-109.603
-111.459
-113.234
-114.933
-116.56
-118.118
-119.61
-121.039
-122.408
-123.721
-124.979
-126.186
-127.343
-128.454
-129.521
-130.547
-131.534
-132.485
-133.404
-134.293
-135.156
-135.997
-136.82
-137.631
-138.434
-139.235
-140.043
-140.864
-141.706
-142.578
-143.491
-144.456
-145.485
-146.596
-147.803
-149.128
-150.589
-152.216
-154.025
-155.718
-157.146
-158.647
-160.235
-161.916
-163.685
-165.556
-167.525
-169.607
-171.797
-174.111
-176.542
-179.119
-181.826
-184.727
-187.783
-191.127
-194.647
-198.623
-202.752
-207.64
-212.459
-218.516
-223.347
-228.942
-38.4926
-7.32065
-42.1656
-34.9953
-47.9945
-49.8027
-56.1465
-60.06
-64.5365
-68.4721
-72.2866
-75.8727
-79.2841
-82.5222
-85.605
-88.5381
-91.3356
-94.0017
-96.547
-98.9764
-101.298
-103.515
-105.635
-107.663
-109.602
-111.457
-113.232
-114.931
-116.558
-118.116
-119.608
-121.037
-122.407
-123.719
-124.977
-126.184
-127.341
-128.452
-129.52
-130.545
-131.532
-132.484
-133.402
-134.291
-135.154
-135.995
-136.818
-137.629
-138.432
-139.234
-140.041
-140.862
-141.703
-142.576
-143.488
-144.454
-145.483
-146.593
-147.799
-149.124
-150.584
-152.21
-154.018
-155.71
-157.137
-158.638
-160.224
-161.903
-163.671
-165.539
-167.505
-169.583
-171.768
-174.077
-176.501
-179.07
-181.767
-184.655
-187.694
-191.009
-194.499
-198.403
-202.462
-207.152
-211.788
-217.277
-221.689
-226.38
-40.7245
-7.70711
-42.3179
-35.0604
-48.0312
-49.8226
-56.1591
-60.0679
-64.5417
-68.4755
-72.2888
-75.8741
-79.2849
-82.5225
-85.605
-88.5378
-91.3351
-94.001
-96.5462
-98.9754
-101.297
-103.514
-105.634
-107.661
-109.6
-111.455
-113.231
-114.93
-116.557
-118.114
-119.606
-121.036
-122.405
-123.718
-124.976
-126.182
-127.34
-128.451
-129.518
-130.544
-131.531
-132.482
-133.401
-134.29
-135.152
-135.993
-136.817
-137.627
-138.43
-139.231
-140.039
-140.859
-141.701
-142.573
-143.485
-144.45
-145.479
-146.589
-147.794
-149.118
-150.577
-152.202
-154.008
-155.697
-157.123
-158.622
-160.206
-161.882
-163.647
-165.511
-167.473
-169.544
-171.723
-174.022
-176.436
-178.992
-181.674
-184.54
-187.555
-190.827
-194.269
-198.075
-202.029
-206.478
-210.863
-215.784
-219.743
-223.779
-43.3633
-8.18795
-42.5058
-35.1416
-48.077
-49.8481
-56.1756
-60.0786
-64.5491
-68.4808
-72.2926
-75.8768
-79.287
-82.524
-85.606
-88.5385
-91.3355
-94.0011
-96.5461
-98.9751
-101.296
-103.513
-105.633
-107.66
-109.599
-111.454
-113.23
-114.929
-116.555
-118.113
-119.605
-121.034
-122.404
-123.716
-124.974
-126.181
-127.338
-128.449
-129.516
-130.542
-131.529
-132.48
-133.399
-134.288
-135.151
-135.992
-136.815
-137.625
-138.428
-139.229
-140.036
-140.856
-141.698
-142.57
-143.481
-144.445
-145.473
-146.582
-147.786
-149.109
-150.566
-152.188
-153.991
-155.678
-157.101
-158.597
-160.178
-161.849
-163.609
-165.466
-167.421
-169.483
-171.651
-173.936
-176.335
-178.87
-181.53
-184.363
-187.34
-190.55
-193.92
-197.597
-201.401
-205.566
-209.638
-214.003
-217.517
-221.063
-46.4323
-8.78237
-42.7352
-35.2414
-48.1333
-49.8802
-56.1965
-60.0927
-64.5591
-68.4882
-72.2983
-75.8813
-79.2905
-82.5268
-85.6083
-88.5404
-91.337
-94.0023
-96.5471
-98.9759
-101.297
-103.514
-105.634
-107.661
-109.599
-111.454
-113.229
-114.928
-116.555
-118.113
-119.605
-121.034
-122.403
-123.715
-124.973
-126.18
-127.337
-128.448
-129.515
-130.541
-131.528
-132.479
-133.398
-134.287
-135.149
-135.99
-136.813
-137.623
-138.426
-139.227
-140.034
-140.853
-141.694
-142.565
-143.476
-144.439
-145.466
-146.573
-147.775
-149.096
-150.55
-152.168
-153.967
-155.648
-157.068
-158.559
-160.134
-161.798
-163.55
-165.398
-167.341
-169.389
-171.54
-173.805
-176.18
-178.685
-181.311
-184.096
-187.017
-190.14
-193.406
-196.914
-200.518
-204.356
-208.069
-211.902
-215.007
-218.153
-49.9281
-9.51151
-43.0126
-35.3628
-48.2009
-49.9196
-56.2223
-60.1107
-64.5721
-68.4982
-72.3061
-75.8877
-79.2958
-82.5313
-85.6122
-88.5437
-91.3399
-94.0049
-96.5494
-98.9779
-101.298
-103.515
-105.635
-107.662
-109.6
-111.455
-113.23
-114.929
-116.556
-118.113
-119.605
-121.034
-122.403
-123.715
-124.973
-126.18
-127.337
-128.448
-129.515
-130.541
-131.528
-132.479
-133.397
-134.286
-135.148
-135.989
-136.812
-137.621
-138.424
-139.225
-140.031
-140.85
-141.69
-142.56
-143.469
-144.431
-145.455
-146.56
-147.76
-149.076
-150.526
-152.138
-153.93
-155.603
-157.018
-158.502
-160.068
-161.721
-163.462
-165.294
-167.22
-169.247
-171.373
-173.608
-175.948
-178.409
-180.983
-183.699
-186.538
-189.542
-192.665
-195.96
-199.314
-202.788
-206.117
-209.45
-212.187
-214.973
-53.8046
-10.3968
-43.3445
-35.5085
-48.2809
-49.9673
-56.2534
-60.1329
-64.5885
-68.5111
-72.3165
-75.8964
-79.3032
-82.5378
-85.6179
-88.5489
-91.3446
-94.0091
-96.5533
-98.9814
-101.302
-103.518
-105.638
-107.664
-109.603
-111.457
-113.232
-114.931
-116.557
-118.115
-119.606
-121.035
-122.405
-123.717
-124.975
-126.181
-127.338
-128.449
-129.516
-130.541
-131.528
-132.479
-133.397
-134.286
-135.148
-135.989
-136.811
-137.62
-138.422
-139.222
-140.028
-140.846
-141.684
-142.553
-143.46
-144.419
-145.441
-146.542
-147.737
-149.048
-150.491
-152.095
-153.876
-155.538
-156.943
-158.416
-159.968
-161.606
-163.328
-165.138
-167.039
-169.035
-171.125
-173.315
-175.604
-178.001
-180.501
-183.119
-185.842
-188.689
-191.624
-194.662
-197.718
-200.806
-203.741
-206.609
-209.012
-211.454
-57.9552
-11.4565
-43.7373
-35.6809
-48.3734
-50.0237
-56.29
-60.1597
-64.6083
-68.5272
-72.3297
-75.9076
-79.313
-82.5465
-85.6258
-88.5561
-91.3512
-94.0153
-96.559
-98.9868
-101.307
-103.523
-105.642
-107.669
-109.607
-111.461
-113.236
-114.935
-116.561
-118.118
-119.61
-121.038
-122.407
-123.719
-124.977
-126.183
-127.341
-128.451
-129.518
-130.543
-131.53
-132.481
-133.399
-134.287
-135.149
-135.989
-136.811
-137.62
-138.421
-139.22
-140.024
-140.84
-141.677
-142.543
-143.447
-144.403
-145.42
-146.516
-147.704
-149.007
-150.44
-152.03
-153.795
-155.44
-156.831
-158.288
-159.82
-161.434
-163.129
-164.907
-166.77
-168.72
-170.757
-172.885
-175.1
-177.408
-179.802
-182.288
-184.853
-187.499
-190.197
-192.938
-195.661
-198.351
-200.894
-203.334
-205.424
-207.53
-62.1946
-12.7005
-44.1959
-35.8818
-48.4779
-50.0894
-56.3318
-60.1915
-64.632
-68.5468
-72.3459
-75.9217
-79.3255
-82.5578
-85.6361
-88.5656
-91.36
-94.0236
-96.5669
-98.9943
-101.314
-103.53
-105.649
-107.675
-109.613
-111.467
-113.242
-114.94
-116.566
-118.123
-119.614
-121.043
-122.412
-123.724
-124.981
-126.188
-127.345
-128.455
-129.522
-130.547
-131.533
-132.484
-133.402
-134.29
-135.151
-135.991
-136.812
-137.619
-138.419
-139.217
-140.019
-140.833
-141.667
-142.529
-143.429
-144.379
-145.39
-146.477
-147.656
-148.946
-150.364
-151.935
-153.676
-155.296
-156.665
-158.097
-159.6
-161.178
-162.833
-164.564
-166.372
-168.257
-170.22
-172.259
-174.371
-176.555
-178.805
-181.117
-183.479
-185.88
-188.296
-190.707
-193.071
-195.365
-197.524
-199.567
-201.353
-203.13
-66.249
-14.1231
-44.7211
-36.1118
-48.5924
-50.1641
-56.3783
-60.2281
-64.6592
-68.5699
-72.3653
-75.9389
-79.3409
-82.5718
-85.649
-88.5777
-91.3714
-94.0344
-96.5771
-99.0041
-101.323
-103.539
-105.658
-107.683
-109.621
-111.475
-113.249
-114.947
-116.573
-118.13
-119.621
-121.05
-122.418
-123.73
-124.988
-126.194
-127.35
-128.461
-129.527
-130.552
-131.538
-132.489
-133.406
-134.293
-135.154
-135.993
-136.813
-137.619
-138.417
-139.213
-140.012
-140.823
-141.652
-142.509
-143.402
-144.344
-145.345
-146.42
-147.584
-148.855
-150.25
-151.793
-153.499
-155.083
-156.419
-157.814
-159.273
-160.801
-162.397
-164.06
-165.79
-167.585
-169.442
-171.359
-173.331
-175.351
-177.413
-179.506
-181.618
-183.732
-185.829
-187.887
-189.879
-191.785
-193.571
-195.24
-196.725
-198.175
-69.7611
-15.6944
-45.3056
-36.3696
-48.7133
-50.2471
-56.4283
-60.2693
-64.6898
-68.5965
-72.3879
-75.9592
-79.3592
-82.5887
-85.6648
-88.5925
-91.3855
-94.0477
-96.5899
-99.0164
-101.335
-103.55
-105.669
-107.694
-109.632
-111.485
-113.259
-114.957
-116.583
-118.139
-119.63
-121.059
-122.427
-123.739
-124.996
-126.202
-127.358
-128.468
-129.535
-130.559
-131.545
-132.495
-133.412
-134.298
-135.158
-135.996
-136.814
-137.618
-138.414
-139.206
-140.001
-140.806
-141.629
-142.478
-143.362
-144.291
-145.278
-146.335
-147.477
-148.721
-150.083
-151.584
-153.238
-154.769
-156.057
-157.397
-158.793
-160.248
-161.761
-163.329
-164.95
-166.62
-168.335
-170.09
-171.877
-173.689
-175.516
-177.345
-179.164
-180.958
-182.711
-184.405
-186.024
-187.554
-188.978
-190.299
-191.487
-192.624
-72.3226
-17.3501
-45.9266
-36.6506
-48.8341
-50.3367
-56.4795
-60.3143
-64.7231
-68.6263
-72.4134
-75.9824
-79.3805
-82.6085
-85.6833
-88.6101
-91.4022
-94.0638
-96.6053
-99.0312
-101.349
-103.564
-105.682
-107.707
-109.644
-111.498
-113.271
-114.969
-116.594
-118.151
-119.641
-121.07
-122.438
-123.749
-125.006
-126.212
-127.368
-128.478
-129.544
-130.568
-131.554
-132.503
-133.419
-134.304
-135.163
-135.998
-136.815
-137.616
-138.408
-139.195
-139.984
-140.781
-141.595
-142.431
-143.301
-144.212
-145.177
-146.208
-147.318
-148.522
-149.835
-151.276
-152.856
-154.31
-155.528
-156.79
-158.097
-159.45
-160.847
-162.285
-163.758
-165.262
-166.791
-168.339
-169.896
-171.453
-173.001
-174.528
-176.023
-177.474
-178.87
-180.202
-181.459
-182.632
-183.709
-184.689
-185.57
-186.399
-73.5515
-18.9815
-46.5377
-36.9459
-48.9451
-50.4298
-56.5291
-60.362
-64.7579
-68.6587
-72.4414
-76.0083
-79.4043
-82.6309
-85.7045
-88.6303
-91.4215
-94.0823
-96.6232
-99.0485
-101.366
-103.581
-105.698
-107.723
-109.659
-111.512
-113.286
-114.983
-116.608
-118.164
-119.655
-121.083
-122.451
-123.762
-125.019
-126.224
-127.38
-128.49
-129.555
-130.579
-131.563
-132.512
-133.426
-134.31
-135.167
-136
-136.813
-137.61
-138.396
-139.176
-139.956
-140.742
-141.542
-142.361
-143.209
-144.095
-145.028
-146.021
-147.083
-148.23
-149.473
-150.827
-152.302
-153.648
-154.768
-155.92
-157.103
-158.318
-159.56
-160.825
-162.106
-163.399
-164.696
-165.99
-167.272
-168.534
-169.768
-170.964
-172.114
-173.211
-174.242
-175.203
-176.092
-176.91
-177.655
-178.325
-178.922
-179.465
-73.216
-20.4271
-47.0619
-37.2399
-49.033
-50.5224
-56.5729
-60.4102
-64.7925
-68.6924
-72.4709
-76.036
-79.4301
-82.6553
-85.7277
-88.6525
-91.4427
-94.1028
-96.643
-99.0677
-101.385
-103.599
-105.716
-107.74
-109.676
-111.529
-113.302
-114.999
-116.624
-118.18
-119.67
-121.097
-122.465
-123.776
-125.033
-126.238
-127.393
-128.502
-129.567
-130.59
-131.574
-132.521
-133.434
-134.316
-135.17
-135.999
-136.807
-137.598
-138.376
-139.146
-139.913
-140.683
-141.462
-142.256
-143.074
-143.922
-144.81
-145.748
-146.743
-147.809
-148.952
-150.186
-151.514
-152.711
-153.697
-154.701
-155.719
-156.752
-157.794
-158.84
-159.884
-160.919
-161.94
-162.938
-163.908
-164.842
-165.732
-166.573
-167.36
-168.093
-168.768
-169.383
-169.938
-170.433
-170.866
-171.24
-171.555
-171.818
-71.3558
-21.4868
-47.4056
-37.5055
-49.0849
-50.6076
-56.6068
-60.4558
-64.8246
-68.7253
-72.5
-76.0639
-79.4564
-82.6803
-85.7516
-88.6755
-91.4649
-94.1242
-96.6638
-99.0879
-101.405
-103.618
-105.734
-107.758
-109.694
-111.546
-113.319
-115.016
-116.64
-118.196
-119.686
-121.113
-122.481
-123.791
-125.047
-126.252
-127.407
-128.516
-129.58
-130.602
-131.584
-132.53
-133.44
-134.319
-135.169
-135.993
-136.794
-137.576
-138.342
-139.097
-139.846
-140.593
-141.343
-142.103
-142.877
-143.673
-144.497
-145.357
-146.259
-147.211
-148.218
-149.287
-150.419
-151.418
-152.228
-153.04
-153.85
-154.655
-155.452
-156.234
-156.997
-157.734
-158.441
-159.111
-159.74
-160.325
-160.863
-161.354
-161.796
-162.188
-162.53
-162.822
-163.063
-163.253
-163.394
-163.486
-163.533
-163.532
-68.2752
-22.0094
-47.5321
-37.6978
-49.1047
-50.674
-56.6301
-60.494
-64.8518
-68.7545
-72.5263
-76.0894
-79.4806
-82.7036
-85.7741
-88.6971
-91.4859
-94.1445
-96.6835
-99.1071
-101.423
-103.636
-105.752
-107.776
-109.711
-111.563
-113.335
-115.032
-116.656
-118.211
-119.701
-121.128
-122.495
-123.806
-125.061
-126.266
-127.42
-128.528
-129.591
-130.612
-131.593
-132.536
-133.443
-134.318
-135.162
-135.979
-136.77
-137.539
-138.289
-139.024
-139.747
-140.462
-141.173
-141.884
-142.598
-143.322
-144.059
-144.813
-145.588
-146.388
-147.214
-148.067
-148.945
-149.694
-150.284
-150.86
-151.417
-151.954
-152.465
-152.948
-153.396
-153.807
-154.178
-154.507
-154.794
-155.038
-155.24
-155.4
-155.517
-155.592
-155.626
-155.619
-155.572
-155.486
-155.363
-155.204
-155.015
-154.788
-64.9496
-22.025
-47.5401
-37.7582
-49.121
-50.7031
-56.6458
-60.5161
-64.8699
-68.7737
-72.5442
-76.1069
-79.4975
-82.7198
-85.7898
-88.7123
-91.5006
-94.1588
-96.6974
-99.1206
-101.436
-103.649
-105.765
-107.788
-109.723
-111.575
-113.347
-115.043
-116.667
-118.223
-119.712
-121.139
-122.506
-123.816
-125.071
-126.275
-127.429
-128.536
-129.598
-130.618
-131.596
-132.537
-133.44
-134.31
-135.147
-135.955
-136.735
-137.489
-138.22
-138.931
-139.623
-140.3
-140.964
-141.616
-142.261
-142.9
-143.535
-144.167
-144.797
-145.425
-146.049
-146.666
-147.27
-147.755
-148.119
-148.456
-148.763
-149.038
-149.278
-149.48
-149.642
-149.763
-149.844
-149.885
-149.887
-149.851
-149.779
-149.671
-149.529
-149.354
-149.147
-148.91
-148.643
-148.349
-148.031
-147.691
-147.332
-146.949
-62.7543
-21.8984
-47.478
-37.7439
-49.119
-50.7048
-56.6489
-60.5221
-64.8761
-68.7807
-72.5513
-76.114
-79.5046
-82.7268
-85.7967
-88.719
-91.5073
-94.1653
-96.7038
-99.1268
-101.443
-103.655
-105.771
-107.794
-109.729
-111.581
-113.353
-115.049
-116.673
-118.228
-119.717
-121.144
-122.511
-123.821
-125.076
-126.279
-127.433
-128.539
-129.6
-130.618
-131.595
-132.532
-133.432
-134.297
-135.127
-135.925
-136.693
-137.432
-138.143
-138.829
-139.49
-140.127
-140.743
-141.337
-141.91
-142.463
-142.995
-143.506
-143.993
-144.453
-144.882
-145.276
-145.624
-145.869
-146.03
-146.154
-146.243
-146.293
-146.304
-146.274
-146.203
-146.093
-145.944
-145.759
-145.54
-145.289
-145.008
-144.7
-144.365
-144.006
-143.625
-143.223
-142.802
-142.365
-141.915
-141.453
-140.982
-140.497
-62.8894
-21.8437
-47.449
-37.7062
-49.1013
-50.6886
-56.6406
-60.5146
-64.8713
-68.7765
-72.5481
-76.1113
-79.5024
-82.7249
-85.7951
-88.7176
-91.506
-94.1642
-96.7029
-99.1259
-101.442
-103.654
-105.77
-107.793
-109.728
-111.58
-113.352
-115.049
-116.672
-118.228
-119.717
-121.144
-122.51
-123.82
-125.075
-126.278
-127.431
-128.537
-129.597
-130.614
-131.588
-132.523
-133.419
-134.278
-135.102
-135.891
-136.646
-137.369
-138.061
-138.721
-139.35
-139.948
-140.515
-141.051
-141.553
-142.021
-142.452
-142.844
-143.192
-143.492
-143.738
-143.923
-144.038
-144.066
-144.046
-143.985
-143.884
-143.743
-143.562
-143.341
-143.082
-142.785
-142.455
-142.093
-141.702
-141.286
-140.846
-140.387
-139.91
-139.416
-138.91
-138.391
-137.863
-137.326
-136.785
-136.24
-135.695
-135.142
-65.2718
-21.8496
-47.4491
-37.6407
-49.0686
-50.6536
-56.6208
-60.4933
-64.8552
-68.761
-72.5346
-76.0987
-79.4908
-82.714
-85.7849
-88.7079
-91.4969
-94.1554
-96.6945
-99.1179
-101.434
-103.647
-105.763
-107.786
-109.722
-111.574
-113.346
-115.042
-116.666
-118.222
-119.711
-121.138
-122.504
-123.814
-125.069
-126.272
-127.425
-128.53
-129.589
-130.604
-131.577
-132.509
-133.401
-134.255
-135.072
-135.852
-136.596
-137.304
-137.976
-138.611
-139.21
-139.77
-140.291
-140.769
-141.204
-141.591
-141.927
-142.208
-142.427
-142.58
-142.659
-142.657
-142.566
-142.405
-142.229
-142.009
-141.749
-141.45
-141.112
-140.736
-140.326
-139.883
-139.41
-138.911
-138.39
-137.848
-137.29
-136.718
-136.135
-135.544
-134.947
-134.346
-133.742
-133.137
-132.534
-131.934
-131.339
-130.744
-68.6416
-21.6957
-47.3702
-37.4942
-49.0183
-50.5897
-56.5881
-60.4553
-64.827
-68.7331
-72.5102
-76.0756
-79.4695
-82.6938
-85.7659
-88.6898
-91.4797
-94.1389
-96.6787
-99.1026
-101.419
-103.633
-105.749
-107.773
-109.708
-111.561
-113.333
-115.03
-116.654
-118.21
-119.699
-121.127
-122.493
-123.804
-125.058
-126.261
-127.413
-128.518
-129.576
-130.591
-131.561
-132.491
-133.38
-134.229
-135.039
-135.811
-136.544
-137.238
-137.891
-138.504
-139.074
-139.599
-140.076
-140.503
-140.875
-141.188
-141.437
-141.617
-141.721
-141.742
-141.675
-141.51
-141.241
-140.92
-140.612
-140.261
-139.871
-139.442
-138.977
-138.478
-137.949
-137.391
-136.809
-136.205
-135.584
-134.949
-134.303
-133.649
-132.99
-132.328
-131.666
-131.006
-130.35
-129.698
-129.054
-128.417
-127.79
-127.168
-71.708
-21.0529
-47.1523
-37.2298
-48.9603
-50.4929
-56.5469
-60.4025
-64.7898
-68.6958
-72.4777
-76.045
-79.4411
-82.667
-85.7406
-88.6656
-91.4566
-94.1167
-96.6574
-99.0821
-101.399
-103.613
-105.73
-107.755
-109.691
-111.544
-113.316
-115.014
-116.638
-118.195
-119.683
-121.112
-122.478
-123.789
-125.043
-126.247
-127.398
-128.503
-129.56
-130.574
-131.543
-132.471
-133.356
-134.203
-135.007
-135.773
-136.496
-137.178
-137.817
-138.411
-138.958
-139.454
-139.897
-140.281
-140.603
-140.857
-141.037
-141.137
-141.15
-141.07
-140.889
-140.601
-140.198
-139.757
-139.353
-138.905
-138.42
-137.898
-137.342
-136.755
-136.142
-135.505
-134.848
-134.174