/*--------------------------------*- C++ -*----------------------------------*\
| =========                 |                                                 |
| \\      /  F ield         | OpenFOAM: The Open Source CFD Toolbox           |
|  \\    /   O peration     | Version:  2306                                  |
|   \\  /    A nd           | Website:  www.openfoam.com                      |
|    \\/     M anipulation  |                                                 |
\*---------------------------------------------------------------------------*/
FoamFile
{
    version     2.0;
    format      ascii;
    arch        "LSB;label=32;scalar=64";
    class       surfaceScalarField;
    location    "2000";
    object      phi;
}
// * * * * * * * * * * * * * * * * * * * * * * * * * * * * * * * * * * * * * //

dimensions      [0 3 -1 0 0 0 0];

oriented        oriented;

internalField   nonuniform List<scalar> 
40747
(
9.62941e-06
5.25108e-06
3.41102e-06
6.2184e-06
1.16556e-05
1.15968e-05
4.6203e-06
1.04464e-05
1.41108e-05
1.92627e-05
4.68932e-06
1.40418e-05
1.70868e-05
2.85198e-05
4.07536e-06
1.77008e-05
2.06961e-05
3.96926e-05
2.87529e-06
2.18962e-05
2.50761e-05
5.31693e-05
1.06463e-06
2.68867e-05
3.0395e-05
6.94126e-05
-1.43923e-06
3.28989e-05
3.68596e-05
8.89727e-05
-4.75968e-06
4.01801e-05
4.47246e-05
0.0001125
-9.05728e-06
4.90222e-05
5.43048e-05
0.000140762
-1.4531e-05
5.97785e-05
6.59907e-05
0.000174655
-2.14212e-05
7.28809e-05
8.02688e-05
0.000215218
-3.00139e-05
8.88614e-05
9.77481e-05
0.000263643
-4.06433e-05
0.000108378
0.000119195
0.000321278
-5.36943e-05
0.000132246
0.000145579
0.000389616
-6.96003e-05
0.000161485
0.000178133
0.000470263
-8.88365e-05
0.00019737
0.000218438
0.000564878
-0.000111903
0.000241505
0.000268528
0.000675059
-0.000139297
0.000295922
0.000331039
0.000802156
-0.000171461
0.000363203
0.000409401
0.000946974
-0.000208706
0.000446645
0.000508102
0.00110933
-0.000251091
0.000550488
0.000633028
0.00128737
-0.000298261
0.000680198
0.000791915
0.00147662
-0.000349203
0.000842856
0.000994919
0.00166865
-0.00040193
0.00104765
0.00125535
0.00184918
-0.000453058
0.00130648
0.00159056
0.00199566
-0.000497244
0.00163474
0.00202296
0.00207403
-0.000526397
0.00205211
0.00258124
0.00203482
-0.00052839
0.00258324
0.00330161
0.00180838
-0.000484377
0.0032576
0.00422685
0.00130165
-0.000364215
0.00410669
0.0042371
0.000629057
-0.000191982
0.00406487
0.0043509
-0.000157332
2.35625e-05
0.00413535
0.00434181
-0.000934636
0.000236287
0.00412909
0.00421498
-0.00158511
0.000403342
0.00404792
0.00407017
-0.00204801
0.000514541
0.00395897
0.0031998
-0.00224694
0.00055554
0.0031588
0.00251752
-0.00226806
0.000553159
0.00251991
0.00198504
-0.00217635
0.000524495
0.00201371
0.00156984
-0.00201855
0.000480815
0.00161352
0.00124588
-0.00182722
0.000429805
0.00129689
0.000992662
-0.00162427
0.000376665
0.0010458
0.000794157
-0.0014238
0.000324784
0.000846037
0.00063797
-0.00123435
0.000276234
0.000686521
0.00051456
-0.00106058
0.00023214
0.000558654
0.000416604
-0.000904564
0.000192979
0.000455766
0.00033849
-0.000766695
0.000158795
0.000372673
0.000275909
-0.000646324
0.000129366
0.000305338
0.00022555
-0.00054221
0.000104315
0.000250601
0.000184857
-0.000452821
8.31919e-05
0.00020598
0.000151848
-0.000376526
6.55269e-05
0.000169513
0.000124979
-0.000311713
5.08616e-05
0.000139644
0.000103039
-0.000256866
3.87691e-05
0.000115132
8.50747e-05
-0.000210595
2.88637e-05
9.49801e-05
7.033e-05
-0.00017166
2.08047e-05
7.8389e-05
5.82025e-05
-0.000138965
1.42962e-05
6.4711e-05
4.82096e-05
-0.000111557
9.0853e-06
5.34205e-05
3.99627e-05
-8.86143e-05
4.95853e-06
4.40895e-05
3.31478e-05
-6.94313e-05
1.73899e-06
3.63674e-05
2.751e-05
-5.34075e-05
-7.16403e-07
2.99654e-05
2.28413e-05
-4.00332e-05
-2.5175e-06
2.46424e-05
1.89721e-05
-2.88778e-05
-3.73674e-06
2.01914e-05
1.57634e-05
-1.95782e-05
-4.39142e-06
1.6418e-05
1.31008e-05
-1.18292e-05
-4.38028e-06
1.30897e-05
1.08903e-05
-5.37469e-06
-3.24735e-06
9.75734e-06
9.05439e-06
5.80704e-06
2.58648e-06
3.63192e-06
1.97193e-06
6.14553e-07
1.78235e-06
1.89572e-07
1.6666e-06
1.15751e-07
1.58553e-06
8.10791e-08
1.52298e-06
6.25492e-08
1.47326e-06
4.9718e-08
1.43183e-06
4.1437e-08
1.39679e-06
3.5042e-08
1.36652e-06
3.02749e-08
1.34009e-06
2.64285e-08
1.31677e-06
2.33244e-08
1.29602e-06
2.07548e-08
1.27743e-06
1.85992e-08
1.2607e-06
1.67269e-08
1.24555e-06
1.51544e-08
1.23178e-06
1.37747e-08
1.21923e-06
1.25536e-08
1.20775e-06
1.14932e-08
1.19719e-06
1.05552e-08
1.18748e-06
9.71692e-09
1.17852e-06
8.96396e-09
1.17023e-06
8.29256e-09
1.16254e-06
7.68994e-09
1.1554e-06
7.14178e-09
1.14875e-06
6.64539e-09
1.14255e-06
6.19633e-09
1.13677e-06
5.78319e-09
1.13136e-06
5.40815e-09
1.12629e-06
5.06451e-09
1.12153e-06
4.74894e-09
1.11707e-06
4.4568e-09
1.11287e-06
4.18779e-09
1.10892e-06
3.93963e-09
1.1052e-06
3.70973e-09
1.1017e-06
3.49503e-09
1.09839e-06
3.2951e-09
1.09527e-06
3.10819e-09
1.09232e-06
2.93282e-09
1.08954e-06
2.76711e-09
1.08691e-06
2.60992e-09
1.08443e-06
2.45958e-09
1.08209e-06
2.3149e-09
1.0799e-06
2.17442e-09
1.07784e-06
2.03574e-09
1.07591e-06
1.89846e-09
1.07412e-06
1.75985e-09
1.07248e-06
1.61846e-09
1.07097e-06
1.47134e-09
1.06962e-06
1.31749e-09
1.06843e-06
1.15272e-09
1.06741e-06
9.75453e-10
1.06657e-06
7.81247e-10
1.06594e-06
5.64594e-10
1.06554e-06
3.2792e-10
1.06538e-06
5.83049e-11
1.06549e-06
-2.28767e-10
1.06592e-06
-5.62542e-10
1.0667e-06
-9.15997e-10
1.06788e-06
-1.31948e-09
1.0695e-06
-1.7638e-09
1.07163e-06
-2.26902e-09
1.07432e-06
-2.8274e-09
1.07646e-06
-2.2994e-09
1.07888e-06
-2.56051e-09
1.0816e-06
-2.87592e-09
1.08461e-06
-3.10067e-09
1.08791e-06
-3.41003e-09
1.09153e-06
-3.631e-09
1.09546e-06
-3.97727e-09
1.09977e-06
-4.20056e-09
1.10441e-06
-4.56576e-09
1.10946e-06
-4.79504e-09
1.1149e-06
-5.18564e-09
1.12084e-06
-5.44559e-09
1.12727e-06
-5.88757e-09
1.13435e-06
-6.18429e-09
1.14215e-06
-6.639e-09
1.15086e-06
-6.96813e-09
1.16063e-06
-7.37113e-09
1.17198e-06
-7.99288e-09
1.18475e-06
-8.39145e-09
1.20077e-06
-1.02685e-08
1.22076e-06
-1.29592e-08
1.243e-06
-1.34878e-08
1.3037e-06
-4.96102e-08
1.28911e-06
2.67066e-08
-1.3206e-06
2.6188e-06
8.47063e-06
5.60764e-06
7.23412e-06
1.85107e-06
6.63379e-06
7.89893e-07
6.2399e-06
5.09656e-07
5.96093e-06
3.60051e-07
5.7413e-06
2.82182e-07
5.56596e-06
2.25064e-07
5.41854e-06
1.88858e-07
5.29335e-06
1.60238e-07
5.1847e-06
1.38937e-07
5.08952e-06
1.21614e-07
5.00527e-06
1.07587e-07
4.9301e-06
9.59316e-08
4.86258e-06
8.61238e-08
4.80174e-06
7.75766e-08
4.74652e-06
7.03845e-08
4.69625e-06
6.40552e-08
4.65037e-06
5.8446e-08
4.60831e-06
5.35616e-08
4.56963e-06
4.92388e-08
4.53399e-06
4.53644e-08
4.50108e-06
4.18847e-08
4.4706e-06
3.87731e-08
4.44231e-06
3.5982e-08
4.41602e-06
3.34358e-08
4.39153e-06
3.11321e-08
4.36868e-06
2.90426e-08
4.34733e-06
2.71217e-08
4.32736e-06
2.53742e-08
4.30864e-06
2.3774e-08
4.29107e-06
2.23017e-08
4.27457e-06
2.09395e-08
4.25906e-06
1.96834e-08
4.24445e-06
1.8525e-08
4.23069e-06
1.74509e-08
4.21771e-06
1.64481e-08
4.20546e-06
1.55138e-08
4.1939e-06
1.46405e-08
4.18297e-06
1.38213e-08
4.17265e-06
1.30474e-08
4.16291e-06
1.23136e-08
4.15371e-06
1.16124e-08
4.14504e-06
1.09384e-08
4.13688e-06
1.02848e-08
4.12922e-06
9.64075e-09
4.12205e-06
9.00459e-09
4.11538e-06
8.36377e-09
4.10922e-06
7.71192e-09
4.10358e-06
7.03573e-09
4.09849e-06
6.33112e-09
4.09397e-06
5.57928e-09
4.09007e-06
4.77393e-09
4.08683e-06
3.8957e-09
4.08432e-06
2.9234e-09
4.08261e-06
1.85981e-09
4.08177e-06
6.67223e-10
4.08191e-06
-6.24045e-10
4.08314e-06
-2.09355e-09
4.08562e-06
-3.6905e-09
4.08945e-06
-5.47477e-09
4.09487e-06
-7.47767e-09
4.10202e-06
-9.7257e-09
4.11118e-06
-1.22618e-08
4.11851e-06
-9.96376e-09
4.12685e-06
-1.11868e-08
4.1361e-06
-1.24384e-08
4.1464e-06
-1.35671e-08
4.15764e-06
-1.48703e-08
4.17003e-06
-1.60205e-08
4.18341e-06
-1.74283e-08
4.19806e-06
-1.86286e-08
4.21377e-06
-2.01035e-08
4.23089e-06
-2.13854e-08
4.24926e-06
-2.30288e-08
4.26925e-06
-2.44669e-08
4.29092e-06
-2.64584e-08
4.31451e-06
-2.80225e-08
4.34059e-06
-3.04222e-08
4.36896e-06
-3.19559e-08
4.40118e-06
-3.49693e-08
4.43672e-06
-3.71897e-08
4.47813e-06
-4.16804e-08
4.52521e-06
-4.683e-08
4.5906e-06
-6.56684e-08
4.64266e-06
-5.00183e-08
4.84526e-06
-2.32647e-07
4.77886e-06
1.13972e-07
-2.82218e-06
6.29383e-06
1.35987e-05
6.05073e-06
1.27802e-05
2.66959e-06
1.20672e-05
1.50286e-06
1.15134e-05
1.06347e-06
1.11041e-05
7.69392e-07
1.07726e-05
6.13691e-07
1.05049e-05
4.92765e-07
1.02772e-05
4.16482e-07
1.00826e-05
3.54907e-07
9.9125e-06
3.09023e-07
9.76271e-06
2.71405e-07
9.62948e-06
2.40831e-07
9.5101e-06
2.15318e-07
9.40246e-06
1.93775e-07
9.30511e-06
1.74933e-07
9.21647e-06
1.59035e-07
9.13554e-06
1.45004e-07
9.06146e-06
1.32536e-07
8.99338e-06
1.21652e-07
8.93062e-06
1.12e-07
8.87266e-06
1.0333e-07
8.81903e-06
9.55283e-08
8.76927e-06
8.85374e-08
8.72299e-06
8.2258e-08
8.67991e-06
7.65188e-08
8.63972e-06
7.13191e-08
8.60216e-06
6.65955e-08
8.56703e-06
6.22479e-08
8.53411e-06
5.82868e-08
8.50321e-06
5.46558e-08
8.47419e-06
5.1311e-08
8.4469e-06
4.82132e-08
8.42121e-06
4.53533e-08
8.397e-06
4.27137e-08
8.37416e-06
4.02641e-08
8.3526e-06
3.79753e-08
8.33225e-06
3.58412e-08
8.31301e-06
3.3845e-08
8.29482e-06
3.19712e-08
8.27763e-06
3.02001e-08
8.26138e-06
2.852e-08
8.24603e-06
2.69137e-08
8.23155e-06
2.53691e-08
8.21791e-06
2.3871e-08
8.2051e-06
2.23946e-08
8.1931e-06
2.09361e-08
8.18193e-06
1.9467e-08
8.1716e-06
1.7973e-08
8.16214e-06
1.64236e-08
8.15357e-06
1.48099e-08
8.14597e-06
1.30901e-08
8.13939e-06
1.1251e-08
8.13391e-06
9.25064e-09
8.12962e-06
7.04575e-09
8.12666e-06
4.63502e-09
8.12514e-06
1.9438e-09
8.12524e-06
-9.83419e-10
8.12715e-06
-4.30019e-09
8.13109e-06
-7.93894e-09
8.1373e-06
-1.20077e-08
8.14609e-06
-1.65641e-08
8.15775e-06
-2.16897e-08
8.17268e-06
-2.7465e-08
8.18461e-06
-2.22183e-08
8.19813e-06
-2.49781e-08
8.21315e-06
-2.77618e-08
8.22984e-06
-3.04056e-08
8.24808e-06
-3.33152e-08
8.26808e-06
-3.60099e-08
8.28972e-06
-3.91298e-08
8.31328e-06
-4.19718e-08
8.33861e-06
-4.52621e-08
8.36604e-06
-4.83069e-08
8.39552e-06
-5.19963e-08
8.42731e-06
-5.53366e-08
8.46178e-06
-5.98815e-08
8.49882e-06
-6.34057e-08
8.53979e-06
-6.92186e-08
8.5836e-06
-7.25889e-08
8.63356e-06
-8.06022e-08
8.68716e-06
-8.48845e-08
8.75099e-06
-9.8006e-08
8.818e-06
-1.04174e-07
8.91924e-06
-1.55292e-07
8.97904e-06
-9.56673e-08
9.2703e-06
-5.06004e-07
9.21618e-06
1.87109e-07
-4.09157e-06
1.04975e-05
1.83583e-05
5.3932e-06
1.80877e-05
2.94017e-06
1.74554e-05
2.13514e-06
1.68272e-05
1.69174e-06
1.63305e-05
1.2661e-06
1.59136e-05
1.03051e-06
1.55724e-05
8.34025e-07
1.52794e-05
7.09518e-07
1.50275e-05
6.06814e-07
1.48065e-05
5.30003e-07
1.46114e-05
4.6654e-07
1.44374e-05
4.14781e-07
1.42813e-05
3.71438e-07
1.41404e-05
3.34745e-07
1.40127e-05
3.02576e-07
1.38964e-05
2.75376e-07
1.37901e-05
2.51336e-07
1.36927e-05
2.29937e-07
1.36031e-05
2.11228e-07
1.35205e-05
1.94619e-07
1.34442e-05
1.79682e-07
1.33735e-05
1.66227e-07
1.33078e-05
1.54157e-07
1.32468e-05
1.43306e-07
1.31899e-05
1.33382e-07
1.31369e-05
1.24382e-07
1.30873e-05
1.162e-07
1.30408e-05
1.08665e-07
1.29973e-05
1.01794e-07
1.29565e-05
9.54925e-08
1.29181e-05
8.96846e-08
1.2882e-05
8.43029e-08
1.2848e-05
7.93311e-08
1.28159e-05
7.47403e-08
1.27857e-05
7.04783e-08
1.27571e-05
6.64946e-08
1.27302e-05
6.27786e-08
1.27047e-05
5.93013e-08
1.26806e-05
5.60361e-08
1.26578e-05
5.29488e-08
1.26362e-05
5.00196e-08
1.26159e-05
4.72179e-08
1.25967e-05
4.4523e-08
1.25786e-05
4.19091e-08
1.25616e-05
3.93325e-08
1.25457e-05
3.6786e-08
1.25309e-05
3.4221e-08
1.25171e-05
3.16124e-08
1.25046e-05
2.89072e-08
1.24932e-05
2.60894e-08
1.24831e-05
2.30882e-08
1.24744e-05
1.98807e-08
1.24671e-05
1.63974e-08
1.24614e-05
1.25669e-08
1.24575e-05
8.38034e-09
1.24555e-05
3.71385e-09
1.24556e-05
-1.37832e-09
1.24581e-05
-7.12776e-09
1.24633e-05
-1.34625e-08
1.24716e-05
-2.05841e-08
1.24832e-05
-2.85195e-08
1.24987e-05
-3.74577e-08
1.25184e-05
-4.75239e-08
1.25342e-05
-3.8333e-08
1.25521e-05
-4.30924e-08
1.25719e-05
-4.78841e-08
1.25939e-05
-5.25369e-08
1.26179e-05
-5.7563e-08
1.26442e-05
-6.22902e-08
1.26727e-05
-6.76558e-08
1.27036e-05
-7.26555e-08
1.27368e-05
-7.83471e-08
1.27727e-05
-8.36851e-08
1.28114e-05
-9.0093e-08
1.28528e-05
-9.58216e-08
1.28977e-05
-1.03761e-07
1.29457e-05
-1.09649e-07
1.29987e-05
-1.19997e-07
1.3055e-05
-1.25582e-07
1.31189e-05
-1.40146e-07
1.31869e-05
-1.46801e-07
1.32679e-05
-1.71321e-07
1.33505e-05
-1.76939e-07
1.34761e-05
-2.68984e-07
1.35491e-05
-1.54197e-07
1.38707e-05
-8.09274e-07
1.38942e-05
1.83054e-07
-5.07352e-06
1.48884e-05
2.3493e-05
3.79642e-06
2.37676e-05
2.66552e-06
2.33246e-05
2.57819e-06
2.26808e-05
2.33551e-06
2.21171e-05
1.82983e-06
2.16179e-05
1.52973e-06
2.11994e-05
1.25247e-06
2.08347e-05
1.07423e-06
2.05185e-05
9.2302e-07
2.02395e-05
8.08996e-07
1.99922e-05
7.13853e-07
1.97712e-05
6.35865e-07
1.95723e-05
5.70263e-07
1.93925e-05
5.14555e-07
1.92295e-05
4.65591e-07
1.90808e-05
4.24092e-07
1.89448e-05
3.87362e-07
1.88202e-05
3.54622e-07
1.87054e-05
3.25952e-07
1.85996e-05
3.00478e-07
1.85017e-05
2.77549e-07
1.84111e-05
2.56877e-07
1.83269e-05
2.38316e-07
1.82486e-05
2.2162e-07
1.81757e-05
2.06343e-07
1.81076e-05
1.92479e-07
1.80439e-05
1.79869e-07
1.79843e-05
1.68253e-07
1.79284e-05
1.57654e-07
1.7876e-05
1.4793e-07
1.78267e-05
1.38965e-07
1.77803e-05
1.30655e-07
1.77366e-05
1.22976e-07
1.76955e-05
1.15882e-07
1.76566e-05
1.09296e-07
1.76199e-05
1.03138e-07
1.75853e-05
9.7393e-08
1.75525e-05
9.20156e-08
1.75216e-05
8.69652e-08
1.74923e-05
8.21895e-08
1.74646e-05
7.76575e-08
1.74384e-05
7.33225e-08
1.74137e-05
6.91521e-08
1.73905e-05
6.5107e-08
1.73686e-05
6.11199e-08
1.73482e-05
5.71787e-08
1.73291e-05
5.32092e-08
1.73115e-05
4.91726e-08
1.72953e-05
4.49878e-08
1.72807e-05
4.06286e-08
1.72677e-05
3.59889e-08
1.72564e-05
3.10322e-08
1.7247e-05
2.56559e-08
1.72396e-05
1.97537e-08
1.72345e-05
1.33055e-08
1.72318e-05
6.12555e-09
1.72318e-05
-1.72767e-09
1.7235e-05
-1.05755e-08
1.72415e-05
-2.03268e-08
1.72519e-05
-3.13462e-08
1.72666e-05
-4.35966e-08
1.72862e-05
-5.73881e-08
1.73113e-05
-7.29146e-08
1.73313e-05
-5.87069e-08
1.73539e-05
-6.59802e-08
1.7379e-05
-7.32943e-08
1.74067e-05
-8.04851e-08
1.74371e-05
-8.81875e-08
1.74703e-05
-9.54749e-08
1.75063e-05
-1.03667e-07
1.75452e-05
-1.11369e-07
1.75872e-05
-1.20101e-07
1.76324e-05
-1.2828e-07
1.7681e-05
-1.38145e-07
1.77329e-05
-1.46756e-07
1.77893e-05
-1.58987e-07
1.78492e-05
-1.67648e-07
1.79153e-05
-1.83642e-07
1.79851e-05
-1.91851e-07
1.80641e-05
-2.14347e-07
1.81477e-05
-2.23771e-07
1.82467e-05
-2.61955e-07
1.83469e-05
-2.66466e-07
1.84945e-05
-4.03726e-07
1.8592e-05
-2.36109e-07
1.89213e-05
-1.1187e-06
1.90545e-05
7.08497e-08
-5.78002e-06
1.97744e-05
2.94117e-05
1.27147e-06
3.02286e-05
1.84857e-06
3.00502e-05
2.75668e-06
2.94603e-05
2.92535e-06
2.88668e-05
2.42331e-06
2.82991e-05
2.0975e-06
2.78058e-05
1.74575e-06
2.73659e-05
1.51415e-06
2.69792e-05
1.30969e-06
2.66349e-05
1.15336e-06
2.63277e-05
1.02105e-06
2.60518e-05
9.11756e-07
2.58029e-05
8.19219e-07
2.55772e-05
7.40277e-07
2.53721e-05
6.70657e-07
2.51848e-05
6.11457e-07
2.50132e-05
5.58959e-07
2.48557e-05
5.12079e-07
2.47107e-05
4.70953e-07
2.45769e-05
4.34368e-07
2.4453e-05
4.01405e-07
2.43382e-05
3.7166e-07
2.42316e-05
3.44926e-07
2.41324e-05
3.20862e-07
2.40399e-05
2.98833e-07
2.39536e-05
2.78828e-07
2.38728e-05
2.60623e-07
2.37972e-05
2.43848e-07
2.37263e-05
2.28533e-07
2.36597e-05
2.14477e-07
2.35972e-05
2.01516e-07
2.35383e-05
1.895e-07
2.34829e-05
1.7839e-07
2.34306e-05
1.68125e-07
2.33813e-05
1.58592e-07
2.33347e-05
1.49679e-07
2.32907e-05
1.41362e-07
2.32491e-05
1.33575e-07
2.32097e-05
1.26261e-07
2.31725e-05
1.19344e-07
2.31373e-05
1.1278e-07
2.31041e-05
1.06501e-07
2.30727e-05
1.0046e-07
2.30431e-05
9.46016e-08
2.30154e-05
8.88284e-08
2.29893e-05
8.31214e-08
2.29651e-05
7.73749e-08
2.29426e-05
7.15328e-08
2.2922e-05
6.54791e-08
2.29034e-05
5.91741e-08
2.28868e-05
5.24689e-08
2.28724e-05
4.53082e-08
2.28603e-05
3.75498e-08
2.28508e-05
2.90444e-08
2.28441e-05
1.97569e-08
2.28405e-05
9.42517e-09
2.28403e-05
-1.89078e-09
2.28439e-05
-1.46262e-08
2.28519e-05
-2.86447e-08
2.28646e-05
-4.45326e-08
2.28828e-05
-6.21885e-08
2.29071e-05
-8.206e-08
2.29383e-05
-1.04417e-07
2.29631e-05
-8.3979e-08
2.29912e-05
-9.43674e-08
2.30223e-05
-1.04798e-07
2.30567e-05
-1.15127e-07
2.30944e-05
-1.26147e-07
2.31355e-05
-1.36596e-07
2.31801e-05
-1.4828e-07
2.32283e-05
-1.59291e-07
2.32802e-05
-1.7179e-07
2.3336e-05
-1.83415e-07
2.33961e-05
-1.97568e-07
2.34601e-05
-2.09621e-07
2.35296e-05
-2.2712e-07
2.3603e-05
-2.39039e-07
2.3684e-05
-2.61836e-07
2.37693e-05
-2.73164e-07
2.38654e-05
-3.04973e-07
2.39667e-05
-3.17663e-07
2.40858e-05
-3.7173e-07
2.42066e-05
-3.75221e-07
2.43769e-05
-5.59651e-07
2.45093e-05
-3.5109e-07
2.4835e-05
-1.42245e-06
2.50988e-05
-1.69717e-07
-6.22638e-06
2.55604e-05
3.64329e-05
-2.2626e-06
3.78075e-05
4.73978e-07
3.79407e-05
2.6235e-06
3.74674e-05
3.39864e-06
3.68931e-05
2.99766e-06
3.62837e-05
2.70688e-06
3.57278e-05
2.30167e-06
3.52156e-05
2.02638e-06
3.47562e-05
1.76906e-06
3.43414e-05
1.5682e-06
3.39677e-05
1.39473e-06
3.36297e-05
1.24976e-06
3.33231e-05
1.12584e-06
3.3044e-05
1.0194e-06
3.27896e-05
9.25073e-07
3.25566e-05
8.44484e-07
3.23428e-05
7.72806e-07
3.21462e-05
7.08643e-07
3.1965e-05
6.52217e-07
3.17974e-05
6.0193e-07
3.16423e-05
5.56559e-07
3.14984e-05
5.1557e-07
3.13646e-05
4.78685e-07
3.12401e-05
4.45449e-07
3.11239e-05
4.15007e-07
3.10154e-05
3.87337e-07
3.09138e-05
3.62141e-07
3.08188e-05
3.38917e-07
3.07296e-05
3.177e-07
3.06458e-05
2.98217e-07
3.05671e-05
2.80246e-07
3.0493e-05
2.63582e-07
3.04231e-05
2.4817e-07
3.03573e-05
2.33922e-07
3.02952e-05
2.20688e-07
3.02365e-05
2.08315e-07
3.0181e-05
1.96765e-07
3.01286e-05
1.8595e-07
3.0079e-05
1.7579e-07
3.00321e-05
1.66182e-07
2.99878e-05
1.57064e-07
2.99458e-05
1.48342e-07
2.99063e-05
1.3995e-07
2.9869e-05
1.31813e-07
2.98339e-05
1.23797e-07
2.98011e-05
1.15875e-07
2.97704e-05
1.079e-07
2.9742e-05
9.97954e-08
2.9716e-05
9.14038e-08
2.96924e-05
8.26659e-08
2.96713e-05
7.33824e-08
2.9653e-05
6.34722e-08
2.96376e-05
5.2746e-08
2.96254e-05
4.10022e-08
2.96166e-05
2.81862e-08
2.96117e-05
1.39419e-08
2.96111e-05
-1.66716e-09
2.96152e-05
-1.92241e-08
2.96246e-05
-3.85213e-08
2.964e-05
-6.04165e-08
2.96621e-05
-8.47478e-08
2.96917e-05
-1.12133e-07
2.97298e-05
-1.42948e-07
2.97602e-05
-1.14903e-07
2.97945e-05
-1.29107e-07
2.98326e-05
-1.43356e-07
2.98748e-05
-1.57513e-07
2.99209e-05
-1.72591e-07
2.99713e-05
-1.86895e-07
3.00257e-05
-2.02833e-07
3.00846e-05
-2.17851e-07
3.0148e-05
-2.3494e-07
3.02161e-05
-2.50706e-07
3.02893e-05
-2.70062e-07
3.03673e-05
-2.86233e-07
3.04517e-05
-3.10033e-07
3.05409e-05
-3.25826e-07
3.0639e-05
-3.56667e-07
3.07421e-05
-3.71691e-07
3.08577e-05
-4.14358e-07
3.09794e-05
-4.30824e-07
3.11216e-05
-5.03254e-07
3.12664e-05
-5.06345e-07
3.14616e-05
-7.38474e-07
3.16372e-05
-5.07057e-07
3.1956e-05
-1.71651e-06
3.23544e-05
-5.42287e-07
-6.45707e-06
3.26022e-05
4.48704e-05
-6.95297e-06
4.68439e-05
-1.49954e-06
4.73233e-05
2.14418e-06
4.70143e-05
3.70762e-06
4.65092e-05
3.50277e-06
4.5895e-05
3.32107e-06
4.52997e-05
2.89704e-06
4.47271e-05
2.59894e-06
4.41995e-05
2.29664e-06
4.37138e-05
2.05395e-06
4.32702e-05
1.83836e-06
4.28647e-05
1.65524e-06
4.24941e-05
1.49652e-06
4.21546e-05
1.35887e-06
4.18437e-05
1.23603e-06
4.15578e-05
1.13036e-06
4.12947e-05
1.03595e-06
4.10522e-05
9.51159e-07
4.08281e-05
8.76331e-07
4.06206e-05
8.09464e-07
4.04282e-05
7.4901e-07
4.02495e-05
6.94308e-07
4.00831e-05
6.44999e-07
3.99281e-05
6.00503e-07
3.97834e-05
5.59712e-07
3.96481e-05
5.22592e-07
3.95215e-05
4.8876e-07
3.94028e-05
4.57561e-07
3.92915e-05
4.29034e-07
3.91869e-05
4.02821e-07
3.90884e-05
3.7863e-07
3.89958e-05
3.56191e-07
3.89085e-05
3.3543e-07
3.88261e-05
3.16227e-07
3.87484e-05
2.98382e-07
3.8675e-05
2.81699e-07
3.86055e-05
2.6612e-07
3.85399e-05
2.51529e-07
3.84778e-05
2.37818e-07
3.8419e-05
2.24852e-07
3.83635e-05
2.12546e-07
3.83109e-05
2.00775e-07
3.82613e-05
1.89451e-07
3.82146e-05
1.78471e-07
3.81706e-05
1.67662e-07
3.81294e-05
1.56978e-07
3.80909e-05
1.4623e-07
3.80552e-05
1.35312e-07
3.80225e-05
1.24017e-07
3.79927e-05
1.1226e-07
3.79661e-05
9.97835e-08
3.79429e-05
8.647e-08
3.79233e-05
7.20754e-08
3.79077e-05
5.63345e-08
3.78963e-05
3.91689e-08
3.78897e-05
2.01057e-08
3.78883e-05
-7.8016e-10
3.78928e-05
-2.42633e-08
3.79037e-05
-5.0036e-08
3.79219e-05
-7.92837e-08
3.79484e-05
-1.1178e-07
3.7984e-05
-1.48349e-07
3.80301e-05
-1.89532e-07
3.80669e-05
-1.52329e-07
3.81085e-05
-1.7118e-07
3.81546e-05
-1.90071e-07
3.82057e-05
-2.08859e-07
3.82616e-05
-2.28848e-07
3.83225e-05
-2.47811e-07
3.83885e-05
-2.68882e-07
3.84597e-05
-2.88715e-07
3.85364e-05
-3.11326e-07
3.86187e-05
-3.32051e-07
3.87071e-05
-3.57606e-07
3.88012e-05
-3.78731e-07
3.89029e-05
-4.09915e-07
3.90103e-05
-4.30387e-07
3.91279e-05
-4.70579e-07
3.92516e-05
-4.90027e-07
3.93898e-05
-5.45317e-07
3.95349e-05
-5.6615e-07
3.97036e-05
-6.59588e-07
3.98768e-05
-6.63906e-07
4.00995e-05
-9.42475e-07
4.0326e-05
-7.11331e-07
4.06405e-05
-2.0032e-06
4.11594e-05
-1.03254e-06
-6.5367e-06
4.12582e-05
5.50724e-05
-1.30032e-05
5.77137e-05
-4.14086e-06
5.85743e-05
1.28365e-06
5.84644e-05
3.81753e-06
5.80716e-05
3.89551e-06
5.74922e-05
3.90049e-06
5.6889e-05
3.5003e-06
5.62776e-05
3.21032e-06
5.5695e-05
2.87924e-06
5.5145e-05
2.60396e-06
5.46334e-05
2.34999e-06
5.41592e-05
2.12949e-06
5.3721e-05
1.93476e-06
5.33163e-05
1.76361e-06
5.29429e-05
1.60938e-06
5.25979e-05
1.47546e-06
5.22788e-05
1.35503e-06
5.19836e-05
1.24636e-06
5.171e-05
1.14999e-06
5.1456e-05
1.06353e-06
5.12199e-05
9.85129e-07
5.10001e-05
9.14037e-07
5.07954e-05
8.49795e-07
5.06042e-05
7.91702e-07
5.04255e-05
7.38374e-07
5.02583e-05
6.89768e-07
5.01017e-05
6.45411e-07
4.99547e-05
6.04474e-07
4.98167e-05
5.67e-07
4.9687e-05
5.32533e-07
4.95649e-05
5.00703e-07
4.94499e-05
4.71163e-07
4.93414e-05
4.43816e-07
4.92391e-05
4.18502e-07
4.91424e-05
3.94967e-07
4.90511e-05
3.72959e-07
4.89647e-05
3.52401e-07
4.8883e-05
3.33139e-07
4.88057e-05
3.15034e-07
4.87326e-05
2.9791e-07
4.86633e-05
2.81654e-07
4.85979e-05
2.66108e-07
4.85361e-05
2.51151e-07
4.84777e-05
2.3665e-07
4.84229e-05
2.22382e-07
4.83714e-05
2.08283e-07
4.83234e-05
1.94104e-07
4.82788e-05
1.7971e-07
4.82378e-05
1.64835e-07
4.82005e-05
1.49357e-07
4.81671e-05
1.32951e-07
4.81378e-05
1.15453e-07
4.8113e-05
9.65547e-08
4.8093e-05
7.59141e-08
4.80783e-05
5.34236e-08
4.80694e-05
2.84642e-08
4.80668e-05
1.13796e-09
4.80714e-05
-2.95755e-08
4.80839e-05
-6.32352e-08
4.81052e-05
-1.01422e-07
4.81366e-05
-1.43829e-07
4.8179e-05
-1.91542e-07
4.82342e-05
-2.45316e-07
4.82783e-05
-1.97222e-07
4.83283e-05
-2.21699e-07
4.83837e-05
-2.46193e-07
4.84451e-05
-2.70555e-07
4.85122e-05
-2.96433e-07
4.85854e-05
-3.21006e-07
4.86646e-05
-3.48206e-07
4.87502e-05
-3.73813e-07
4.88422e-05
-4.02988e-07
4.89409e-05
-4.29653e-07
4.90468e-05
-4.62492e-07
4.91596e-05
-4.89595e-07
4.92811e-05
-5.29321e-07
4.94096e-05
-5.55513e-07
4.95497e-05
-6.06407e-07
4.96973e-05
-6.31291e-07
4.98614e-05
-7.01084e-07
5.00338e-05
-7.27254e-07
5.02326e-05
-8.44116e-07
5.04395e-05
-8.5298e-07
5.0693e-05
-1.17456e-06
5.09773e-05
-9.70649e-07
5.12953e-05
-2.29023e-06
5.19091e-05
-1.61503e-06
-6.5292e-06
5.19226e-05
6.74468e-05
-2.06715e-05
7.08522e-05
-7.54629e-06
7.21374e-05
-1.5098e-09
7.22549e-05
3.70006e-06
7.20086e-05
4.14178e-06
7.14995e-05
4.40965e-06
7.09225e-05
4.07724e-06
7.03006e-05
3.83224e-06
6.96846e-05
3.4953e-06
6.90853e-05
3.20326e-06
6.85151e-05
2.92022e-06
6.79771e-05
2.66754e-06
6.74729e-05
2.43902e-06
6.70019e-05
2.2346e-06
6.65634e-05
2.04794e-06
6.6155e-05
1.88387e-06
6.57751e-05
1.735e-06
6.54217e-05
1.59977e-06
6.50927e-05
1.47908e-06
6.4786e-05
1.37019e-06
6.45002e-05
1.27103e-06
6.42334e-05
1.18085e-06
6.39841e-05
1.09908e-06
6.37509e-05
1.02491e-06
6.35326e-05
9.56691e-07
6.3328e-05
8.94377e-07
6.3136e-05
8.37406e-07
6.29556e-05
7.84769e-07
6.27861e-05
7.36507e-07
6.26265e-05
6.92058e-07
6.24762e-05
6.50964e-07
6.23345e-05
6.12801e-07
6.22008e-05
5.77442e-07
6.20746e-05
5.44677e-07
6.19553e-05
5.14192e-07
6.18424e-05
4.85676e-07
6.17357e-05
4.59024e-07
6.16347e-05
4.34038e-07
6.15391e-05
4.10543e-07
6.14485e-05
3.88315e-07
6.13628e-05
3.67209e-07
6.12817e-05
3.47024e-07
6.12051e-05
3.27602e-07
6.11328e-05
3.08771e-07
6.10648e-05
2.90254e-07
6.10009e-05
2.71959e-07
6.09412e-05
2.53569e-07
6.08858e-05
2.34909e-07
6.08347e-05
2.15646e-07
6.07882e-05
1.95611e-07
6.07464e-05
1.74403e-07
6.07098e-05
1.51793e-07
6.06785e-05
1.274e-07
6.06531e-05
1.0079e-07
6.06342e-05
7.18217e-08
6.06222e-05
3.96913e-08
6.0618e-05
4.55209e-09
6.06224e-05
-3.49258e-08
6.06364e-05
-7.81318e-08
6.06611e-05
-1.27123e-07
6.06979e-05
-1.81483e-07
6.0748e-05
-2.42636e-07
6.08135e-05
-3.11589e-07
6.08661e-05
-2.50678e-07
6.09256e-05
-2.81915e-07
6.09917e-05
-3.13132e-07
6.1065e-05
-3.44182e-07
6.11451e-05
-3.77078e-07
6.12324e-05
-4.08376e-07
6.1327e-05
-4.42851e-07
6.14291e-05
-4.75366e-07
6.15388e-05
-5.12275e-07
6.16564e-05
-5.46051e-07
6.17826e-05
-5.87387e-07
6.19169e-05
-6.21698e-07
6.20614e-05
-6.71231e-07
6.22142e-05
-7.04474e-07
6.23803e-05
-7.67457e-07
6.25555e-05
-7.9921e-07
6.27495e-05
-8.85341e-07
6.29538e-05
-9.18598e-07
6.31866e-05
-1.06065e-06
6.34336e-05
-1.07963e-06
6.37217e-05
-1.4386e-06
6.4069e-05
-1.29008e-06
6.44023e-05
-2.58958e-06
6.50814e-05
-2.2605e-06
-6.48267e-06
6.50572e-05
8.24827e-05
-3.02733e-05
8.67759e-05
-1.18395e-05
8.85416e-05
-1.76721e-06
8.89145e-05
3.32723e-06
8.88424e-05
4.21384e-06
8.84321e-05
4.81998e-06
8.79127e-05
4.59666e-06
8.73102e-05
4.43472e-06
8.66876e-05
4.11799e-06
8.60611e-05
3.8297e-06
8.54495e-05
3.53187e-06
8.48602e-05
3.25688e-06
8.42984e-05
3.00085e-06
8.37663e-05
2.76678e-06
8.32649e-05
2.54939e-06
8.27934e-05
2.35545e-06
8.23511e-05
2.17734e-06
8.19367e-05
2.01415e-06
8.15486e-05
1.8673e-06
8.1185e-05
1.73377e-06
8.08446e-05
1.61149e-06
8.05256e-05
1.49984e-06
8.02266e-05
1.39812e-06
7.9946e-05
1.30549e-06
7.96827e-05
1.22003e-06
7.94353e-05
1.14174e-06
7.92027e-05
1.06999e-06
7.89838e-05
1.00359e-06
7.87777e-05
9.42572e-07
7.85835e-05
8.86267e-07
7.84002e-05
8.3413e-07
7.82273e-05
7.85662e-07
7.8064e-05
7.40704e-07
7.79095e-05
6.98982e-07
7.77635e-05
6.60126e-07
7.76253e-05
6.23759e-07
7.74944e-05
5.8974e-07
7.73705e-05
5.57824e-07
7.72531e-05
5.27791e-07
7.71419e-05
4.99365e-07
7.70365e-05
4.72365e-07
7.69368e-05
4.46536e-07
7.68425e-05
4.21678e-07
7.67535e-05
3.97571e-07
7.66696e-05
3.73881e-07
7.65908e-05
3.50474e-07
7.65172e-05
3.26953e-07
7.64487e-05
3.03097e-07
7.63855e-05
2.78498e-07
7.63279e-05
2.52921e-07
7.6276e-05
2.25883e-07
7.62303e-05
1.97068e-07
7.61912e-05
1.66012e-07
7.61591e-05
1.32177e-07
7.61349e-05
9.53745e-08
7.6119e-05
5.45738e-08
7.61126e-05
1.00102e-08
7.61165e-05
-4.00271e-08
7.61319e-05
-9.47227e-08
7.61603e-05
-1.56702e-07
7.62031e-05
-2.25398e-07
7.6262e-05
-3.02673e-07
7.63392e-05
-3.89823e-07
7.64014e-05
-3.1395e-07
7.64719e-05
-3.53265e-07
7.65503e-05
-3.92508e-07
7.66372e-05
-4.31541e-07
7.67323e-05
-4.72776e-07
7.6836e-05
-5.121e-07
7.69482e-05
-5.55174e-07
7.70693e-05
-5.95922e-07
7.71995e-05
-6.41906e-07
7.73391e-05
-6.84173e-07
7.74886e-05
-7.3539e-07
7.76479e-05
-7.78376e-07
7.78188e-05
-8.39124e-07
7.79999e-05
-8.81091e-07
7.81959e-05
-9.57614e-07
7.84033e-05
-9.98216e-07
7.86315e-05
-1.10235e-06
7.88732e-05
-1.14558e-06
7.91446e-05
-1.3137e-06
7.94385e-05
-1.35071e-06
7.97665e-05
-1.73977e-06
8.01801e-05
-1.67315e-06
8.05415e-05
-2.9147e-06
8.12571e-05
-2.94114e-06
-6.43117e-06
8.12286e-05
0.000100773
-4.21849e-05
0.000106106
-1.71723e-05
0.000108422
-4.08375e-06
0.000109082
2.66716e-06
0.00010921
4.08646e-06
0.000108921
5.10889e-06
0.000108485
5.03301e-06
0.000107929
4.99084e-06
0.000107327
4.71995e-06
0.000106699
4.45761e-06
0.000106069
4.16205e-06
0.000105447
3.8781e-06
0.000104844
3.60454e-06
0.000104263
3.34794e-06
0.000103707
3.10473e-06
0.000103179
2.88399e-06
0.000102678
2.6782e-06
0.000102205
2.48758e-06
0.000101758
2.3143e-06
0.000101336
2.15522e-06
0.00010094
2.00844e-06
0.000100566
1.8737e-06
0.000100214
1.75022e-06
9.9882e-05
1.63716e-06
9.95696e-05
1.53244e-06
9.92752e-05
1.43612e-06
9.89976e-05
1.34756e-06
9.87357e-05
1.2654e-06
9.84886e-05
1.18968e-06
9.82551e-05
1.11963e-06
9.80346e-05
1.05462e-06
9.7826e-05
9.94104e-07
9.76287e-05
9.37874e-07
9.7442e-05
8.85587e-07
9.72651e-05
8.36834e-07
9.70976e-05
7.91156e-07
9.69388e-05
7.48377e-07
9.67882e-05
7.082e-07
9.66454e-05
6.70355e-07
9.651e-05
6.3451e-07
9.63817e-05
6.00439e-07
9.62602e-05
5.67833e-07
9.61451e-05
5.36438e-07
9.60364e-05
5.05979e-07
9.59339e-05
4.76057e-07
9.58376e-05
4.46483e-07
9.57474e-05
4.16775e-07
9.56634e-05
3.86649e-07
9.55859e-05
3.55616e-07
9.55151e-05
3.23354e-07
9.54512e-05
2.89292e-07
9.53947e-05
2.52997e-07
9.53461e-05
2.13924e-07
9.53061e-05
1.71396e-07
9.52754e-05
1.25178e-07
9.52548e-05
7.39582e-08
9.52455e-05
1.80902e-08
9.52486e-05
-4.45915e-08
9.52654e-05
-1.13045e-07
9.52977e-05
-1.90557e-07
9.53473e-05
-2.76357e-07
9.54161e-05
-3.72881e-07
9.55068e-05
-4.81739e-07
9.558e-05
-3.88497e-07
9.56631e-05
-4.37419e-07
9.57557e-05
-4.86202e-07
9.58583e-05
-5.34721e-07
9.59706e-05
-5.85826e-07
9.60932e-05
-6.34706e-07
9.62258e-05
-6.87904e-07
9.6369e-05
-7.38441e-07
9.65228e-05
-7.95049e-07
9.66878e-05
-8.47422e-07
9.68643e-05
-9.10115e-07
9.70524e-05
-9.63517e-07
9.72539e-05
-1.03708e-06
9.74678e-05
-1.08982e-06
9.76984e-05
-1.18143e-06
9.79432e-05
-1.23354e-06
9.82106e-05
-1.3571e-06
9.8496e-05
-1.41452e-06
9.88116e-05
-1.60875e-06
9.91593e-05
-1.67339e-06
9.95339e-05
-2.08501e-06
0.000100015
-2.12163e-06
0.000100417
-3.27849e-06
0.000101143
-3.63168e-06
-6.40765e-06
0.000101142
0.00012304
-5.68477e-05
0.000129594
-2.37256e-05
0.000132547
-7.03684e-06
0.000133532
1.68167e-06
0.000133885
3.73357e-06
0.000133737
5.25727e-06
0.000133404
5.36591e-06
0.000132916
5.47884e-06
0.000132359
5.27721e-06
0.000131754
5.06208e-06
0.00013113
4.78611e-06
0.000130501
4.50783e-06
0.000129876
4.22886e-06
0.000129265
3.9594e-06
0.000128672
3.69808e-06
0.000128099
3.45635e-06
0.000127551
3.22704e-06
0.000127026
3.0119e-06
0.000126527
2.81403e-06
0.000126052
2.63025e-06
0.000125601
2.45916e-06
0.000125174