/*--------------------------------*- C++ -*----------------------------------*\
| =========                 |                                                 |
| \\      /  F ield         | OpenFOAM: The Open Source CFD Toolbox           |
|  \\    /   O peration     | Version:  2306                                  |
|   \\  /    A nd           | Website:  www.openfoam.com                      |
|    \\/     M anipulation  |                                                 |
\*---------------------------------------------------------------------------*/
FoamFile
{
    version     2.0;
    format      ascii;
    arch        "LSB;label=32;scalar=64";
    class       volSymmTensorField;
    location    "2000";
    object      turbulenceProperties:devReff;
}
// * * * * * * * * * * * * * * * * * * * * * * * * * * * * * * * * * * * * * //

dimensions      [0 2 -2 0 0 0 0];

internalField   nonuniform List<symmTensor> 
20540
(
(43.3714 -75.6379 -0 -43.3708 -0 -0.000551962)
(101.498 -87.0348 -0 -95.5508 -0 -5.94735)
(43.326 -157.777 -0 -43.3264 -0 0.000349804)
(36.989 -181.644 -0 -42.4638 -0 5.47476)
(43.2643 -170.001 -0 -43.2645 -0 0.000161839)
(2.70306 -195.892 -0 -3.90938 -0 1.20633)
(43.1833 -180.754 -0 -43.1833 -0 -2.08844e-05)
(-11.7086 -208.528 -0 12.4949 -0 -0.786315)
(43.0789 -189.98 -0 -43.0788 -0 -4.5205e-05)
(-18.0978 -219.488 -0 18.5339 -0 -0.436073)
(42.9457 -197.583 -0 -42.9457 -0 -3.82939e-05)
(-22.1056 -228.669 -0 22.1687 -0 -0.0630375)
(42.7778 -203.704 -0 -42.7777 -0 -4.80424e-05)
(-25.201 -236.246 -0 25.1873 -0 0.0136387)
(42.5679 -208.51 -0 -42.5678 -0 -7.11223e-05)
(-27.6596 -242.429 -0 27.6564 -0 0.00321852)
(42.3073 -212.157 -0 -42.3072 -0 -0.000105253)
(-29.627 -247.422 -0 29.6303 -0 -0.00331104)
(41.9856 -214.777 -0 -41.9854 -0 -0.000154801)
(-31.2253 -251.4 -0 31.2275 -0 -0.00219657)
(41.5904 -216.47 -0 -41.5901 -0 -0.000227703)
(-32.5318 -254.513 -0 32.5321 -0 -0.000349186)
(41.1066 -217.306 -0 -41.1063 -0 -0.000335277)
(-33.5866 -256.876 -0 33.5858 -0 0.000734017)
(40.5165 -217.328 -0 -40.516 -0 -0.000493995)
(-34.4076 -258.581 -0 34.406 -0 0.00161769)
(39.7986 -216.551 -0 -39.7979 -0 -0.000728137)
(-34.9988 -259.695 -0 34.996 -0 0.0027475)
(38.9278 -214.966 -0 -38.9267 -0 -0.00107349)
(-35.3534 -260.258 -0 35.3491 -0 0.00434615)
(37.8743 -212.539 -0 -37.8727 -0 -0.00158266)
(-35.4553 -260.29 -0 35.4486 -0 0.00664466)
(36.6035 -209.213 -0 -36.6012 -0 -0.00233269)
(-35.2794 -259.783 -0 35.2694 -0 0.00998501)
(35.0756 -204.912 -0 -35.0722 -0 -0.00343615)
(-34.7923 -258.705 -0 34.7774 -0 0.0148704)
(33.2456 -199.537 -0 -33.2406 -0 -0.00505724)
(-33.9519 -256.989 -0 33.9299 -0 0.0220362)
(31.0645 -192.972 -0 -31.0571 -0 -0.00743351)
(-32.708 -254.529 -0 32.6755 -0 0.0325654)
(28.4812 -185.088 -0 -28.4703 -0 -0.0108976)
(-31.0028 -251.171 -0 30.9547 -0 0.0480641)
(25.447 -175.749 -0 -25.4311 -0 -0.0158911)
(-28.7726 -246.699 -0 28.7017 -0 0.070906)
(21.9239 -164.819 -0 -21.9009 -0 -0.0230136)
(-25.952 -240.822 -0 25.8474 -0 0.104582)
(17.8974 -152.18 -0 -17.8641 -0 -0.0333088)
(-22.4803 -233.155 -0 22.3261 -0 0.154125)
(13.3981 -137.747 -0 -13.3493 -0 -0.0488579)
(-18.3126 -223.195 -0 18.0855 -0 0.227095)
(8.53651 -121.498 -0 -8.46465 -0 -0.0718571)
(-13.4341 -210.301 -0 13.0966 -0 0.337554)
(3.55978 -103.504 -0 -3.46306 -0 -0.0967194)
(-7.87889 -193.646 -0 7.36455 -0 0.514342)
(-1.07109 -83.9563 -0 1.16846 -0 -0.0973758)
(-1.77107 -172.139 -0 0.974249 -0 0.796826)
(-4.65167 -63.1027 -0 4.71027 -0 -0.0586037)
(4.55256 -144.178 -0 -5.72446 -0 1.1719)
(-6.34666 -41.0163 -0 6.36328 -0 -0.0166186)
(10.3385 -106.996 -0 -11.8512 -0 1.5127)
(-6.10273 -21.4635 -0 6.20443 -0 -0.101699)
(13.8825 -62.4966 -0 -15.5644 -0 1.68193)
(-4.93314 -5.33486 -0 5.13661 -0 -0.203462)
(15.1189 -18.3886 -0 -16.7705 -0 1.65157)
(-5.03683 7.12306 -0 5.23294 -0 -0.196112)
(15.0807 24.0869 -0 -16.7377 -0 1.657)
(-6.13147 23.7052 -0 6.2119 -0 -0.0804306)
(13.7258 68.4606 -0 -15.3831 -0 1.65735)
(-6.14933 43.1988 -0 6.16651 -0 -0.0171729)
(10.0667 112.08 -0 -11.5215 -0 1.45479)
(-4.23424 64.9402 -0 4.29756 -0 -0.0633164)
(4.37047 147.866 -0 -5.48756 -0 1.11709)
(-0.51507 85.5148 -0 0.613295 -0 -0.0982249)
(-1.8201 175.246 -0 1.05377 -0 0.766325)
(4.19497 104.926 -0 -4.10054 -0 -0.0944353)
(-7.84257 196.52 -0 7.33925 -0 0.503317)
(9.22958 122.897 -0 -9.15969 -0 -0.0698886)
(-13.3766 213.128 -0 13.0401 -0 0.336478)
(14.1526 139.228 -0 -14.1044 -0 -0.0481643)
(-18.2913 226.096 -0 18.0614 -0 0.229963)
(18.7263 153.833 -0 -18.6929 -0 -0.033419)
(-22.5398 236.195 -0 22.3815 -0 0.158323)
(22.8405 166.719 -0 -22.817 -0 -0.0234488)
(-26.1245 244.035 -0 26.0155 -0 0.108997)
(26.461 177.952 -0 -26.4446 -0 -0.016416)
(-29.0801 250.095 -0 29.0051 -0 0.0750218)
(29.5979 187.633 -0 -29.5865 -0 -0.0114122)
(-31.459 254.75 -0 31.4073 -0 0.0516584)
(32.2853 195.884 -0 -32.2774 -0 -0.00789322)
(-33.3207 258.287 -0 33.2852 -0 0.0355762)
(34.5686 202.83 -0 -34.5631 -0 -0.00544464)
(-34.7251 260.922 -0 34.7006 -0 0.024493)
(36.4966 208.594 -0 -36.4928 -0 -0.00374981)
(-35.7276 262.812 -0 35.7108 -0 0.0168425)
(38.1168 213.285 -0 -38.1142 -0 -0.00257964)
(-36.3776 264.068 -0 36.3661 -0 0.0115538)
(39.4732 217.003 -0 -39.4715 -0 -0.00177322)
(-36.7174 264.764 -0 36.7095 -0 0.00789072)
(40.6053 219.825 -0 -40.6041 -0 -0.00121837)
(-36.7818 264.942 -0 36.7764 -0 0.00534353)
(41.5476 221.815 -0 -41.5468 -0 -0.000837022)
(-36.5979 264.619 -0 36.5944 -0 0.00355713)
(42.33 223.012 -0 -42.3294 -0 -0.000575089)
(-36.1857 263.787 -0 36.1834 -0 0.00228691)
(42.978 223.437 -0 -42.9776 -0 -0.00039522)
(-35.5569 262.418 -0 35.5555 -0 0.00136503)
(43.5134 223.089 -0 -43.5132 -0 -0.000271717)
(-34.7147 260.464 -0 34.7141 -0 0.000607714)
(43.9546 221.942 -0 -43.9544 -0 -0.000186933)
(-33.6524 257.853 -0 33.6528 -0 -0.00040366)
(44.3169 219.948 -0 -44.3168 -0 -0.000128744)
(-32.3497 254.491 -0 32.3519 -0 -0.00219137)
(44.6135 217.03 -0 -44.6134 -0 -8.87088e-05)
(-30.7648 250.26 -0 30.768 -0 -0.00319768)
(44.8551 213.083 -0 -44.855 -0 -6.08455e-05)
(-28.8191 245.012 -0 28.8158 -0 0.00333498)
(45.0508 207.973 -0 -45.0507 -0 -4.1819e-05)
(-26.3901 238.569 -0 26.3774 -0 0.0127647)
(45.2083 201.534 -0 -45.2083 -0 -3.30606e-05)
(-23.3313 230.726 -0 23.3977 -0 -0.0664144)
(45.3339 193.584 -0 -45.3339 -0 -3.60133e-05)
(-19.356 221.258 -0 19.7925 -0 -0.43655)
(45.4331 183.95 -0 -45.4331 -0 -1.63917e-05)
(-12.9637 209.955 -0 13.7244 -0 -0.760704)
(45.5104 172.531 -0 -45.5105 -0 0.000139628)
(1.48712 196.696 -0 -2.71429 -0 1.22717)
(45.5696 159.536 -0 -45.5699 -0 0.000328332)
(35.8475 181.72 -0 -41.1547 -0 5.30722)
(45.6131 76.3505 -0 -45.6126 -0 -0.000512501)
(99.3428 86.9227 -0 -93.5471 -0 -5.79572)
(0.00546144 -9.52521 -0 -0.00446928 -0 -0.000992162)
(0.00117993 -7.04623 -0 -0.00124555 -0 6.5625e-05)
(0.000374392 -6.35278 -0 -0.000403465 -0 2.90732e-05)
(0.000234547 -5.86735 -0 -0.00024219 -0 7.64303e-06)
(0.00016509 -5.58047 -0 -0.00017065 -0 5.55913e-06)
(0.000133215 -5.33829 -0 -0.000135833 -0 2.6171e-06)
(0.000108619 -5.16023 -0 -0.000111067 -0 2.44858e-06)
(9.41994e-05 -5.00758 -0 -9.58873e-05 -0 1.68791e-06)
(8.2366e-05 -4.88167 -0 -8.38743e-05 -0 1.50832e-06)
(7.38399e-05 -4.77232 -0 -7.50798e-05 -0 1.23998e-06)
(6.68075e-05 -4.67769 -0 -6.79005e-05 -0 1.09303e-06)
(6.11487e-05 -4.59407 -0 -6.21077e-05 -0 9.5905e-07)
(5.6427e-05 -4.52012 -0 -5.72847e-05 -0 8.57673e-07)
(5.24463e-05 -4.45371 -0 -5.32188e-05 -0 7.72487e-07)
(4.8921e-05 -4.3942 -0 -4.96211e-05 -0 7.00094e-07)
(4.59765e-05 -4.34036 -0 -4.66176e-05 -0 6.41129e-07)
(4.33485e-05 -4.29141 -0 -4.39378e-05 -0 5.89276e-07)
(4.09839e-05 -4.24687 -0 -4.1527e-05 -0 5.43166e-07)
(3.89248e-05 -4.20615 -0 -3.94299e-05 -0 5.05084e-07)
(3.70888e-05 -4.16876 -0 -3.7559e-05 -0 4.70213e-07)
(3.54213e-05 -4.13437 -0 -3.58611e-05 -0 4.39771e-07)
(3.3905e-05 -4.10266 -0 -3.43166e-05 -0 4.11564e-07)
(3.25422e-05 -4.07335 -0 -3.29298e-05 -0 3.87583e-07)
(3.13142e-05 -4.04618 -0 -3.16791e-05 -0 3.64858e-07)
(3.01748e-05 -4.02095 -0 -3.05194e-05 -0 3.44593e-07)
(2.91372e-05 -3.9975 -0 -2.94626e-05 -0 3.25459e-07)
(2.81913e-05 -3.97563 -0 -2.84999e-05 -0 3.08605e-07)
(2.73058e-05 -3.95522 -0 -2.75978e-05 -0 2.9199e-07)
(2.64988e-05 -3.93615 -0 -2.67763e-05 -0 2.77499e-07)
(2.57541e-05 -3.91829 -0 -2.60175e-05 -0 2.63429e-07)
(2.50621e-05 -3.90154 -0 -2.53126e-05 -0 2.50507e-07)
(2.44116e-05 -3.88582 -0 -2.46494e-05 -0 2.37797e-07)
(2.38071e-05 -3.87106 -0 -2.40333e-05 -0 2.26181e-07)
(2.32467e-05 -3.85716 -0 -2.34615e-05 -0 2.14792e-07)
(2.27214e-05 -3.84408 -0 -2.29252e-05 -0 2.03802e-07)
(2.22208e-05 -3.83175 -0 -2.24136e-05 -0 1.92776e-07)
(2.17476e-05 -3.82012 -0 -2.19297e-05 -0 1.821e-07)
(2.12966e-05 -3.80914 -0 -2.14681e-05 -0 1.71547e-07)
(2.08628e-05 -3.79878 -0 -2.10238e-05 -0 1.61034e-07)
(2.04373e-05 -3.78898 -0 -2.05878e-05 -0 1.50478e-07)
(2.00157e-05 -3.77974 -0 -2.01555e-05 -0 1.39824e-07)
(1.95877e-05 -3.77101 -0 -1.97167e-05 -0 1.28993e-07)
(1.91464e-05 -3.76278 -0 -1.92643e-05 -0 1.1786e-07)
(1.86802e-05 -3.75502 -0 -1.87865e-05 -0 1.063e-07)
(1.81684e-05 -3.74773 -0 -1.82624e-05 -0 9.39897e-08)
(1.76055e-05 -3.7409 -0 -1.76868e-05 -0 8.13113e-08)
(1.69626e-05 -3.73453 -0 -1.70301e-05 -0 6.75164e-08)
(1.62199e-05 -3.72862 -0 -1.62727e-05 -0 5.27267e-08)
(1.53408e-05 -3.72319 -0 -1.53768e-05 -0 3.60637e-08)
(1.43042e-05 -3.71825 -0 -1.43214e-05 -0 1.71219e-08)
(1.30543e-05 -3.71383 -0 -1.30463e-05 -0 -8.05031e-09)
(1.15599e-05 -3.70997 -0 -1.15167e-05 -0 -4.3193e-08)
(9.7497e-06 -3.7067 -0 -9.65576e-06 -0 -9.39379e-08)
(7.54836e-06 -3.70407 -0 -7.37355e-06 -0 -1.74818e-07)
(4.90848e-06 -3.70215 -0 -4.64402e-06 -0 -2.64454e-07)
(1.69343e-06 -3.70101 -0 -1.29673e-06 -0 -3.96702e-07)
(-2.09084e-06 -3.70073 -0 2.58806e-06 -0 -4.97217e-07)
(-6.77044e-06 -3.7014 -0 7.40659e-06 -0 -6.36158e-07)
(-1.22211e-05 -3.70319 -0 1.29326e-05 -0 -7.11485e-07)
(-1.87917e-05 -3.70614 -0 1.95635e-05 -0 -7.71717e-07)
(-2.66224e-05 -3.71052 -0 2.7448e-05 -0 -8.25625e-07)
(-3.60141e-05 -3.71639 -0 3.68725e-05 -0 -8.58441e-07)
(-4.70802e-05 -3.72409 -0 4.80444e-05 -0 -9.6415e-07)
(-5.91253e-05 -3.73209 -0 6.1065e-05 -0 -1.93968e-06)
(-7.00595e-05 -3.73949 -0 7.20097e-05 -0 -1.95029e-06)
(-8.2464e-05 -3.74774 -0 8.46531e-05 -0 -2.18908e-06)
(-9.51713e-05 -3.75698 -0 9.67699e-05 -0 -1.59861e-06)
(-0.0001099 -3.76712 -0 0.000111821 -0 -1.92102e-06)
(-0.000125327 -3.77826 -0 0.000126444 -0 -1.1171e-06)
(-0.000143992 -3.7904 -0 0.000145413 -0 -1.42116e-06)
(-0.000163101 -3.80364 -0 0.000163192 -0 -9.11329e-08)
(-0.000186163 -3.81795 -0 0.000186266 -0 -1.03574e-07)
(-0.00020992 -3.8335 -0 0.000208167 -0 1.75273e-06)
(-0.000239229 -3.85023 -0 0.000236938 -0 2.29164e-06)
(-0.000269751 -3.86847 -0 0.00026511 -0 4.64134e-06)
(-0.000309959 -3.88797 -0 0.000302931 -0 7.02774e-06)
(-0.000349443 -3.90984 -0 0.000339075 -0 1.03682e-05)
(-0.000408982 -3.93252 -0 0.000389278 -0 1.97041e-05)
(-0.000458571 -3.95999 -0 0.000433808 -0 2.47635e-05)
(-0.000555411 -3.98603 -0 0.000503697 -0 5.17141e-05)
(-0.000622597 -4.02314 -0 0.000571713 -0 5.08839e-05)
(-0.000803872 -4.05229 -0 0.000683249 -0 0.000120624)
(-0.000909132 -4.10807 -0 0.000847906 -0 6.12266e-05)
(-0.00150021 -4.13646 -0 0.00121582 -0 0.000284389)
(-0.00120814 -4.25297 -0 0.00131987 -0 -0.000111735)
(-0.00598275 -4.21456 -0 0.00503672 -0 0.000946025)
(0.00533596 -4.74332 -0 -0.0031362 -0 -0.00219975)
(-0.113982 -3.77676 2.68997e-21 0.102378 -0 0.0116036)
(0.00624408 -9.68285 -0 -0.00698242 -0 0.000738333)
(0.00211698 -6.15157 -0 -0.00203099 -0 -8.59851e-05)
(0.00102491 -5.57215 -0 -0.00101549 -0 -9.41951e-06)
(0.000696852 -5.16609 -0 -0.000691074 -0 -5.77755e-06)
(0.000499247 -4.9241 -0 -0.000497927 -0 -1.31927e-06)
(0.000407436 -4.72237 -0 -0.000404475 -0 -2.96163e-06)
(0.00033322 -4.57374 -0 -0.000331433 -0 -1.78659e-06)
(0.000289942 -4.44745 -0 -0.000287896 -0 -2.04548e-06)
(0.000253945 -4.3434 -0 -0.000252249 -0 -1.696e-06)
(0.000228002 -4.25341 -0 -0.000226371 -0 -1.63081e-06)
(0.000206538 -4.17569 -0 -0.000205054 -0 -1.48364e-06)
(0.000189231 -4.10715 -0 -0.000187845 -0 -1.38659e-06)
(0.000174778 -4.04663 -0 -0.000173486 -0 -1.29195e-06)
(0.000162576 -3.99234 -0 -0.000161364 -0 -1.21189e-06)
(0.000151759 -3.94374 -0 -0.000150622 -0 -1.13699e-06)
(0.000142715 -3.89981 -0 -0.000141641 -0 -1.07441e-06)
(0.000134639 -3.85988 -0 -0.000133623 -0 -1.01568e-06)
(0.000127366 -3.82357 -0 -0.000126403 -0 -9.63391e-07)
(0.000121025 -3.79038 -0 -0.000120109 -0 -9.16555e-07)
(0.000115372 -3.75992 -0 -0.000114497 -0 -8.75096e-07)
(0.000110233 -3.7319 -0 -0.000109397 -0 -8.36552e-07)
(0.000105559 -3.70606 -0 -0.000104757 -0 -8.02234e-07)
(0.000101353 -3.68219 -0 -0.000100582 -0 -7.70962e-07)
(9.7565e-05 -3.66006 -0 -9.68216e-05 -0 -7.4335e-07)
(9.40464e-05 -3.63951 -0 -9.33289e-05 -0 -7.17543e-07)
(9.0843e-05 -3.6204 -0 -9.01482e-05 -0 -6.94783e-07)
(8.79201e-05 -3.60259 -0 -8.72461e-05 -0 -6.74014e-07)
(8.51853e-05 -3.58596 -0 -8.45303e-05 -0 -6.55025e-07)
(8.26898e-05 -3.57042 -0 -8.20517e-05 -0 -6.38097e-07)
(8.03881e-05 -3.55586 -0 -7.97654e-05 -0 -6.22716e-07)
(7.82484e-05 -3.54222 -0 -7.76396e-05 -0 -6.08837e-07)
(7.62377e-05 -3.5294 -0 -7.56414e-05 -0 -5.96298e-07)
(7.43678e-05 -3.51737 -0 -7.37826e-05 -0 -5.85198e-07)
(7.26353e-05 -3.50604 -0 -7.20597e-05 -0 -5.75589e-07)
(7.1012e-05 -3.49537 -0 -7.04447e-05 -0 -5.67278e-07)
(6.9466e-05 -3.48531 -0 -6.89059e-05 -0 -5.60121e-07)
(6.80054e-05 -3.47583 -0 -6.74511e-05 -0 -5.54334e-07)
(6.66148e-05 -3.46687 -0 -6.60652e-05 -0 -5.49537e-07)
(6.52794e-05 -3.45841 -0 -6.47334e-05 -0 -5.45954e-07)
(6.39721e-05 -3.45042 -0 -6.34289e-05 -0 -5.43223e-07)
(6.26796e-05 -3.44287 -0 -6.2138e-05 -0 -5.41585e-07)
(6.13716e-05 -3.43574 -0 -6.08309e-05 -0 -5.40718e-07)
(6.00274e-05 -3.42901 -0 -5.94866e-05 -0 -5.40838e-07)
(5.86129e-05 -3.42266 -0 -5.80712e-05 -0 -5.41709e-07)
(5.7066e-05 -3.4167 -0 -5.65227e-05 -0 -5.43344e-07)
(5.53709e-05 -3.4111 -0 -5.48253e-05 -0 -5.45585e-07)
(5.34425e-05 -3.40587 -0 -5.28942e-05 -0 -5.48324e-07)
(5.12226e-05 -3.40101 -0 -5.06711e-05 -0 -5.51505e-07)
(4.86022e-05 -3.39653 -0 -4.80463e-05 -0 -5.55835e-07)
(4.5522e-05 -3.39244 -0 -4.49599e-05 -0 -5.62133e-07)
(4.18186e-05 -3.38875 -0 -4.12441e-05 -0 -5.74491e-07)
(3.74063e-05 -3.38551 -0 -3.68089e-05 -0 -5.9738e-07)
(3.20786e-05 -3.38272 -0 -3.14434e-05 -0 -6.35175e-07)
(2.56354e-05 -3.38044 -0 -2.49346e-05 -0 -7.0074e-07)
(1.7901e-05 -3.3787 -0 -1.71272e-05 -0 -7.73793e-07)
(8.54578e-06 -3.37756 -0 -7.67118e-06 -0 -8.74607e-07)
(-2.5557e-06 -3.37708 -0 3.50964e-06 -0 -9.53943e-07)
(-1.61591e-05 -3.37732 -0 1.7161e-05 -0 -1.00192e-06)
(-3.22183e-05 -3.37841 -0 3.32708e-05 -0 -1.05242e-06)
(-5.14877e-05 -3.38039 -0 5.24996e-05 -0 -1.01189e-06)
(-7.44763e-05 -3.38343 -0 7.54434e-05 -0 -9.67157e-07)
(-0.000102115 -3.3876 -0 0.00010291 -0 -7.95428e-07)
(-0.000134819 -3.39313 -0 0.000135499 -0 -6.8004e-07)
(-0.000169156 -3.39894 -0 0.000170433 -0 -1.27672e-06)
(-0.000201251 -3.40433 -0 0.000202235 -0 -9.83115e-07)
(-0.000235854 -3.41031 -0 0.000236801 -0 -9.47712e-07)
(-0.000273712 -3.41699 -0 0.000273898 -0 -1.85261e-07)
(-0.000315912 -3.42434 -0 0.00031583 -0 8.19811e-08)
(-0.000361901 -3.4324 -0 0.000360563 -0 1.33814e-06)
(-0.000414358 -3.44115 -0 0.000412432 -0 1.92519e-06)
(-0.000471132 -3.45068 -0 0.000467347 -0 3.78489e-06)
(-0.000535791 -3.46094 -0 0.00053077 -0 5.0214e-06)
(-0.000606404 -3.47205 -0 0.000598541 -0 7.86242e-06)
(-0.000689306 -3.48396 -0 0.000678968 -0 1.03376e-05)
(-0.000778805 -3.4969 -0 0.000764177 -0 1.46281e-05)
(-0.000894014 -3.5106 -0 0.000873647 -0 2.03679e-05)
(-0.00100622 -3.52589 -0 0.000979552 -0 2.66661e-05)
(-0.00118044 -3.54144 -0 0.00113791 -0 4.2526e-05)
(-0.00131331 -3.56019 -0 0.00126315 -0 5.01657e-05)
(-0.001603 -3.57736 -0 0.00151114 -0 9.18627e-05)
(-0.00175805 -3.60178 -0 0.00167028 -0 8.77665e-05)
(-0.00230948 -3.61998 -0 0.00211263 -0 0.000196847)
(-0.00242348 -3.65492 -0 0.00230504 -0 0.000118446)
(-0.00427829 -3.67033 -0 0.00382321 -0 0.000455087)
(-0.00229036 -3.73991 -0 0.00227393 -0 1.64299e-05)
(-0.0161014 -3.70512 -0 0.0144231 -0 0.0016783)
(0.0128128 -3.97666 -0 -0.0093551 -0 -0.00345773)
(-0.128318 -3.61755 -7.16371e-21 0.127834 -0 0.000484074)
(0.00594408 -12.1186 -0 -0.00805217 -0 0.00210808)
(0.00304368 -7.70514 -0 -0.00303643 -0 -7.25299e-06)
(0.00225856 -6.82918 -0 -0.00225834 -0 -2.18734e-07)
(0.0017059 -6.24992 -0 -0.00171123 -0 5.33298e-06)
(0.00123985 -5.8943 -0 -0.00125132 -0 1.14768e-05)
(0.00101035 -5.59944 -0 -0.00101729 -0 6.93447e-06)
(0.000820343 -5.37846 -0 -0.000827506 -0 7.16313e-06)
(0.000708184 -5.19146 -0 -0.000713674 -0 5.4898e-06)
(0.000615388 -5.03662 -0 -0.000620438 -0 5.04969e-06)
(0.000548468 -4.90298 -0 -0.000552839 -0 4.37108e-06)
(0.000493488 -4.78756 -0 -0.000497445 -0 3.95736e-06)
(0.000449329 -4.68595 -0 -0.000452905 -0 3.57601e-06)
(0.000412677 -4.59638 -0 -0.00041595 -0 3.2738e-06)
(0.000381877 -4.51619 -0 -0.000384894 -0 3.01703e-06)
(0.000354801 -4.44455 -0 -0.000357593 -0 2.79185e-06)
(0.000332207 -4.37993 -0 -0.00033481 -0 2.6025e-06)
(0.000312167 -4.32133 -0 -0.000314603 -0 2.43597e-06)
(0.000294237 -4.26815 -0 -0.000296524 -0 2.28689e-06)
(0.000278646 -4.21965 -0 -0.000280801 -0 2.15524e-06)
(0.000264809 -4.17523 -0 -0.000266849 -0 2.0398e-06)
(0.00025229 -4.13445 -0 -0.000254224 -0 1.93398e-06)
(0.000240955 -4.09693 -0 -0.000242794 -0 1.83867e-06)
(0.000230783 -4.06233 -0 -0.000232534 -0 1.75084e-06)
(0.00022165 -4.03031 -0 -0.000223323 -0 1.67292e-06)
(0.000213204 -4.00062 -0 -0.000214803 -0 1.59904e-06)
(0.000205534 -3.97308 -0 -0.000207066 -0 1.53203e-06)
(0.000198552 -3.94743 -0 -0.000200021 -0 1.46909e-06)
(0.000192046 -3.92354 -0 -0.000193457 -0 1.41122e-06)
(0.000186117 -3.90124 -0 -0.000187473 -0 1.35601e-06)
(0.000180663 -3.88038 -0 -0.000181969 -0 1.3058e-06)
(0.000175605 -3.86085 -0 -0.000176863 -0 1.2576e-06)
(0.000170867 -3.84254 -0 -0.00017208 -0 1.2123e-06)
(0.000166468 -3.82537 -0 -0.000167637 -0 1.16848e-06)
(0.000162399 -3.80922 -0 -0.000163526 -0 1.1269e-06)
(0.000158595 -3.79403 -0 -0.000159682 -0 1.08641e-06)
(0.000154985 -3.77972 -0 -0.000156032 -0 1.047e-06)
(0.00015158 -3.76624 -0 -0.000152588 -0 1.00787e-06)
(0.000148346 -3.75352 -0 -0.000149316 -0 9.69493e-07)
(0.000145251 -3.74153 -0 -0.000146182 -0 9.31004e-07)
(0.000142232 -3.73019 -0 -0.000143124 -0 8.92238e-07)
(0.000139259 -3.7195 -0 -0.000140112 -0 8.52581e-07)
(0.000136265 -3.70939 -0 -0.000137077 -0 8.11505e-07)
(0.000133204 -3.69987 -0 -0.000133972 -0 7.67868e-07)
(0.000130002 -3.69088 -0 -0.000130724 -0 7.21783e-07)
(0.000126523 -3.68242 -0 -0.000127194 -0 6.71111e-07)
(0.00012273 -3.67447 -0 -0.000123345 -0 6.15361e-07)
(0.00011844 -3.66703 -0 -0.000118992 -0 5.52313e-07)
(0.000113527 -3.6601 -0 -0.000114009 -0 4.81353e-07)
(0.000107755 -3.65367 -0 -0.000108153 -0 3.98266e-07)
(0.000100994 -3.64777 -0 -0.000101294 -0 3.00004e-07)
(9.28957e-05 -3.64241 -0 -9.30725e-05 -0 1.76789e-07)
(8.32687e-05 -3.63762 -0 -8.32817e-05 -0 1.30225e-08)
(7.16911e-05 -3.63341 -0 -7.14957e-05 -0 -1.95432e-07)
(5.77268e-05 -3.62987 -0 -5.72324e-05 -0 -4.94369e-07)
(4.10116e-05 -3.62699 -0 -4.01823e-05 -0 -8.29322e-07)
(2.08067e-05 -3.62488 -0 -1.95336e-05 -0 -1.27306e-06)
(-3.15117e-06 -3.62357 -0 4.86955e-06 -0 -1.71838e-06)
(-3.23789e-05 -3.62314 -0 3.45546e-05 -0 -2.17576e-06)
(-6.70583e-05 -3.62375 -0 6.97084e-05 -0 -2.65016e-06)
(-0.00010881 -3.62539 -0 0.000111905 -0 -3.095e-06)
(-0.000158264 -3.62833 -0 0.000161879 -0 -3.61471e-06)
(-0.00021776 -3.63259 -0 0.000221701 -0 -3.94126e-06)
(-0.000288106 -3.63849 -0 0.000292596 -0 -4.48986e-06)
(-0.000361185 -3.64482 -0 0.000367896 -0 -6.7108e-06)
(-0.000429201 -3.65069 -0 0.000436326 -0 -7.12472e-06)
(-0.000502822 -3.65725 -0 0.000510518 -0 -7.69621e-06)
(-0.000584143 -3.66453 -0 0.000591473 -0 -7.32973e-06)
(-0.00067426 -3.6726 -0 0.000682213 -0 -7.95251e-06)
(-0.000772335 -3.68141 -0 0.00077948 -0 -7.14512e-06)
(-0.000883917 -3.69099 -0 0.000891359 -0 -7.44151e-06)
(-0.00100519 -3.70137 -0 0.00101109 -0 -5.89999e-06)
(-0.00114294 -3.71257 -0 0.00114822 -0 -5.28338e-06)
(-0.00129323 -3.7246 -0 0.00129594 -0 -2.70879e-06)
(-0.0014694 -3.73751 -0 0.00147031 -0 -9.18019e-07)
(-0.00165593 -3.7513 -0 0.00165282 -0 3.11483e-06)
(-0.00189917 -3.76596 -0 0.00189045 -0 8.72293e-06)
(-0.00212647 -3.78182 -0 0.00211156 -0 1.49145e-05)
(-0.00249085 -3.79792 -0 0.002456 -0 3.48449e-05)
(-0.00275512 -3.81659 -0 0.00271207 -0 4.30524e-05)
(-0.00335284 -3.83335 -0 0.00325345 -0 9.93864e-05)
(-0.00364948 -3.85646 -0 0.0035545 -0 9.49798e-05)
(-0.00479442 -3.87324 -0 0.00456159 -0 0.000232827)
(-0.00482687 -3.90193 -0 0.00467143 -0 0.000155447)
(-0.00884157 -3.92065 -0 0.00834344 -0 0.000498133)
(-0.00360177 -3.95457 -0 0.00342234 -0 0.000179434)
(-0.0308148 -3.98377 -0 0.0293613 -0 0.00145341)
(0.0179273 -3.95621 -0 -0.0157571 -0 -0.00217018)
(-0.146145 -4.1591 -0 0.144575 -0 0.00157015)
(-0.0120762 -11.8845 -0 0.0116607 -0 0.000415429)
(0.00191982 -7.69526 -0 -0.00188934 -0 -3.04812e-05)
(0.00338356 -6.80169 -0 -0.00336701 -0 -1.65559e-05)
(0.00313202 -6.29567 -0 -0.00311748 -0 -1.45354e-05)
(0.00240662 -5.98889 -0 -0.00240971 -0 3.09335e-06)
(0.00202139 -5.73631 -0 -0.0020218 -0 4.04338e-07)
(0.00166307 -5.54377 -0 -0.00166662 -0 3.54781e-06)
(0.00144896 -5.38034 -0 -0.00145146 -0 2.49428e-06)
(0.00126624 -5.24354 -0 -0.00126923 -0 2.99022e-06)
(0.00113343 -5.1249 -0 -0.00113616 -0 2.72538e-06)
(0.00102308 -5.02179 -0 -0.0010258 -0 2.71286e-06)
(0.000933942 -4.93058 -0 -0.000936544 -0 2.60284e-06)
(0.000859554 -4.84979 -0 -0.000862076 -0 2.5222e-06)
(0.000796797 -4.77715 -0 -0.000799235 -0 2.43779e-06)
(0.000741434 -4.71202 -0 -0.000743786 -0 2.35153e-06)
(0.000695076 -4.65304 -0 -0.00069735 -0 2.27385e-06)
(0.000653888 -4.59939 -0 -0.000656088 -0 2.19991e-06)
(0.000616944 -4.55055 -0 -0.000619069 -0 2.12542e-06)
(0.000584744 -4.50588 -0 -0.000586801 -0 2.05671e-06)
(0.000556128 -4.46484 -0 -0.00055812 -0 1.99256e-06)
(0.000530208 -4.42708 -0 -0.000532138 -0 1.93017e-06)
(0.000506699 -4.39226 -0 -0.00050857 -0 1.87057e-06)
(0.000485574 -4.36006 -0 -0.000487387 -0 1.81304e-06)
(0.000466586 -4.33021 -0 -0.000468346 -0 1.76004e-06)
(0.000449019 -4.30248 -0 -0.000450726 -0 1.70719e-06)
(0.000433043 -4.2767 -0 -0.0004347 -0 1.65743e-06)
(0.000418492 -4.25265 -0 -0.000420101 -0 1.60909e-06)
(0.000404928 -4.23021 -0 -0.000406491 -0 1.563e-06)
(0.000392552 -4.20923 -0 -0.000394069 -0 1.5176e-06)
(0.000381161 -4.18958 -0 -0.000382637 -0 1.4754e-06)
(0.000370598 -4.17115 -0 -0.000372031 -0 1.43346e-06)
(0.000360698 -4.15386 -0 -0.000362091 -0 1.3929e-06)
(0.0003515 -4.13761 -0 -0.000352852 -0 1.35247e-06)
(0.000342985 -4.12231 -0 -0.000344299 -0 1.31315e-06)
(0.000335027 -4.10791 -0 -0.0003363 -0 1.27371e-06)
(0.000327472 -4.09432 -0 -0.000328707 -0 1.23421e-06)
(0.000320345 -4.08151 -0 -0.000321539 -0 1.19397e-06)
(0.000313573 -4.06941 -0 -0.000314727 -0 1.15381e-06)
(0.000307089 -4.05799 -0 -0.000308201 -0 1.11258e-06)
(0.000300763 -4.04718 -0 -0.000301834 -0 1.07052e-06)
(0.000294533 -4.03697 -0 -0.000295559 -0 1.0266e-06)
(0.000288254 -4.02731 -0 -0.000289235 -0 9.80816e-07)
(0.000281829 -4.01819 -0 -0.00028276 -0 9.31769e-07)
(0.000275107 -4.00957 -0 -0.000275987 -0 8.79507e-07)
(0.0002678 -4.00144 -0 -0.000268622 -0 8.22009e-07)
(0.000259822 -3.99379 -0 -0.000260581 -0 7.594e-07)
(0.000250794 -3.98661 -0 -0.000251483 -0 6.89102e-07)
(0.000240453 -3.97988 -0 -0.000241064 -0 6.10217e-07)
(0.000228299 -3.97362 -0 -0.000228816 -0 5.17776e-07)
(0.000214048 -3.96784 -0 -0.000214456 -0 4.07842e-07)
(0.000196986 -3.96253 -0 -0.000197251 -0 2.64544e-07)
(0.000176697 -3.95774 -0 -0.000176767 -0 6.96902e-08)
(0.000152325 -3.95346 -0 -0.000152137 -0 -1.88237e-07)
(0.000122988 -3.94975 -0 -0.000122425 -0 -5.62821e-07)
(8.78786e-05 -3.94663 -0 -8.68996e-05 -0 -9.79079e-07)
(4.548e-05 -3.94417 -0 -4.3966e-05 -0 -1.51398e-06)
(-4.99155e-06 -3.94237 -0 7.02172e-06 -0 -2.03017e-06)
(-6.62002e-05 -3.94132 -0 6.87558e-05 -0 -2.55552e-06)
(-0.000138979 -3.94115 -0 0.000142009 -0 -3.03002e-06)
(-0.000227322 -3.94183 -0 0.000230695 -0 -3.37321e-06)
(-0.000331322 -3.94352 -0 0.000335254 -0 -3.9321e-06)
(-0.000456308 -3.94633 -0 0.000460462 -0 -4.15408e-06)
(-0.000604384 -3.95045 -0 0.000609123 -0 -4.73913e-06)
(-0.000755512 -3.95507 -0 0.000762941 -0 -7.42872e-06)
(-0.000896029 -3.95939 -0 0.000903438 -0 -7.40912e-06)
(-0.00104878 -3.96426 -0 0.00105651 -0 -7.72884e-06)
(-0.00121846 -3.9696 -0 0.00122507 -0 -6.61252e-06)
(-0.00140601 -3.97557 -0 0.00141296 -0 -6.95216e-06)
(-0.00160938 -3.98206 -0 0.00161444 -0 -5.06124e-06)
(-0.0018403 -3.98916 -0 0.00184497 -0 -4.66701e-06)
(-0.00209093 -3.99676 -0 0.00209238 -0 -1.44883e-06)
(-0.00237684 -4.00502 -0 0.0023765 -0 3.39121e-07)
(-0.0026849 -4.01372 -0 0.00267957 -0 5.33259e-06)
(-0.0030502 -4.0232 -0 0.00304096 -0 9.24656e-06)
(-0.00342434 -4.03298 -0 0.00340757 -0 1.67677e-05)
(-0.00392498 -4.04364 -0 0.00389737 -0 2.76091e-05)
(-0.00437032 -4.05458 -0 0.00433107 -0 3.92452e-05)
(-0.0051095 -4.06606 -0 0.00503574 -0 7.37589e-05)
(-0.00562824 -4.07833 -0 0.00553939 -0 8.88527e-05)
(-0.00680874 -4.0898 -0 0.00662646 -0 0.000182272)
(-0.00740082 -4.10375 -0 0.00723008 -0 0.000170745)
(-0.00960941 -4.11561 -0 0.00919386 -0 0.000415547)
(-0.00964208 -4.12689 -0 0.00943027 -0 0.000211806)
(-0.0170461 -4.15142 -0 0.0160238 -0 0.00102235)
(-0.00800463 -4.13071 -0 0.00827485 -0 -0.000270214)
(-0.0516634 -4.23731 -0 0.0476721 -0 0.00399135)
(0.0118641 -3.92938 -0 -0.00438153 -0 -0.00748253)
(-0.177386 -4.54959 -0 0.16949 -0 0.0078959)
(-0.0501025 -11.6307 -0 0.0497281 -0 0.000374387)
(-0.00332419 -7.65865 -0 0.00335806 -0 -3.38641e-05)
(0.00365105 -6.67863 -0 -0.00363516 -0 -1.58864e-05)
(0.00463943 -6.1453 -0 -0.00460304 -0 -3.63912e-05)
(0.00382985 -5.83683 -0 -0.00381718 -0 -1.26626e-05)
(0.003347 -5.59336 -0 -0.00333224 -0 -1.47559e-05)
(0.0028002 -5.40757 -0 -0.00279221 -0 -7.99117e-06)
(0.0024669 -5.25101 -0 -0.00245861 -0 -8.29193e-06)
(0.00217013 -5.11972 -0 -0.00216364 -0 -6.49007e-06)
(0.00195172 -5.00595 -0 -0.00194566 -0 -6.05889e-06)
(0.00176767 -4.907 -0 -0.00176229 -0 -5.3797e-06)
(0.00161791 -4.81945 -0 -0.00161296 -0 -4.94812e-06)
(0.00149214 -4.74192 -0 -0.0014876 -0 -4.54687e-06)
(0.00138554 -4.67218 -0 -0.00138133 -0 -4.2186e-06)
(0.0012912 -4.60969 -0 -0.00128727 -0 -3.92574e-06)
(0.00121189 -4.55308 -0 -0.00120822 -0 -3.67852e-06)
(0.00114131 -4.5016 -0 -0.00113785 -0 -3.45679e-06)
(0.00107786 -4.45477 -0 -0.0010746 -0 -3.26022e-06)
(0.00102243 -4.41192 -0 -0.00101935 -0 -3.08832e-06)
(0.000973108 -4.37257 -0 -0.000970172 -0 -2.93543e-06)
(0.00092838 -4.33638 -0 -0.000925581 -0 -2.7983e-06)
(0.000887762 -4.303 -0 -0.000885087 -0 -2.67467e-06)
(0.000851211 -4.27216 -0 -0.000848645 -0 -2.56599e-06)
(0.000818327 -4.24356 -0 -0.000815858 -0 -2.46851e-06)
(0.000787893 -4.21701 -0 -0.000785512 -0 -2.38114e-06)
(0.000760181 -4.19233 -0 -0.000757878 -0 -2.30248e-06)
(0.000734923 -4.1693 -0 -0.00073269 -0 -2.23378e-06)
(0.000711374 -4.14783 -0 -0.000709204 -0 -2.1699e-06)
(0.000689864 -4.12776 -0 -0.000687749 -0 -2.11508e-06)
(0.000670056 -4.10896 -0 -0.000667992 -0 -2.06465e-06)
(0.000651683 -4.09134 -0 -0.000649663 -0 -2.02093e-06)
(0.000634461 -4.0748 -0 -0.00063248 -0 -1.9811e-06)
(0.000618448 -4.05926 -0 -0.000616501 -0 -1.94715e-06)
(0.000603615 -4.04464 -0 -0.000601697 -0 -1.91817e-06)
(0.000589748 -4.03087 -0 -0.000587854 -0 -1.8945e-06)
(0.000576588 -4.01789 -0 -0.000574714 -0 -1.8746e-06)
(0.000564164 -4.00565 -0 -0.000562305 -0 -1.85958e-06)
(0.000552356 -3.99408 -0 -0.000550508 -0 -1.84781e-06)
(0.000541044 -3.98317 -0 -0.000539204 -0 -1.84017e-06)
(0.000530009 -3.97284 -0 -0.000528174 -0 -1.83508e-06)
(0.000519135 -3.96308 -0 -0.000517302 -0 -1.83328e-06)
(0.000508175 -3.95385 -0 -0.000506342 -0 -1.83339e-06)
(0.00049695 -3.94513 -0 -0.000495114 -0 -1.83627e-06)
(0.000485205 -3.93688 -0 -0.000483365 -0 -1.84044e-06)
(0.000472438 -3.92909 -0 -0.000470592 -0 -1.84563e-06)
(0.000458482 -3.92175 -0 -0.000456631 -0 -1.8507e-06)
(0.000442688 -3.91484 -0 -0.000440833 -0 -1.85548e-06)
(0.000424592 -3.90836 -0 -0.000422734 -0 -1.85827e-06)
(0.000403324 -3.90231 -0 -0.000401463 -0 -1.86102e-06)
(0.00037837 -3.89668 -0 -0.000376503 -0 -1.8666e-06)
(0.000348507 -3.89148 -0 -0.000346615 -0 -1.89166e-06)
(0.000312974 -3.88674 -0 -0.000311014 -0 -1.95935e-06)
(0.000270324 -3.88245 -0 -0.000268245 -0 -2.07804e-06)
(0.000219025 -3.87866 -0 -0.000216704 -0 -2.32105e-06)
(0.000157661 -3.87537 -0 -0.0001551 -0 -2.561e-06)
(8.35839e-05 -3.87264 -0 -8.06751e-05 -0 -2.9088e-06)
(-4.76983e-06 -3.87047 -0 7.88343e-06 -0 -3.1136e-06)
(-0.000111722 -3.86894 -0 0.000114953 -0 -3.23059e-06)
(-0.000238359 -3.86809 -0 0.000241566 -0 -3.20797e-06)
(-0.000392889 -3.86798 -0 0.000395623 -0 -2.73479e-06)
(-0.000574829 -3.86867 -0 0.000577159 -0 -2.33041e-06)
(-0.000792795 -3.87022 -0 0.000794206 -0 -1.41098e-06)
(-0.00105108 -3.87283 -0 0.00105185 -0 -7.62645e-07)
(-0.0013129 -3.87598 -0 0.00131628 -0 -3.38277e-06)
(-0.00155532 -3.87899 -0 0.00155727 -0 -1.94874e-06)
(-0.00181866 -3.88247 -0 0.00181964 -0 -9.80487e-07)
(-0.00211142 -3.88622 -0 0.00210894 -0 2.48505e-06)
(-0.00243583 -3.89051 -0 0.00243213 -0 3.69888e-06)
(-0.00278569 -3.89512 -0 0.00277713 -0 8.56256e-06)
(-0.00318347 -3.90024 -0 0.00317238 -0 1.10822e-05)
(-0.00361233 -3.90565 -0 0.00359404 -0 1.82903e-05)
(-0.00410543 -3.91163 -0 0.00408214 -0 2.32904e-05)
(-0.00462851 -3.91773 -0 0.00459503 -0 3.34791e-05)
(-0.0052587 -3.92463 -0 0.00521646 -0 4.22421e-05)
(-0.00588416 -3.93134 -0 0.00582776 -0 5.64051e-05)
(-0.00674156 -3.93912 -0 0.00666517 -0 7.63915e-05)
(-0.00747459 -3.94639 -0 0.00737789 -0 9.66955e-05)
(-0.00871902 -3.95479 -0 0.00856594 -0 0.000153083)
(-0.00957686 -3.96257 -0 0.00939824 -0 0.00017862)
(-0.0115127 -3.97081 -0 0.0111886 -0 0.000324095)
(-0.0124938 -3.97914 -0 0.0121854 -0 0.000308369)
(-0.016064 -3.98761 -0 0.0153828 -0 0.000681166)
(-0.0161006 -3.99125 -0 0.0157286 -0 0.000372055)
(-0.027405 -4.01543 -0 0.0258051 -0 0.00159987)
(-0.0152303 -3.96816 -0 0.0156232 -0 -0.000392866)