/*--------------------------------*- C++ -*----------------------------------*\
| =========                 |                                                 |
| \\      /  F ield         | OpenFOAM: The Open Source CFD Toolbox           |
|  \\    /   O peration     | Version:  2306                                  |
|   \\  /    A nd           | Website:  www.openfoam.com                      |
|    \\/     M anipulation  |                                                 |
\*---------------------------------------------------------------------------*/
FoamFile
{
    version     2.0;
    format      ascii;
    arch        "LSB;label=32;scalar=64";
    class       volVectorField;
    location    "2000";
    object      U;
}
// * * * * * * * * * * * * * * * * * * * * * * * * * * * * * * * * * * * * * //

dimensions      [0 1 -1 0 0 0 0];

internalField   nonuniform List<vector> 
20540
(
(29.2912 0.00105846 0)
(28.3959 0.00219525 0)
(29.3075 0.00339557 0)
(28.4124 0.00579527 0)
(29.329 0.00621943 0)
(28.4339 0.00690817 0)
(29.3567 0.00963011 0)
(28.4619 0.00626748 0)
(29.3922 0.0137478 0)
(28.4976 0.00482743 0)
(29.437 0.0187161 0)
(28.5429 0.00274399 0)
(29.4932 0.024707 0)
(28.5997 -0.000156036 0)
(29.563 0.0319247 0)
(28.6703 -0.00406784 0)
(29.6492 0.0406119 0)
(28.7576 -0.0091884 0)
(29.755 0.0510548 0)
(28.8651 -0.0157552 0)
(29.8845 0.0635897 0)
(28.9969 -0.0240631 0)
(30.0421 0.0786081 0)
(29.1577 -0.0344678 0)
(30.2333 0.096562 0)
(29.3536 -0.0473884 0)
(30.4647 0.117966 0)
(29.5914 -0.0633113 0)
(30.7435 0.143398 0)
(29.8794 -0.0827904 0)
(31.0785 0.173488 0)
(30.2274 -0.106443 0)
(31.4795 0.208905 0)
(30.6468 -0.134932 0)
(31.958 0.250316 0)
(31.1509 -0.168942 0)
(32.5264 0.298335 0)
(31.755 -0.20912 0)
(33.1986 0.353422 0)
(32.4767 -0.255996 0)
(33.9895 0.415734 0)
(33.3354 -0.309853 0)
(34.9148 0.484907 0)
(34.3527 -0.370531 0)
(35.9903 0.559724 0)
(35.551 -0.437161 0)
(37.2313 0.637655 0)
(36.953 -0.507786 0)
(38.6516 0.714193 0)
(38.5795 -0.578869 0)
(40.2629 0.781952 0)
(40.447 -0.644628 0)
(42.0742 0.829487 0)
(42.5625 -0.696085 0)
(44.0925 0.8402 0)
(44.9174 -0.719482 0)
(46.3244 0.792148 0)
(47.475 -0.693919 0)
(48.7695 0.656682 0)
(50.1394 -0.589527 0)
(51.0085 0.425472 0)
(52.3528 -0.390333 0)
(52.477 0.116059 0)
(53.6104 -0.120321 0)
(52.3543 -0.245946 0)
(53.5119 0.183021 0)
(50.7413 -0.543303 0)
(52.0972 0.446504 0)
(48.464 -0.759875 0)
(49.8109 0.634654 0)
(46.0443 -0.882338 0)
(47.1533 0.73182 0)
(43.8292 -0.921817 0)
(44.6031 0.755323 0)
(41.8153 -0.904955 0)
(42.2486 0.732164 0)
(39.9971 -0.852524 0)
(40.1242 0.681524 0)
(38.3693 -0.780354 0)
(38.2389 0.616281 0)
(36.9246 -0.699465 0)
(36.5867 0.545051 0)
(35.6533 -0.617081 0)
(35.1533 0.473537 0)
(34.5434 -0.537698 0)
(33.9199 0.405349 0)
(33.5812 -0.463913 0)
(32.8654 0.342586 0)
(32.7523 -0.39703 0)
(31.9689 0.28628 0)
(32.0424 -0.337502 0)
(31.2101 0.236744 0)
(31.4374 -0.285246 0)
(30.5702 0.193828 0)
(30.9242 -0.239855 0)
(30.0325 0.157106 0)
(30.4905 -0.200754 0)
(29.5818 0.126006 0)
(30.1254 -0.167291 0)
(29.2051 0.0998961 0)
(29.8191 -0.138804 0)
(28.8909 0.0781445 0)
(29.5629 -0.114654 0)
(28.6295 0.0601497 0)
(29.3493 -0.0942523 0)
(28.4125 0.0453611 0)
(29.1718 -0.0770649 0)
(28.2329 0.0332875 0)
(29.0247 -0.0626187 0)
(28.0845 0.0234987 0)
(28.9033 -0.0504992 0)
(27.9623 0.0156241 0)
(28.8035 -0.0403476 0)
(27.8621 0.00934864 0)
(28.7217 -0.031855 0)
(27.7802 0.00441058 0)
(28.6552 -0.024758 0)
(27.7136 0.000598577 0)
(28.6013 -0.0188323 0)
(27.6598 -0.00226363 0)
(28.5581 -0.0138882 0)
(27.6167 -0.00435249 0)
(28.5237 -0.00976565 0)
(27.5824 -0.00582244 0)
(28.4967 -0.00632974 0)
(27.5555 -0.0065113 0)
(28.4758 -0.00346727 0)
(27.5347 -0.00550531 0)
(28.4598 -0.00108335 0)
(27.5188 -0.00209508 0)
(9.25791 0.000734158 0)
(6.18817 0.000335961 0)
(5.52541 4.09879e-05 0)
(5.07967 7.84652e-06 0)
(4.82146 4.49349e-06 0)
(4.60395 1.7258e-06 0)
(4.44545 1.69209e-06 0)
(4.3097 1.13817e-06 0)
(4.1982 1.08647e-06 0)
(4.10152 9.45407e-07 0)
(4.01804 8.8752e-07 0)
(3.94438 8.31972e-07 0)
(3.87933 7.91554e-07 0)
(3.82098 7.58253e-07 0)
(3.76875 7.26516e-07 0)
(3.72155 7.04301e-07 0)
(3.67867 6.79182e-07 0)
(3.63967 6.58065e-07 0)
(3.60405 6.39149e-07 0)
(3.57137 6.21703e-07 0)
(3.54131 6.03905e-07 0)
(3.51362 5.87498e-07 0)
(3.48804 5.72195e-07 0)
(3.46433 5.57602e-07 0)
(3.44233 5.42581e-07 0)
(3.42188 5.28625e-07 0)
(3.40282 5.14887e-07 0)
(3.38504 5.01003e-07 0)
(3.36842 4.88128e-07 0)
(3.35287 4.75345e-07 0)
(3.33829 4.62825e-07 0)
(3.32461 4.50186e-07 0)
(3.31176 4.38254e-07 0)
(3.29967 4.26034e-07 0)
(3.28829 4.13586e-07 0)
(3.27756 4.00732e-07 0)
(3.26745 3.87891e-07 0)
(3.2579 3.74597e-07 0)
(3.24889 3.60918e-07 0)
(3.24038 3.46363e-07 0)
(3.23234 3.31383e-07 0)
(3.22476 3.15052e-07 0)
(3.21761 2.9709e-07 0)
(3.21087 2.7772e-07 0)
(3.20455 2.55486e-07 0)
(3.19863 2.30267e-07 0)
(3.19311 1.99979e-07 0)
(3.188 1.65583e-07 0)
(3.18331 1.24762e-07 0)
(3.17906 7.63779e-08 0)
(3.17527 1.65559e-08 0)
(3.17197 -6.71945e-08 0)
(3.1692 -1.73123e-07 0)
(3.16701 -3.46248e-07 0)
(3.16545 -5.26373e-07 0)
(3.16458 -8.21067e-07 0)
(3.16449 -1.0414e-06 0)
(3.16526 -1.40572e-06 0)
(3.16704 -1.61111e-06 0)
(3.16987 -1.8996e-06 0)
(3.174 -2.12901e-06 0)
(3.17949 -2.34023e-06 0)
(3.18663 -2.51919e-06 0)
(3.194 -4.57573e-06 0)
(3.20078 -4.94321e-06 0)
(3.20838 -5.7787e-06 0)
(3.21689 -5.1275e-06 0)
(3.22624 -6.17174e-06 0)
(3.2365 -5.42487e-06 0)
(3.24769 -6.93988e-06 0)
(3.25991 -5.6744e-06 0)
(3.27315 -7.02188e-06 0)
(3.28755 -5.49877e-06 0)
(3.30306 -6.75293e-06 0)
(3.32001 -5.37753e-06 0)
(3.33814 -5.71562e-06 0)
(3.35851 -4.33941e-06 0)
(3.37975 1.19643e-06 0)
(3.40557 4.13567e-06 0)
(3.43035 2.28593e-05 0)
(3.46573 2.68338e-05 0)
(3.49426 5.32034e-05 0)
(3.5483 5.64334e-05 0)
(3.57793 1.01762e-05 0)
(3.69146 6.02167e-05 0)
(3.66628 -0.000841936 0)
(4.18781 0.00228276 0)
(3.17754 -0.0185202 0)
(23.082 0.00536901 0)
(18.6167 0.0020222 0)
(16.9201 0.000753984 0)
(15.6928 0.000455437 0)
(14.9563 0.00032278 0)
(14.3316 0.000255982 0)
(13.8693 0.000209653 0)
(13.4719 0.000180671 0)
(13.143 0.000158038 0)
(12.8567 0.000141334 0)
(12.6085 0.000127758 0)
(12.3889 0.000116782 0)
(12.1943 0.000107653 0)
(12.0194 9.99545e-05 0)
(11.8624 9.31491e-05 0)
(11.7203 8.74644e-05 0)
(11.591 8.23989e-05 0)
(11.4733 7.78404e-05 0)
(11.3655 7.38788e-05 0)
(11.2666 7.03432e-05 0)
(11.1755 6.71386e-05 0)
(11.0914 6.42224e-05 0)
(11.0137 6.1607e-05 0)
(10.9416 5.92468e-05 0)
(10.8747 5.70615e-05 0)
(10.8124 5.50691e-05 0)
(10.7543 5.32562e-05 0)
(10.7001 5.1557e-05 0)
(10.6495 5.00109e-05 0)
(10.602 4.85825e-05 0)
(10.5575 4.72566e-05 0)
(10.5157 4.6009e-05 0)
(10.4764 4.48506e-05 0)
(10.4394 4.37756e-05 0)
(10.4046 4.27681e-05 0)
(10.3718 4.18068e-05 0)
(10.3409 4.08981e-05 0)
(10.3116 4.00318e-05 0)
(10.284 3.91983e-05 0)
(10.258 3.83811e-05 0)
(10.2333 3.75711e-05 0)
(10.2101 3.67503e-05 0)
(10.1881 3.59053e-05 0)
(10.1675 3.50137e-05 0)
(10.148 3.40374e-05 0)
(10.1298 3.29675e-05 0)
(10.1128 3.175e-05 0)
(10.0971 3.03471e-05 0)
(10.0825 2.86893e-05 0)
(10.0693 2.67377e-05 0)
(10.0575 2.43773e-05 0)
(10.0472 2.15509e-05 0)
(10.0383 1.81018e-05 0)
(10.0312 1.38894e-05 0)
(10.026 8.83204e-06 0)
(10.0228 2.67745e-06 0)
(10.0218 -4.51352e-06 0)
(10.0234 -1.33495e-05 0)
(10.0279 -2.35824e-05 0)
(10.0355 -3.57539e-05 0)
(10.0467 -5.03307e-05 0)
(10.0619 -6.77711e-05 0)
(10.0819 -8.86559e-05 0)
(10.1027 -0.000112355 0)
(10.122 -0.000132408 0)
(10.1435 -0.000155499 0)
(10.1675 -0.00017785 0)
(10.1938 -0.000205347 0)
(10.2228 -0.000232101 0)
(10.2544 -0.000266322 0)
(10.2888 -0.00029862 0)
(10.3259 -0.000340172 0)
(10.3662 -0.000379504 0)
(10.4096 -0.000430787 0)
(10.4568 -0.00048074 0)
(10.5073 -0.000546596 0)
(10.5638 -0.000609596 0)
(10.6223 -0.000692702 0)
(10.693 -0.000770043 0)
(10.7597 -0.000872958 0)
(10.8546 -0.00100645 0)
(10.9282 -0.00111645 0)
(11.0697 -0.00153917 0)
(11.139 -0.00175374 0)
(11.4339 -0.00274885 0)
(11.3205 -0.00662784 0)
(12.652 -0.00101256 0)
(10.3213 -0.147361 0)
(28.5599 0.00861335 0)
(26.6866 0.003635 0)
(25.2065 0.00188394 0)
(23.8149 0.00130425 0)
(22.9329 0.000958218 0)
(22.1601 0.000781476 0)
(21.5791 0.000646744 0)
(21.0741 0.000563987 0)
(20.6526 0.000496872 0)
(20.2833 0.000447516 0)
(19.9612 0.000406822 0)
(19.6747 0.00037378 0)
(19.4198 0.000346126 0)
(19.1896 0.000322697 0)
(18.9824 0.000301846 0)
(18.7941 0.000284383 0)
(18.6223 0.000268741 0)
(18.4653 0.000254611 0)
(18.3213 0.000242272 0)
(18.1887 0.000231247 0)
(18.0664 0.000221202 0)
(17.9533 0.000212046 0)
(17.8485 0.000203794 0)
(17.7511 0.000196349 0)
(17.6605 0.00018942 0)
(17.5761 0.000183101 0)
(17.4973 0.000177327 0)
(17.4236 0.000171915 0)
(17.3546 0.000166969 0)
(17.2898 0.000162402 0)
(17.2291 0.000158149 0)
(17.1719 0.000154146 0)
(17.1182 0.000150417 0)
(17.0676 0.000146956 0)
(17.0199 0.000143706 0)
(16.9748 0.000140605 0)
(16.9323 0.000137667 0)
(16.8922 0.000134863 0)
(16.8542 0.000132164 0)
(16.8183 0.000129514 0)
(16.7844 0.000126886 0)
(16.7523 0.000124218 0)
(16.722 0.000121467 0)
(16.6935 0.000118565 0)
(16.6666 0.000115382 0)
(16.6414 0.000111886 0)
(16.6179 0.0001079 0)
(16.5961 0.000103308 0)
(16.5759 9.78781e-05 0)
(16.5576 9.14853e-05 0)
(16.5412 8.37732e-05 0)
(16.5267 7.45316e-05 0)
(16.5144 6.33254e-05 0)
(16.5044 4.96354e-05 0)
(16.497 3.32563e-05 0)
(16.4923 1.33019e-05 0)
(16.4908 -1.00705e-05 0)
(16.4927 -3.86053e-05 0)
(16.4985 -7.20335e-05 0)
(16.5086 -0.000111772 0)
(16.5237 -0.000159039 0)
(16.5441 -0.000215279 0)
(16.571 -0.000282055 0)
(16.599 -0.000357172 0)
(16.6249 -0.000422205 0)
(16.6537 -0.000493747 0)
(16.6859 -0.000567554 0)
(16.7213 -0.00065394 0)
(16.7601 -0.000742226 0)
(16.8022 -0.000848673 0)
(16.8481 -0.000955966 0)
(16.8975 -0.00108433 0)
(16.9511 -0.00121559 0)
(17.0085 -0.00137599 0)
(17.071 -0.00153984 0)
(17.1371 -0.00175198 0)
(17.2113 -0.00195348 0)
(17.2868 -0.00223895 0)
(17.3784 -0.00247419 0)
(17.4631 -0.00287785 0)
(17.5837 -0.00319841 0)
(17.6759 -0.00386667 0)
(17.8518 -0.00435939 0)
(17.932 -0.00693356 0)
(18.2955 -0.00424837 0)
(18.1188 -0.0272463 0)
(19.6415 0.0157456 0)
(17.3807 -0.266961 0)
(30.8434 0.00842374 0)
(30.7672 0.00440505 0)
(29.934 0.0029559 0)
(28.6708 0.00229358 0)
(27.8063 0.00174521 0)
(27.0097 0.00145544 0)
(26.4005 0.0012158 0)
(25.8649 0.0010691 0)
(25.4149 0.000946785 0)
(25.0189 0.000856724 0)
(24.6724 0.000781705 0)
(24.3635 0.000720559 0)
(24.0881 0.000669145 0)
(23.8391 0.000625442 0)
(23.6146 0.00058638 0)
(23.4105 0.00055359 0)
(23.2239 0.000524143 0)
(23.0534 0.000497457 0)
(22.8969 0.000474101 0)
(22.7526 0.000453201 0)
(22.6195 0.000434116 0)
(22.4963 0.000416684 0)
(22.3821 0.000400943 0)
(22.2759 0.00038673 0)
(22.1771 0.000373478 0)
(22.085 0.000361377 0)
(21.9989 0.000350307 0)
(21.9184 0.000339918 0)
(21.843 0.000330412 0)
(21.7723 0.000321628 0)
(21.7059 0.000313442 0)
(21.6434 0.000305729 0)
(21.5846 0.000298536 0)
(21.5293 0.000291858 0)
(21.477 0.000285585 0)
(21.4277 0.000279594 0)
(21.3812 0.000273916 0)
(21.3372 0.000268495 0)
(21.2956 0.000263272 0)
(21.2563 0.000258141 0)
(21.2191 0.000253048 0)
(21.1839 0.000247872 0)
(21.1508 0.000242528 0)
(21.1195 0.000236883 0)
(21.09 0.000230683 0)
(21.0624 0.000223861 0)
(21.0366 0.000216073 0)
(21.0126 0.000207086 0)
(20.9905 0.000196448 0)
(20.9704 0.00018391 0)
(20.9524 0.000168786 0)
(20.9365 0.000150671 0)
(20.923 0.000128741 0)
(20.912 0.000102041 0)
(20.9039 7.00848e-05 0)
(20.8988 3.1261e-05 0)
(20.8971 -1.44674e-05 0)
(20.8991 -7.00574e-05 0)
(20.9055 -0.000135571 0)
(20.9165 -0.000213919 0)
(20.9331 -0.000306782 0)
(20.9554 -0.000417389 0)
(20.9849 -0.000548777 0)
(21.0156 -0.000691828 0)
(21.0439 -0.000817809 0)
(21.0753 -0.000955788 0)
(21.1104 -0.00110188 0)
(21.1489 -0.00126925 0)
(21.1911 -0.00144342 0)
(21.2368 -0.00164857 0)
(21.2867 -0.00186064 0)
(21.3403 -0.00210931 0)
(21.3985 -0.00236821 0)
(21.4604 -0.00267997 0)
(21.5282 -0.00299806 0)
(21.5991 -0.0034123 0)
(21.6793 -0.00379543 0)
(21.7595 -0.00436388 0)
(21.8578 -0.00480676 0)
(21.947 -0.00563331 0)
(22.0743 -0.0062122 0)
(22.1713 -0.00761318 0)
(22.3531 -0.00830031 0)
(22.4359 -0.0133956 0)
(22.8007 -0.00768471 0)
(22.6349 -0.0469316 0)
(24.0097 0.0174764 0)
(22.2895 -0.352474 0)
(32.1014 0.00675102 0)
(33.0513 0.00434559 0)
(32.8728 0.00379149 0)
(31.8515 0.00332821 0)
(31.0727 0.00263872 0)
(30.2936 0.00225304 0)
(29.6817 0.00190025 0)
(29.1332 0.00168273 0)
(28.6678 0.00149603 0)
(28.2554 0.00135785 0)
(27.8929 0.00124163 0)
(27.5688 0.00114651 0)
(27.2791 0.00106621 0)
(27.0168 0.000997774 0)
(26.7799 0.000936445 0)
(26.5642 0.000884859 0)
(26.367 0.000838476 0)
(26.1866 0.000796377 0)
(26.0209 0.000759475 0)
(25.8682 0.000726431 0)
(25.7271 0.000696229 0)
(25.5965 0.000668619 0)
(25.4755 0.000643664 0)
(25.363 0.00062112 0)
(25.2581 0.000600092 0)
(25.1604 0.000580874 0)
(25.0691 0.000563288 0)
(24.9837 0.00054678 0)
(24.9037 0.000531663 0)
(24.8286 0.000517692 0)
(24.7581 0.00050467 0)
(24.6918 0.000492399 0)
(24.6294 0.000480949 0)
(24.5706 0.000470315 0)
(24.5152 0.000460328 0)
(24.4628 0.000450792 0)
(24.4134 0.00044175 0)
(24.3666 0.000433116 0)
(24.3225 0.000424796 0)
(24.2807 0.000416623 0)
(24.2412 0.000408508 0)
(24.2038 0.00040026 0)
(24.1686 0.000391737 0)
(24.1353 0.000382733 0)
(24.104 0.000372839 0)
(24.0747 0.000361941 0)
(24.0472 0.000349494 0)
(24.0218 0.000335124 0)
(23.9983 0.000318109 0)
(23.9769 0.000298041 0)
(23.9576 0.000273841 0)
(23.9408 0.000244859 0)
(23.9263 0.000209811 0)
(23.9146 0.000167219 0)
(23.9058 0.000116241 0)
(23.9003 5.43757e-05 0)
(23.8984 -1.87134e-05 0)
(23.9004 -0.000107384 0)
(23.9069 -0.000212034 0)
(23.9184 -0.000337795 0)
(23.9357 -0.000486581 0)
(23.9591 -0.000663851 0)
(23.99 -0.000874459 0)
(24.0222 -0.00110014 0)
(24.0518 -0.0013001 0)
(24.0847 -0.00151877 0)
(24.1213 -0.00175297 0)
(24.1616 -0.0020194 0)
(24.2057 -0.0022982 0)
(24.2534 -0.00262397 0)
(24.3055 -0.00296346 0)
(24.3612 -0.00335987 0)
(24.4219 -0.00377338 0)
(24.4862 -0.00427175 0)
(24.5569 -0.00477393 0)
(24.6301 -0.0054369 0)
(24.7135 -0.00603371 0)
(24.7956 -0.00694733 0)
(24.8972 -0.007637 0)
(24.9883 -0.00896946 0)
(25.118 -0.00985656 0)
(25.2168 -0.0121285 0)
(25.3986 -0.0130158 0)
(25.4834 -0.0209288 0)
(25.8321 -0.0122988 0)
(25.7104 -0.0671355 0)
(26.863 0.0121775 0)
(25.6981 -0.413811 0)
(32.9394 0.00376761 0)
(34.4752 0.00349032 0)
(34.8254 0.00427303 0)
(34.0972 0.00434066 0)
(33.4627 0.00362451 0)
(32.7432 0.00319272 0)
(32.1555 0.00273093 0)
(31.6127 0.00244142 0)
(31.1448 0.00218243 0)
(30.7255 0.00198866 0)
(30.3542 0.00182332 0)
(30.0204 0.00168709 0)
(29.721 0.00157137 0)
(29.4491 0.00147233 0)
(29.2029 0.00138327 0)
(28.9785 0.00130813 0)
(28.773 0.00124045 0)
(28.5848 0.00117891 0)
(28.4117 0.00112487 0)
(28.2521 0.00107642 0)
(28.1045 0.0010321 0)
(27.9679 0.000991546 0)
(27.8412 0.000954853 0)
(27.7233 0.000921685 0)
(27.6134 0.000890739 0)
(27.5111 0.000862432 0)
(27.4153 0.000836519 0)
(27.3258 0.000812191 0)
(27.2419 0.000789897 0)
(27.1631 0.000769288 0)
(27.0891 0.000750076 0)
(27.0196 0.000731971 0)
(26.9541 0.000715073 0)
(26.8924 0.000699371 0)
(26.8342 0.000684626 0)
(26.7792 0.000670551 0)
(26.7273 0.000657202 0)
(26.6782 0.000644454 0)
(26.6319 0.00063217 0)
(26.588 0.000620104 0)
(26.5465 0.000608124 0)
(26.5073 0.000595947 0)
(26.4702 0.000583362 0)
(26.4353 0.000570069 0)
(26.4024 0.000555464 0)
(26.3715 0.000539367 0)
(26.3427 0.000520982 0)
(26.3159 0.000499757 0)
(26.2912 0.000474627 0)
(26.2686 0.000444976 0)
(26.2483 0.00040924 0)
(26.2305 0.000366444 0)
(26.2152 0.000314739 0)
(26.2028 0.000251991 0)
(26.1934 0.000176896 0)
(26.1874 8.5834e-05 0)
(26.1851 -2.19834e-05 0)
(26.1869 -0.000152605 0)
(26.1934 -0.000306763 0)
(26.2049 -0.000492683 0)
(26.2226 -0.000712396 0)
(26.2465 -0.000974305 0)
(26.2782 -0.00128546 0)
(26.3112 -0.00161505 0)
(26.3416 -0.00190821 0)
(26.3754 -0.00222839 0)
(26.413 -0.00257355 0)
(26.4542 -0.0029649 0)
(26.4994 -0.00337537 0)
(26.5483 -0.00385297 0)
(26.6016 -0.00435215 0)
(26.6586 -0.00493496 0)
(26.7207 -0.0055411 0)
(26.7862 -0.00627519 0)
(26.8585 -0.0070044 0)
(26.9328 -0.00797996 0)
(27.018 -0.00883799 0)
(27.1009 -0.0101806 0)
(27.2039 -0.0111741 0)
(27.2956 -0.0131232 0)
(27.4256 -0.0143867 0)
(27.5247 -0.0177119 0)
(27.7047 -0.0188346 0)
(27.7904 -0.0298808 0)
(28.1193 -0.0187283 0)
(28.0484 -0.0878502 0)
(28.9822 -0.00121732 0)
(28.2899 -0.456243 0)
(33.5684 -0.000619639 0)
(35.4557 0.00182574 0)
(36.1872 0.00429863 0)
(35.7399 0.00521203 0)
(35.2827 0.00462272 0)
(34.6592 0.00423518 0)
(34.1233 0.00369309 0)
(33.6065 0.00334518 0)
(33.1507 0.0030141 0)
(32.7353 0.00276182 0)
(32.3635 0.00254195 0)
(32.0265 0.00235882 0)
(31.7222 0.00220173 0)
(31.4448 0.00206639 0)
(31.1927 0.00194409 0)
(30.9622 0.00184041 0)
(30.7507 0.00174676 0)
(30.5566 0.00166138 0)
(30.3779 0.00158621 0)
(30.2128 0.00151871 0)
(30.0601 0.00145688 0)
(29.9185 0.00140022 0)
(29.7871 0.00134889 0)
(29.6648 0.00130244 0)
(29.5508 0.00125909 0)
(29.4445 0.00121939 0)
(29.345 0.00118303 0)
(29.2519 0.00114888 0)
(29.1647 0.00111756 0)
(29.0828 0.0010886 0)
(29.0059 0.00106159 0)
(28.9335 0.00103614 0)
(28.8653 0.00101237 0)
(28.8011 0.000990278 0)
(28.7405 0.000969527 0)
(28.6832 0.000949725 0)
(28.6292 0.000930939 0)
(28.5781 0.000912995 0)
(28.5297 0.000895706 0)
(28.484 0.000878725 0)
(28.4408 0.000861866 0)
(28.3999 0.000844734 0)
(28.3613 0.000827028 0)
(28.3248 0.000808329 0)
(28.2906 0.000787796 0)
(28.2584 0.000765162 0)
(28.2282 0.000739317 0)
(28.2003 0.000709484 0)
(28.1744 0.000674181 0)
(28.1508 0.000632517 0)
(28.1296 0.00058234 0)
(28.1109 0.00052225 0)
(28.0948 0.00044971 0)
(28.0816 0.000361774 0)
(28.0716 0.000256556 0)
(28.065 0.000129043 0)
(28.0623 -2.21193e-05 0)
(28.0637 -0.000205163 0)
(28.07 -0.000420936 0)
(28.0814 -0.00068173 0)
(28.0991 -0.000989935 0)
(28.1231 -0.00135726 0)
(28.1551 -0.00179387 0)
(28.1886 -0.00225207 0)
(28.2193 -0.00266046 0)
(28.2535 -0.00310616 0)
(28.2915 -0.00358822 0)
(28.3333 -0.00413396 0)
(28.379 -0.00470675 0)
(28.4284 -0.00537156 0)
(28.4823 -0.00606668 0)
(28.5398 -0.00687938 0)
(28.6026 -0.00772067 0)
(28.6685 -0.00874491 0)
(28.7415 -0.00974993 0)
(28.816 -0.0111067 0)
(28.9017 -0.0122804 0)
(28.9847 -0.0141413 0)
(29.0878 -0.0155015 0)
(29.1793 -0.0181856 0)
(29.3084 -0.0198957 0)
(29.4067 -0.0244662 0)
(29.584 -0.0258879 0)
(29.6695 -0.0402454 0)
(29.9792 -0.0275434 0)
(29.9529 -0.108131 0)
(30.701 -0.0241063 0)
(30.3573 -0.480529 0)
(34.0787 -0.00658302 0)
(36.1891 -0.000702435 0)
(37.1841 0.00380865 0)
(36.9716 0.00584761 0)
(36.6941 0.0055425 0)
(36.189 0.00531867 0)
(35.7283 0.00475076 0)
(35.2577 0.00437761 0)
(34.8298 0.00398724 0)
(34.4308 0.00368182 0)
(34.068 0.0034072 0)
(33.7352 0.00317467 0)
(33.4321 0.00297228 0)
(33.154 0.00279615 0)
(32.8998 0.00263582 0)
(32.6665 0.00249892 0)
(32.4516 0.00237468 0)
(32.2539 0.00226101 0)
(32.0714 0.00216055 0)
(31.9025 0.0020701 0)
(31.746 0.00198705 0)
(31.6008 0.00191083 0)
(31.4658 0.00184164 0)
(31.34 0.00177894 0)
(31.2227 0.00172037 0)
(31.1132 0.00166666 0)
(31.0106 0.00161741 0)
(30.9146 0.00157115 0)
(30.8246 0.00152868 0)
(30.74 0.00148937 0)
(30.6606 0.0014527 0)
(30.5858 0.00141813 0)
(30.5153 0.00138584 0)
(30.4489 0.0013558 0)
(30.3862 0.00132757 0)
(30.327 0.00130064 0)
(30.2711 0.00127509 0)
(30.2182 0.00125067 0)
(30.1682 0.00122714 0)
(30.1208 0.00120404 0)
(30.0761 0.0011811 0)
(30.0337 0.0011578 0)
(29.9937 0.00113372 0)
(29.956 0.00110829 0)
(29.9204 0.0010804 0)
(29.887 0.00104966 0)
(29.8558 0.00101456 0)
(29.8267 0.000974064 0)
(29.7999 0.000926178 0)
(29.7753 0.00086966 0)
(29.7532 0.000801653 0)
(29.7336 0.000720207 0)
(29.7168 0.000621957 0)
(29.7029 0.00050297 0)
(29.6922 0.000360635 0)
(29.685 0.000188222 0)
(29.6818 -1.62654e-05 0)
(29.6828 -0.000263857 0)
(29.6887 -0.000555366 0)
(29.6998 -0.000907976 0)
(29.7172 -0.00132476 0)
(29.7411 -0.00182157 0)
(29.7729 -0.00241235 0)
(29.8064 -0.00302751 0)
(29.8372 -0.00357676 0)
(29.8715 -0.00417558 0)
(29.9095 -0.00482408 0)
(29.9513 -0.00555776 0)
(29.9971 -0.00632784 0)
(30.0466 -0.00721995 0)
(30.1005 -0.00815229 0)
(30.1579 -0.00924376 0)
(30.2207 -0.0103687 0)
(30.2865 -0.0117431 0)
(30.3594 -0.0130808 0)
(30.4337 -0.014893 0)
(30.5189 -0.016447 0)
(30.6015 -0.0189216 0)
(30.7036 -0.0207221 0)
(30.7944 -0.0242711 0)
(30.9216 -0.0265081 0)
(31.0184 -0.0325276 0)
(31.1923 -0.0343723 0)
(31.2775 -0.0520988 0)
(31.5682 -0.0393104 0)
(31.5785 -0.127703 0)
(32.1799 -0.0561494 0)
(32.056 -0.490866 0)
(34.5159 -0.0143726 0)
(36.7741 -0.00418276 0)
(37.9498 0.00275206 0)
(37.9197 0.00618306 0)
(37.8023 0.0063028 0)
(37.4204 0.0063724 0)
(37.0491 0.00585091 0)
(36.6411 0.00550503 0)
(36.2562 0.00508348 0)
(35.8865 0.00474194 0)
(35.5432 0.00442062 0)
(35.2235 0.00414209 0)
(34.9286 0.00389449 0)
(34.6555 0.00367586 0)
(34.404 0.00347462 0)
(34.1716 0.00330103 0)
(33.9567 0.00314236 0)
(33.7581 0.00299644 0)
(33.5741 0.00286679 0)
(33.4034 0.00274952 0)
(33.2449 0.0026415 0)
(33.0974 0.00254215 0)
(32.9601 0.0024517 0)
(32.832 0.00236954 0)
(32.7123 0.00229269 0)
(32.6005 0.00222208 0)
(32.4957 0.00215724 0)
(32.3974 0.00209629 0)
(32.3053 0.00204026 0)
(32.2186 0.00198833 0)
(32.1371 0.00193987 0)
(32.0604 0.00189416 0)
(31.9881 0.00185143 0)
(31.9198 0.00181164 0)
(31.8554 0.00177422 0)
(31.7946 0.00173854 0)
(31.7371 0.00170466 0)
(31.6827 0.00167228 0)
(31.6312 0.00164106 0)
(31.5825 0.00161041 0)
(31.5364 0.00157998 0)
(31.4928 0.00154908 0)
(31.4516 0.00151715 0)
(31.4127 0.00148344 0)
(31.376 0.0014465 0)
(31.3416 0.00140578 0)
(31.3093 0.00135933 0)
(31.2793 0.00130574 0)
(31.2515 0.00124244 0)
(31.2261 0.00116773 0)
(31.2032 0.00107791 0)
(31.1828 0.000970333 0)
(31.1652 0.00084065 0)
(31.1507 0.000683727 0)
(31.1393 0.000496076 0)
(31.1315 0.000268836 0)
(31.1277 -6.4807e-07 0)
(31.1281 -0.000326958 0)
(31.1336 -0.000710707 0)
(31.1442 -0.00117497 0)
(31.1612 -0.00172368 0)
(31.1846 -0.0023778 0)
(31.2161 -0.00315633 0)
(31.2493 -0.00396161 0)
(31.2798 -0.00468128 0)
(31.3138 -0.00546534 0)
(31.3516 -0.00631475 0)
(31.3931 -0.00727473 0)
(31.4386 -0.00828283 0)
(31.4877 -0.00944809 0)
(31.5412 -0.0106657 0)
(31.5982 -0.0120913 0)
(31.6605 -0.0135568 0)
(31.7258 -0.015348 0)
(31.7978 -0.0170862 0)
(31.8715 -0.0194349 0)
(31.9554 -0.021448 0)
(32.0374 -0.0246402 0)
(32.1375 -0.0269703 0)
(32.2274 -0.0315302 0)
(32.3518 -0.0343929 0)
(32.4471 -0.0420727 0)
(32.6161 -0.044556 0)
(32.7019 -0.0655882 0)
(32.973 -0.0544735 0)
(33.0123 -0.146975 0)
(33.5031 -0.095711 0)
(33.4944 -0.49274 0)
(34.9062 -0.0243219 0)
(37.2644 -0.00874049 0)
(38.5645 0.00106767 0)
(38.6711 0.00617057 0)
(38.6854 0.00683997 0)
(38.4171 0.00732916 0)
(38.1379 0.00693117 0)
(37.8018 0.00667811 0)
(37.4713 0.00626719 0)
(37.1425 0.00591936 0)
(36.8293 0.00557004 0)
(36.5318 0.00525731 0)
(36.2529 0.00497109 0)
(35.9916 0.0047131 0)
(35.7484 0.0044718 0)
(35.5218 0.00426076 0)
(35.3109 0.00406577 0)
(35.1147 0.00388509 0)
(34.9323 0.00372338 0)
(34.7622 0.00357613 0)
(34.6038 0.00343983 0)
(34.4559 0.00331408 0)
(34.3179 0.00319913 0)
(34.1889 0.00309435 0)
(34.0681 0.00299611 0)
(33.955 0.00290562 0)
(33.8489 0.00282235 0)
(33.7493 0.002744 0)
(33.6557 0.00267182 0)
(33.5677 0.00260482 0)
(33.4848 0.0025422 0)
(33.4067 0.00248311 0)
(33.333 0.00242783 0)
(33.2635 0.00237626 0)
(33.1978 0.00232773 0)
(33.1356 0.00228145 0)
(33.0769 0.00223748 0)
(33.0213 0.00219542 0)
(32.9687 0.00215485 0)
(32.9189 0.00211501 0)
(32.8717 0.00207545 0)
(32.8271 0.00203529 0)
(32.7849 0.00199379 0)
(32.745 0.00194997 0)
(32.7074 0.00190202 0)
(32.6721 0.00184916 0)
(32.639 0.00178886 0)
(32.6082 0.00171934 0)
(32.5796 0.00163731 0)
(32.5534 0.00154047 0)
(32.5298 0.00142418 0)
(32.5087 0.00128486 0)
(32.4904 0.00111702 0)
(32.4752 0.00091409 0)
(32.4632 0.000671509 0)
(32.4548 0.000377775 0)
(32.4504 2.96213e-05 0)
(32.4502 -0.000391984 0)
(32.455 -0.000887278 0)
(32.465 -0.00148644 0)
(32.4814 -0.00219432 0)
(32.5042 -0.00303823 0)
(32.5351 -0.00404338 0)
(32.5677 -0.00507755 0)
(32.5978 -0.00600229 0)
(32.6313 -0.00700884 0)
(32.6686 -0.00809925 0)
(32.7095 -0.00933005 0)
(32.7544 -0.0106234 0)
(32.8028 -0.0121147 0)
(32.8556 -0.0136736 0)
(32.9119 -0.0154963 0)
(32.9732 -0.0173693 0)
(33.0376 -0.0196525 0)
(33.1084 -0.0218714 0)
(33.1811 -0.0248467 0)
(33.2632 -0.0274153 0)
(33.3442 -0.0314376 0)
(33.4417 -0.0344107 0)
(33.5306 -0.040138 0)
(33.6513 -0.0437657 0)
(33.7454 -0.0532998 0)
(33.908 -0.0567805 0)
(33.9956 -0.0809081 0)
(34.2466 -0.0734135 0)
(34.307 -0.166682 0)
(34.7168 -0.140616 0)
(34.7528 -0.490282 0)
(35.2661 -0.036848 0)
(37.6915 -0.0145414 0)
(39.0774 -0.00132295 0)
(39.2849 0.00576641 0)
(39.4024 0.00710413 0)
(39.2309 0.00813344 0)
(39.037 0.00793094 0)
(38.7738 0.0078397 0)
(38.5033 0.00748873 0)
(38.2232 0.00717458 0)
(37.9487 0.00682624 0)
(37.6818 0.00650059 0)
(37.4269 0.0061906 0)
(37.1844 0.0059033 0)
(36.9557 0.00562847 0)
(36.7404 0.00538376 0)
(36.5382 0.00515413 0)
(36.3487 0.00493907 0)
(36.1712 0.00474471 0)
(36.0049 0.00456602 0)
(35.8493 0.00439944 0)
(35.7035 0.00424508 0)
(35.5668 0.00410318 0)
(35.4387 0.00397318 0)
(35.3184 0.00385087 0)
(35.2055 0.00373779 0)
(35.0993 0.00363344 0)
(34.9995 0.0035351 0)
(34.9055 0.00344424 0)
(34.817 0.00335969 0)
(34.7335 0.00328052 0)
(34.6547 0.00320574 0)
(34.5803 0.0031357 0)
(34.5101 0.00307021 0)
(34.4436 0.00300851 0)
(34.3807 0.00294963 0)
(34.3212 0.00289365 0)
(34.2649 0.00284005 0)
(34.2115 0.00278829 0)
(34.1609 0.00273744 0)
(34.113 0.00268693 0)
(34.0676 0.00263564 0)
(34.0247 0.00258261 0)
(33.9841 0.00252661 0)
(33.9459 0.0024654 0)
(33.9099 0.00239789 0)
(33.8761 0.0023209 0)
(33.8446 0.00223214 0)
(33.8155 0.00212753 0)
(33.7887 0.00200398 0)
(33.7644 0.00185579 0)
(33.7427 0.00167819 0)
(33.7239 0.00146434 0)
(33.7081 0.00120597 0)
(33.6955 0.000897233 0)
(33.6865 0.00052335 0)
(33.6815 8.05542e-05 0)
(33.6807 -0.000455668 0)
(33.6849 -0.00108502 0)
(33.6942 -0.00184622 0)
(33.7099 -0.00274494 0)
(33.7319 -0.00381653 0)
(33.762 -0.00509349 0)
(33.7938 -0.00640196 0)
(33.8233 -0.00757175 0)
(33.8561 -0.00884394 0)
(33.8926 -0.0102221 0)
(33.9328 -0.011775 0)
(33.9768 -0.0134091 0)
(34.0244 -0.0152869 0)
(34.0762 -0.0172529 0)
(34.1314 -0.0195447 0)
(34.1915 -0.0219036 0)
(34.2546 -0.0247644 0)
(34.3239 -0.0275586 0)
(34.3953 -0.0312623 0)
(34.4754 -0.0345033 0)
(34.555 -0.0394784 0)
(34.6496 -0.0432402 0)
(34.7372 -0.0502953 0)
(34.8537 -0.0548911 0)
(34.947 -0.0664389 0)
(35.1018 -0.0714275 0)
(35.1919 -0.0983381 0)
(35.4227 -0.0964085 0)
(35.4975 -0.187724 0)
(35.8465 -0.188808 0)
(35.8897 -0.486667 0)
(35.6071 -0.0524548 0)
(38.0752 -0.0217935 0)
(39.5194 -0.00451901 0)
(39.8009 0.00492243 0)
(39.997 0.00705244 0)
(39.9039 0.00874203 0)
(39.7835 0.00879893 0)
(39.5875 0.00893518 0)
(39.3763 0.00869318 0)
(39.1477 0.00845682 0)
(38.9169 0.00814493 0)
(38.6868 0.00783532 0)
(38.4623 0.00752444 0)
(38.245 0.00722543 0)
(38.037 0.00693051 0)
(37.8386 0.00666205 0)
(37.6502 0.00640468 0)
(37.472 0.00616007 0)
(37.3037 0.00593621 0)
(37.1449 0.0057277 0)
(36.9953 0.00553137 0)
(36.8543 0.00534833 0)
(36.7216 0.00517877 0)
(36.5966 0.00502236 0)
(36.4788 0.00487443 0)
(36.3679 0.00473698 0)
(36.2634 0.00460964 0)
(36.1647 0.00448932 0)
(36.0717 0.00437772 0)
(35.9838 0.00427354 0)
(35.9008 0.00417569 0)
(35.8224 0.00408314 0)
(35.7482 0.00399627 0)
(35.6779 0.00391481 0)
(35.6115 0.00383796 0)
(35.5485 0.00376455 0)
(35.4888 0.00369463 0)
(35.4323 0.00362758 0)
(35.3786 0.00356275 0)
(35.3277 0.00349898 0)
(35.2795 0.00343558 0)
(35.2338 0.00337116 0)
(35.1906 0.00330451 0)
(35.1496 0.00323404 0)
(35.111 0.00315708 0)
(35.0746 0.00307211 0)
(35.0405 0.0029752 0)
(35.0086 0.00286344 0)
(34.979 0.00273185 0)
(34.9518 0.00257634 0)
(34.9271 0.00238999 0)
(34.905 0.00216651 0)
(34.8858 0.00189758 0)
(34.8695 0.00157283 0)
(34.8564 0.00118488 0)
(34.8469 0.000714955 0)
(34.8413 0.000158937 0)
(34.84 -0.000514301 0)
(34.8436 -0.0013039 0)
(34.8522 -0.00225872 0)
(34.8671 -0.00338503 0)
(34.8883 -0.00472837 0)
(34.9174 -0.0063296 0)
(34.9483 -0.00796538 0)
(34.977 -0.00942647 0)
(35.009 -0.0110143 0)
(35.0447 -0.0127344 0)
(35.0839 -0.014669 0)
(35.1269 -0.0167081 0)
(35.1734 -0.0190426 0)
(35.224 -0.021492 0)
(35.2779 -0.0243356 0)
(35.3366 -0.0272721 0)
(35.3983 -0.0308092 0)
(35.4659 -0.0342899 0)
(35.5356 -0.0388377 0)
(35.6136 -0.0428919 0)
(35.6915 -0.048955 0)
(35.7831 -0.0536915 0)
(35.8692 -0.0622346 0)
(35.981 -0.0680832 0)
(36.0736 -0.0817664 0)
(36.2201 -0.0889132 0)
(36.3126 -0.118261 0)
(36.5237 -0.123607 0)
(36.6071 -0.211068 0)
(36.9073 -0.238337 0)
(36.943 -0.484238 0)
(35.9381 -0.0717385 0)
(38.429 -0.0307484 0)
(39.9111 -0.00864305 0)
(40.2462 0.00358172 0)
(40.5013 0.00664245 0)
(40.4696 0.00911995 0)
(40.4093 0.00949464 0)
(40.2712 0.00991894 0)
(40.1139 0.00982968 0)
(39.9349 0.00971316 0)
(39.7484 0.009474 0)
(39.5577 0.00921255 0)
(39.3676 0.00892863 0)
(39.1801 0.00864136 0)
(38.9978 0.00834618 0)
(38.8212 0.00807017 0)
(38.6515 0.00779789 0)
(38.4892 0.0075341 0)
(38.3344 0.00728889 0)
(38.1869 0.00705657 0)
(38.047 0.00683491 0)
(37.9142 0.00662647 0)
(37.7884 0.00643147 0)
(37.6693 0.00624996 0)
(37.5565 0.006077 0)
(37.4498 0.00591525 0)
(37.3488 0.00576459 0)
(37.2533 0.00562165 0)
(37.1628 0.00548842 0)
(37.0771 0.00536346 0)
(36.9959 0.00524562 0)
(36.919 0.00513392 0)
(36.8462 0.00502878 0)
(36.7771 0.00492978 0)
(36.7115 0.00483621 0)
(36.6493 0.00474666 0)
(36.5903 0.00466118 0)
(36.5342 0.00457901 0)
(36.481 0.00449938 0)
(36.4305 0.00442092 0)
(36.3825 0.00434277 0)
(36.337 0.00426326 0)
(36.2939 0.00418085 0)
(36.2531 0.00409357 0)
(36.2145 0.00399822 0)
(36.1781 0.00389274 0)
(36.144 0.00377242 0)
(36.112 0.00363351 0)
(36.0824 0.00347001 0)
(36.0551 0.00327657 0)
(36.0302 0.00304494 0)
(36.008 0.00276691 0)
(35.9885 0.00243247 0)
(35.9719 0.00202872 0)
(35.9586 0.00154647 0)
(35.9487 0.000962163 0)
(35.9427 0.000271404 0)
(35.9408 -0.000564679 0)
(35.9439 -0.00154498 0)
(35.9519 -0.0027299 0)
(35.9661 -0.0041264 0)
(35.9864 -0.00579263 0)
(36.0145 -0.00777905 0)
(36.0445 -0.00980377 0)
(36.0724 -0.0116097 0)