/*--------------------------------*- C++ -*----------------------------------*\
| =========                 |                                                 |
| \\      /  F ield         | OpenFOAM: The Open Source CFD Toolbox           |
|  \\    /   O peration     | Version:  2306                                  |
|   \\  /    A nd           | Website:  www.openfoam.com                      |
|    \\/     M anipulation  |                                                 |
\*---------------------------------------------------------------------------*/
FoamFile
{
    version     2.0;
    format      ascii;
    arch        "LSB;label=32;scalar=64";
    class       volVectorField;
    location    "2000";
    object      wallShearStress;
}
// * * * * * * * * * * * * * * * * * * * * * * * * * * * * * * * * * * * * * //

dimensions      [0 2 -2 0 0 0 0];

internalField   uniform (0 0 0);

boundaryField
{
    inlet
    {
        type            calculated;
        value           uniform (0 0 0);
    }
    outlet
    {
        type            calculated;
        value           uniform (0 0 0);
    }
    lowerWallStartup
    {
        type            symmetryPlane;
    }
    upperWallStartup
    {
        type            symmetryPlane;
    }
    upperWall
    {
        type            calculated;
        value           nonuniform List<vector> 
218
(
(-10.6639 0.00309879 0)
(-7.21073 0.000819136 0)
(-6.46106 0.000165111 0)
(-5.94958 8.22911e-05 0)
(-5.65342 5.69688e-05 0)
(-5.40192 4.41009e-05 0)
(-5.21856 3.64486e-05 0)
(-5.06095 3.13918e-05 0)
(-4.93126 2.76005e-05 0)
(-4.81916 2.47958e-05 0)
(-4.72163 2.254e-05 0)
(-4.63612 2.06794e-05 0)
(-4.56004 1.91574e-05 0)
(-4.49227 1.78239e-05 0)
(-4.43125 1.67251e-05 0)
(-4.37616 1.57058e-05 0)
(-4.32623 1.48701e-05 0)
(-4.2807 1.40709e-05 0)
(-4.23911 1.34184e-05 0)
(-4.20099 1.27573e-05 0)
(-4.16592 1.22594e-05 0)
(-4.13358 1.16943e-05 0)
(-4.1037 1.1296e-05 0)
(-4.07604 1.08019e-05 0)
(-4.05036 1.0501e-05 0)
(-4.02647 1.0061e-05 0)
(-4.00421 9.82343e-06 0)
(-3.98344 9.42313e-06 0)
(-3.96404 9.2425e-06 0)
(-3.94587 8.87825e-06 0)
(-3.92884 8.74008e-06 0)
(-3.91286 8.41228e-06 0)
(-3.89783 8.30226e-06 0)
(-3.8837 8.00583e-06 0)
(-3.87038 7.9136e-06 0)
(-3.85783 7.6561e-06 0)
(-3.84597 7.56983e-06 0)
(-3.83477 7.359e-06 0)
(-3.82415 7.26755e-06 0)
(-3.81411 7.11587e-06 0)
(-3.80455 7.00891e-06 0)
(-3.79549 6.93299e-06 0)
(-3.7868 6.80455e-06 0)
(-3.77856 6.82513e-06 0)
(-3.77059 6.67377e-06 0)
(-3.76298 6.8214e-06 0)
(-3.75555 6.6531e-06 0)
(-3.74841 6.96829e-06 0)
(-3.74133 6.79526e-06 0)
(-3.73444 7.33167e-06 0)
(-3.72749 7.16805e-06 0)
(-3.72063 7.98159e-06 0)
(-3.71357 7.85654e-06 0)
(-3.70648 8.9793e-06 0)
(-3.69904 8.99331e-06 0)
(-3.69145 1.04003e-05 0)
(-3.68337 1.08363e-05 0)
(-3.67499 1.22994e-05 0)
(-3.666 1.34472e-05 0)
(-3.65658 1.48904e-05 0)
(-3.64645 1.66355e-05 0)
(-3.63581 1.83225e-05 0)
(-3.62435 2.07686e-05 0)
(-3.61422 2.19083e-05 0)
(-3.60591 2.27593e-05 0)
(-3.59767 2.40819e-05 0)
(-3.58933 2.55481e-05 0)
(-3.581 2.71833e-05 0)
(-3.57264 2.84801e-05 0)
(-3.56432 2.98627e-05 0)
(-3.55603 3.11097e-05 0)
(-3.54783 3.21857e-05 0)
(-3.53969 3.33939e-05 0)
(-3.53169 3.44238e-05 0)
(-3.52378 3.53726e-05 0)
(-3.51607 3.6723e-05 0)
(-3.50842 3.69935e-05 0)
(-3.50108 3.89066e-05 0)
(-3.49373 3.84158e-05 0)
(-3.48681 4.02927e-05 0)
(-3.47974 4.03433e-05 0)
(-3.47335 4.10528e-05 0)
(-3.46644 4.2762e-05 0)
(-3.46085 4.15939e-05 0)
(-3.45372 4.53049e-05 0)
(-3.44959 4.15772e-05 0)
(-3.44104 4.80799e-05 0)
(-3.44022 6.31542e-05 0)
(-3.43175 5.79325e-05 -1.76409e-20)
(-3.42481 4.50359e-05 0)
(-3.41956 4.53525e-05 1.74447e-20)
(-3.41402 5.23234e-05 -1.73473e-20)
(-3.4082 5.14416e-05 0)
(-3.40244 5.14201e-05 -1.71458e-20)
(-3.39662 5.06577e-05 0)
(-3.39083 5.14761e-05 0)
(-3.38492 5.06412e-05 0)
(-3.37904 5.1558e-05 0)
(-3.37305 5.06142e-05 1.66087e-20)
(-3.36709 5.22092e-05 0)
(-3.36103 5.04568e-05 -1.63807e-20)
(-3.355 5.27139e-05 0)
(-3.34887 5.09127e-05 -1.61455e-20)
(-3.34278 5.29544e-05 1.60254e-20)
(-3.33657 5.12744e-05 0)
(-3.33041 5.30169e-05 1.57799e-20)
(-3.32412 5.16474e-05 0)
(-3.31787 5.23399e-05 -1.55276e-20)
(-3.31151 5.14333e-05 0)
(-3.30519 5.19293e-05 0)
(-3.29877 5.11045e-05 0)
(-3.29241 5.15667e-05 0)
(-3.28596 5.10839e-05 0)
(-3.27956 5.13874e-05 0)
(-3.27308 5.09236e-05 0)
(-3.26666 5.1748e-05 1.44534e-20)
(-3.26014 5.00221e-05 -1.43124e-20)
(-3.25369 5.13629e-05 1.41705e-20)
(-3.24714 4.94536e-05 -1.40268e-20)
(-3.24067 5.08261e-05 0)
(-3.23412 4.885e-05 -1.3736e-20)
(-3.22765 5.03022e-05 0)
(-3.2211 4.85357e-05 -1.34405e-20)
(-3.21466 4.97919e-05 0)
(-3.20813 4.86327e-05 0)
(-3.20171 4.85545e-05 -1.29898e-20)
(-3.1952 4.79549e-05 0)
(-3.1888 4.75909e-05 -1.26845e-20)
(-3.1823 4.68388e-05 0)
(-3.17594 4.62922e-05 -1.23758e-20)
(-3.16948 4.56025e-05 0)
(-3.16317 4.49509e-05 -1.2064e-20)
(-3.15676 4.39806e-05 0)
(-3.1505 4.41322e-05 0)
(-3.14415 4.18885e-05 -1.15916e-20)
(-3.13795 4.2808e-05 0)
(-3.13167 4.04079e-05 -1.12742e-20)
(-3.12554 4.14377e-05 0)
(-3.11933 3.90432e-05 -1.09551e-20)
(-3.1133 3.99668e-05 0)
(-3.10719 3.80447e-05 -1.06349e-20)
(-3.10125 3.85741e-05 0)
(-3.09524 3.76838e-05 0)
(-3.08941 3.67363e-05 -1.01539e-20)
(-3.0835 3.6845e-05 0)
(-3.07778 3.53484e-05 -9.8331e-21)
(-3.07199 3.55991e-05 0)
(-3.06638 3.38892e-05 -9.51298e-21)
(-3.06071 3.43098e-05 0)
(-3.05523 3.25499e-05 0)
(-3.04967 3.2861e-05 -9.03475e-21)
(-3.04432 3.17953e-05 -8.87642e-21)
(-3.03889 3.09527e-05 0)
(-3.03369 3.0385e-05 -8.56076e-21)
(-3.02839 2.96874e-05 0)
(-3.02332 2.89697e-05 -8.24732e-21)
(-3.01816 2.84361e-05 0)
(-3.01325 2.76147e-05 -7.93647e-21)
(-3.00823 2.73662e-05 0)
(-3.00348 2.60977e-05 -7.62864e-21)
(-2.99859 2.65248e-05 -7.47566e-21)
(-2.994 2.39786e-05 0)
(-2.98924 2.51219e-05 -7.17289e-21)
(-2.98481 2.23377e-05 0)
(-2.98019 2.36207e-05 -6.87381e-21)
(-2.97593 2.08946e-05 0)
(-2.97146 2.21441e-05 0)
(-2.96738 2.00834e-05 -6.43326e-21)
(-2.96305 2.03186e-05 6.28826e-21)
(-2.95914 1.87453e-05 -6.14498e-21)
(-2.95494 1.8991e-05 6.00227e-21)
(-2.95121 1.72358e-05 0)
(-2.94713 1.76747e-05 0)
(-2.9436 1.57985e-05 0)
(-2.93964 1.62212e-05 5.4448e-21)
(-2.93632 1.4461e-05 0)
(-2.93246 1.54785e-05 0)
(-2.92936 1.26443e-05 0)
(-2.92556 1.41913e-05 0)
(-2.92275 1.14894e-05 0)
(-2.9189 1.25226e-05 0)
(-2.91654 1.03241e-05 0)
(-2.91235 1.06688e-05 -4.39426e-21)
(-2.91101 9.79535e-06 4.26753e-21)
(-2.90537 -1.49164e-06 0)
(-2.90447 1.78358e-05 0)
(-2.9026 1.81648e-05 -1.03804e-21)
(-2.89948 1.83552e-05 8.77769e-22)
(-2.89624 1.73781e-05 1.47613e-21)
(-2.89276 1.81329e-05 1.23327e-21)
(-2.88882 1.94022e-05 2.04447e-21)
(-2.88449 2.01244e-05 1.67846e-21)
(-2.87972 2.19298e-05 1.36166e-21)
(-2.87459 2.36316e-05 0)
(-2.86904 2.54782e-05 1.70654e-21)
(-2.86324 2.90129e-05 0)
(-2.85716 3.21256e-05 -1.92533e-21)
(-2.85107 3.72869e-05 0)
(-2.84496 4.19809e-05 0)
(-2.83926 4.81062e-05 0)
(-2.83395 5.51065e-05 0)
(-2.82961 6.28552e-05 0)
(-2.8262 6.92125e-05 0)
(-2.82424 7.53295e-05 -3.1268e-21)
(-2.82374 7.81595e-05 0)
(-2.82474 7.81603e-05 8.11876e-21)
(-2.82767 7.08704e-05 -8.24301e-21)
(-2.831 6.12427e-05 7.85931e-21)
(-2.83719 3.31598e-05 0)
(-2.84073 1.38295e-05 1.27994e-20)
(-2.84999 -5.81752e-05 0)
(-2.85047 -6.61176e-05 0)
(-2.86414 -0.000261826 0)
(-2.85717 -0.000175782 0)
(-2.88236 -0.00077583 0)
(-2.85526 -0.000242267 0)
(-2.94274 -0.00278866 -3.80655e-20)
(-2.68995 -0.0022894 0)
)
;
    }
    lowerWall
    {
        type            calculated;
        value           nonuniform List<vector> 
266
(
(-10.9357 -0.00322562 0)
(-7.29841 -0.00089552 0)
(-6.51482 -0.000178539 0)
(-5.98812 -8.74218e-05 0)
(-5.68313 -5.98977e-05 0)
(-5.42627 -4.59928e-05 0)
(-5.23912 -3.78596e-05 0)
(-5.07887 -3.24716e-05 0)
(-4.94726 -2.85328e-05 0)
(-4.83314 -2.55773e-05 0)
(-4.73462 -2.32059e-05 0)
(-4.64769 -2.12883e-05 0)
(-4.57093 -1.96938e-05 0)
(-4.50208 -1.83504e-05 0)
(-4.44045 -1.71558e-05 0)
(-4.38476 -1.61641e-05 0)
(-4.33417 -1.52703e-05 0)
(-4.28817 -1.44681e-05 0)
(-4.24614 -1.3768e-05 0)
(-4.20759 -1.31431e-05 0)
(-4.17214 -1.25719e-05 0)
(-4.13946 -1.20523e-05 0)
(-4.10929 -1.1584e-05 0)
(-4.08133 -1.1161e-05 0)
(-4.05537 -1.07659e-05 0)
(-4.03125 -1.04059e-05 0)
(-4.00877 -1.00759e-05 0)
(-3.9878 -9.76565e-06 0)
(-3.9682 -9.48229e-06 0)
(-3.94985 -9.2196e-06 0)
(-3.93266 -8.97446e-06 0)
(-3.91652 -8.7428e-06 0)
(-3.90137 -8.52717e-06 0)
(-3.88711 -8.32564e-06 0)
(-3.87369 -8.13529e-06 0)
(-3.86103 -7.95249e-06 0)
(-3.84911 -7.77869e-06 0)
(-3.83785 -7.6115e-06 0)
(-3.82722 -7.44942e-06 0)
(-3.81718 -7.28872e-06 0)
(-3.80771 -7.12863e-06 0)
(-3.79876 -6.96441e-06 0)
(-3.79033 -6.79326e-06 0)
(-3.78239 -6.61174e-06 0)
(-3.77493 -6.41082e-06 0)
(-3.76795 -6.18831e-06 0)
(-3.76144 -5.93163e-06 0)
(-3.75542 -5.63565e-06 0)
(-3.74988 -5.28479e-06 0)
(-3.74487 -4.87049e-06 0)
(-3.7404 -4.36933e-06 0)
(-3.73651 -3.7526e-06 0)
(-3.73324 -3.0012e-06 0)
(-3.73066 -2.02422e-06 0)
(-3.72882 -8.93325e-07 0)
(-3.7278 5.94599e-07 0)
(-3.72769 2.16556e-06 0)
(-3.72859 4.24759e-06 0)
(-3.73069 6.35756e-06 0)
(-3.73404 8.97543e-06 0)
(-3.73891 1.19215e-05 0)
(-3.74538 1.53651e-05 0)
(-3.7538 1.92904e-05 0)
(-3.7625 2.62009e-05 0)
(-3.77049 3.04099e-05 0)
(-3.77944 3.57669e-05 0)
(-3.78949 3.9165e-05 0)
(-3.80051 4.55943e-05 0)
(-3.81261 4.98169e-05 0)
(-3.82581 5.83003e-05 0)
(-3.84022 6.31068e-05 0)
(-3.85584 7.28848e-05 0)
(-3.87282 7.90061e-05 0)
(-3.89112 9.08967e-05 0)
(-3.9111 9.96612e-05 0)
(-3.93248 0.000114348 0)
(-3.95651 0.000126418 0)
(-3.98156 0.000140611 0)
(-4.01201 0.000154152 0)
(-4.04125 0.000165877 0)
(-4.08297 0.000181673 0)
(-4.11664 0.000223658 0)
(-4.18038 0.000233794 0)
(-4.21534 0.000576989 0)
(-4.34927 0.000269646 0)
(-4.31957 0.00362441 0)
(-4.93486 -0.00608854 0)
(-3.73267 0.0708226 -0)
(-0.290988 -4.1298 0)
(5.63183e-05 -0.0147794 -0)
(-0.00245826 -0.00814828 2.82384e-23)
(-0.00310629 -0.00720842 -2.9805e-23)
(-0.00377302 -0.00683371 0)
(-0.00517596 -0.00658799 0)
(-0.00623307 -0.00639945 0)
(-0.00746531 -0.00617881 0)
(-0.00887873 -0.00583338 0)
(-0.0105202 -0.00524576 -3.06452e-21)
(-0.0124819 -0.00422824 4.06548e-21)
(-0.0147697 -0.00246241 -1.14267e-20)
(-0.0172482 0.000619261 1.68753e-20)
(-0.0196784 0.00607434 -0)
(-0.020823 0.0144445 9.27533e-20)
(-0.0181251 0.0221099 -1.4199e-19)
(-0.0134544 0.0264283 0)
(-0.00933006 0.0309891 0)
(-0.00399478 0.0364347 0)
(0.00305156 0.0401403 3.73913e-19)
(0.0113488 0.0399688 -3.38298e-19)
(0.0198851 0.034087 6.54137e-19)
(0.0276793 0.0212658 -7.40613e-19)
(0.0335511 0.00248509 0)
(0.0332502 -0.0194277 1.32885e-18)
(0.0295468 -0.0380988 -9.28062e-19)
(0.0242497 -0.0535772 0)
(0.0173624 -0.0657222 0)
(0.00827056 -0.0728898 0)
(-0.00181007 -0.0756864 0)
(-0.0119002 -0.0742534 0)
(-0.0199479 -0.0669821 0)
(-0.0220368 -0.0497044 -9.38197e-19)
(-0.00524236 -0.015516 7.88247e-21)
(0.0270233 -0.0363327 1.02944e-18)
(0.00913687 -0.0910975 0)
(-0.0151518 -0.0933043 0)
(-0.0256987 -0.0849176 0)
(-0.048739 -0.126627 0)
(-0.094134 -0.192946 0)
(-0.147193 -0.236524 2.47921e-19)
(-0.197832 -0.256001 -2.13487e-19)
(-0.245233 -0.272115 -0)
(-0.291133 -0.298948 0)
(-0.338659 -0.343244 0)
(-0.391065 -0.407669 -1.16884e-19)
(-0.431442 -0.49657 1.30554e-19)
(-0.462109 -0.838573 -0)
(-1.40313 4.52951 0)
(-2.20061 -0.00112109 -9.51837e-21)
(-0.0907679 -0.000119127 0)
(-0.0506626 0.000157716 -4.20186e-22)
(-0.0251173 4.83189e-05 0)
(-0.0376587 -6.74073e-05 0)
(-0.072014 -0.000127551 0)
(-0.0916664 -0.000116773 -0)
(-0.10617 -8.74962e-05 0)
(-0.117561 8.40086e-05 -4.22592e-22)
(-0.0972518 0.000491405 0)
(-0.005435 0.000672796 0)
(0.139413 -0.00125699 0)
(0.27572 -0.00124809 0)
(0.403108 -0.000646438 0)
(0.512388 -0.000573204 0)
(0.60949 -0.000529379 0)
(0.698158 -0.00051187 0)
(0.781203 -0.000502153 0)
(0.859934 -0.000496008 0)
(0.935103 -0.000486219 3.07755e-22)
(1.00724 -0.000478676 0)
(1.07688 -0.000472126 3.05639e-22)
(1.14435 -0.000474045 0)
(1.20993 -0.000477573 3.01916e-22)
(1.27347 -0.000486136 0)
(1.33473 -0.000489846 2.96489e-22)
(1.39319 -0.000490765 0)
(1.44851 -0.000483478 0)
(1.50032 -0.000472754 0)
(1.54858 -0.000456726 2.80058e-22)
(1.5932 -0.000442967 2.74783e-22)
(1.63429 -0.000427509 2.69061e-22)
(1.67182 -0.000417974 2.62891e-22)
(1.70564 -0.000406949 2.56276e-22)
(1.73546 -0.000400115 0)
(1.76085 -0.000389586 -0)
(1.78128 -0.000379108 2.33676e-22)
(1.79619 -0.00036326 2.25209e-22)
(1.8051 -0.000344221 2.16283e-22)
(1.80751 -0.000320233 2.06913e-22)
(1.8031 -0.000291911 1.97128e-22)
(1.79157 -0.000260308 1.86959e-22)
(1.77275 -0.000225024 0)
(1.74651 -0.000187751 1.65646e-22)
(1.71283 -0.000148026 1.54597e-22)
(1.67172 -0.000106819 1.43359e-22)
(1.62328 -6.43752e-05 1.31985e-22)
(1.56767 -2.08643e-05 1.20535e-22)
(1.50516 2.25752e-05 1.09065e-22)
(1.43601 6.65982e-05 0)
(1.36065 0.000109255 8.62985e-23)
(1.27932 0.000151851 7.51086e-23)
(1.19285 0.000191352 6.4125e-23)
(1.10098 0.000230243 5.33744e-23)
(1.00586 0.000265191 4.29438e-23)
(0.904476 0.000303819 3.27785e-23)
(0.802387 0.00315087 0)
(0.749322 0.000673962 1.98763e-23)
(0.589924 -0.00243412 0)
(0.479075 0.000390388 -0)
(0.371855 0.000417719 -0)
(0.260509 0.00103778 1.93913e-23)
(0.162584 0.00113635 0)
(0.0452957 -0.00152565 -0)
(-0.0121231 -6.73793e-05 0)
(-0.17339 0.000744699 -0)
(-0.277971 0.000474414 0)
(-0.380878 0.000474858 -0)
(-0.480876 0.000472689 5.9271e-23)
(-0.578271 0.000468925 0)
(-0.672598 0.000462978 0)
(-0.763869 0.00045587 -0)
(-0.851904 0.000447407 7.25354e-23)
(-0.936684 0.000437816 0)
(-1.01817 0.000427873 0)
(-1.09635 0.00041656 -0)
(-1.17129 0.000405577 0)
(-1.24301 0.000393261 -0)
(-1.31164 0.000381664 -0)
(-1.37718 0.000368974 8.35947e-23)
(-1.43982 0.000357445 0)
(-1.49949 0.000344727 -0)
(-1.55652 0.000333638 8.50183e-23)
(-1.61066 0.000320959 -0)
(-1.66256 0.000310072 8.52035e-23)
(-1.71129 0.000297351 0)
(-1.75882 0.000287444 0)
(-1.80183 0.00027425 -8.4572e-23)
(-1.84643 0.000266847 -0)
(-1.88242 0.00025067 8.36859e-23)
(-1.92657 0.000252145 0)
(-1.95377 0.00022073 -0)
(-1.99944 0.000248457 0)
(-2.01711 0.000177864 0)
(-2.06533 0.000274444 -0)
(-2.0777 0.000115377 7.93138e-23)
(-2.10425 0.000252533 0)
(-2.13973 0.000134164 -0)
(-2.15661 0.00016751 9.18005e-21)
(-2.18952 0.000154696 1.57722e-20)
(-2.21722 0.000149868 0)
(-2.25012 0.000146232 0)
(-2.2832 0.000143599 0)
(-2.31852 0.000143261 -0)
(-2.35469 0.000144314 0)
(-2.39181 0.000147476 -2.40831e-20)
(-2.42906 0.000152159 0)
(-2.46604 0.000158647 -3.36209e-20)
(-2.5019 0.000166079 2.78179e-20)
(-2.53634 0.000174311 0)
(-2.56826 0.000181604 0)
(-2.59783 0.000187874 0)
(-2.6236 0.000190103 4.86566e-20)
(-2.64667 0.000189875 -3.90062e-20)
(-2.66461 0.000182522 0)
(-2.68046 0.000174426 4.95266e-20)
(-2.68947 0.00015673 0)
(-2.69854 0.000146181 6.29167e-20)
(-2.69806 0.000121796 0)
(-2.70266 0.000121895 0)
(-2.69339 9.39956e-05 0)
(-2.69892 0.000123605 0)
(-2.68366 8.3465e-05 0)
(-2.69648 0.000165345 1.43831e-19)
(-2.67747 8.42048e-05 -7.63125e-20)
(-2.69548 0.000257087 0)
(-2.69044 0.000118224 2.831e-20)
(-2.70995 0.000415171 0)
(-2.82785 9.93917e-05 0)
)
;
    }
    front
    {
        type            empty;
    }
    back
    {
        type            empty;
    }
}


// ************************************************************************* //
