/*--------------------------------*- C++ -*----------------------------------*\
| =========                 |                                                 |
| \\      /  F ield         | OpenFOAM: The Open Source CFD Toolbox           |
|  \\    /   O peration     | Version:  2306                                  |
|   \\  /    A nd           | Website:  www.openfoam.com                      |
|    \\/     M anipulation  |                                                 |
\*---------------------------------------------------------------------------*/
FoamFile
{
    version     2.0;
    format      ascii;
    arch        "LSB;label=32;scalar=64";
    class       volScalarField;
    location    "2000";
    object      yPlus;
}
// * * * * * * * * * * * * * * * * * * * * * * * * * * * * * * * * * * * * * //

dimensions      [0 0 0 0 0 0 0];

internalField   uniform 0;

boundaryField
{
    inlet
    {
        type            calculated;
        value           uniform 0;
    }
    outlet
    {
        type            calculated;
        value           uniform 0;
    }
    lowerWallStartup
    {
        type            symmetryPlane;
    }
    upperWallStartup
    {
        type            symmetryPlane;
    }
    upperWall
    {
        type            calculated;
        value           nonuniform List<scalar> 
218
(
2.6904
2.21232
2.09416
2.00956
1.95891
1.91484
1.88206
1.85342
1.82952
1.8086
1.79021
1.77393
1.75931
1.74619
1.73429
1.72347
1.71361
1.70457
1.69627
1.68863
1.68157
1.67503
1.66896
1.66333
1.65808
1.65318
1.6486
1.64432
1.64031
1.63655
1.63302
1.62969
1.62656
1.62361
1.62082
1.61819
1.6157
1.61335
1.61111
1.60899
1.60697
1.60506
1.60322
1.60148
1.59979
1.59818
1.59659
1.59508
1.59357
1.5921
1.59062
1.58916
1.58765
1.58613
1.58454
1.58291
1.58118
1.57938
1.57744
1.57542
1.57323
1.57094
1.56846
1.56626
1.56446
1.56267
1.56086
1.55905
1.55723
1.55541
1.55361
1.55181
1.55003
1.54828
1.54654
1.54485
1.54317
1.54156
1.53994
1.53841
1.53685
1.53544
1.53391
1.53267
1.53109
1.53018
1.52828
1.5281
1.52446
1.51943
1.51477
1.51005
1.50528
1.50052
1.49575
1.491
1.48622
1.48146
1.47667
1.4719
1.46712
1.46234
1.45754
1.45276
1.44796
1.44317
1.43837
1.43358
1.42876
1.42396
1.41915
1.41435
1.40954
1.40475
1.39994
1.39515
1.39035
1.38557
1.38076
1.37599
1.3712
1.36643
1.36165
1.3569
1.35214
1.34741
1.34266
1.33794
1.33321
1.32851
1.32379
1.31911
1.31442
1.30976
1.30509
1.30046
1.29581
1.2912
1.28658
1.282
1.27741
1.27287
1.26831
1.2638
1.25927
1.25478
1.25029
1.24584
1.24138
1.23697
1.23254
1.22817
1.22378
1.21944
1.21509
1.21078
1.20647
1.20221
1.19793
1.19371
1.18947
1.18529
1.18108
1.17694
1.17276
1.16867
1.16453
1.16048
1.15638
1.15236
1.1483
1.14433
1.14029
1.13637
1.13236
1.12849
1.12451
1.12069
1.11673
1.11296
1.109
1.10532
1.1013
1.09783
1.09354
1.09124
1.08976
1.08789
1.08581
1.08346
1.08079
1.07776
1.07432
1.07045
1.06609
1.0612
1.0557
1.04958
1.04274
1.03515
1.02669
1.01734
1.00692
0.995366
0.982452
0.967953
0.951674
0.93305
0.91214
0.887662
0.860495
0.827961
0.792739
0.749527
0.704643
0.646964
0.594373
0.500908
)
;
    }
    lowerWall
    {
        type            calculated;
        value           nonuniform List<scalar> 
266
(
2.8097
2.29536
2.16864
2.07913
2.02549
1.97919
1.94476
1.91479
1.88981
1.86789
1.84876
1.83171
1.81652
1.80278
1.7904
1.77914
1.76885
1.75943
1.75079
1.74282
1.73546
1.72866
1.72235
1.71647
1.71101
1.70591
1.70115
1.69669
1.69252
1.6886
1.68492
1.68146
1.67821
1.67514
1.67224
1.66951
1.66693
1.66449
1.66218
1.66
1.65794
1.65599
1.65415
1.65242
1.65079
1.64926
1.64784
1.64652
1.6453
1.6442
1.64322
1.64237
1.64165
1.64108
1.64068
1.64045
1.64043
1.64063
1.64109
1.64182
1.64289
1.64431
1.64616
1.64807
1.64982
1.65178
1.65397
1.65637
1.65901
1.66187
1.665
1.66838
1.67205
1.676
1.6803
1.68488
1.69002
1.69537
1.70184
1.70803
1.71682
1.72388
1.73718
1.74443
1.77192
1.76586
1.88747
1.64381
0.20568
0.147222
0.112059
0.378694
0.485994
0.690133
0.903617
1.13713
1.39689
1.68422
2.00422
2.36417
2.7684
3.22028
3.75441
4.38276
4.98694
5.52193
6.01597
6.37789
6.46048
5.99736
4.65047
1.40986
4.5848
6.49525
7.68298
8.35943
8.67883
8.76023
8.68393
8.4722
8.17569
7.89579
8.207
7.99061
7.50741
7.21757
6.83975
6.1049
5.08199
3.81483
1.97002
2.50193
4.02434
5.13806
6.11759
6.7212
0.178991
0.138064
0.112168
0.0837803
0.0589883
0.0722262
0.0999102
0.112694
0.121277
0.127611
0.116065
0.0279966
0.139277
0.195392
0.236244
0.266335
0.290464
0.31086
0.328813
0.344968
0.359712
0.373311
0.385981
0.39787
0.409093
0.419677
0.429632
0.438918
0.447527
0.455437
0.462682
0.469277
0.475269
0.48067
0.485485
0.489688
0.493232
0.496062
0.49811
0.499319
0.499629
0.498995
0.497373
0.494729
0.491031
0.486249
0.480356
0.473322
0.465123
0.455732
0.445119
0.433261
0.420094
0.405627
0.389675
0.372445
0.353159
0.332616
0.321996
0.285172
0.256974
0.226388
0.189478
0.149952
0.079026
0.0521741
0.154553
0.195678
0.229041
0.257345
0.282192
0.304323
0.324299
0.342461
0.35908
0.374355
0.388442
0.401481
0.413569
0.424813
0.435275
0.445043
0.45415
0.462683
0.470638
0.478138
0.485071
0.491737
0.497689
0.503787
0.508648
0.514554
0.518149
0.524144
0.52643
0.532659
0.534226
0.539368
0.54769
0.554214
0.563478
0.572865
0.583844
0.595917
0.60953
0.624703
0.641689
0.660646
0.681841
0.705519
0.732038
0.761716
0.795112
0.832612
0.875082
0.922911
0.977525
1.03911
1.11018
1.19018
1.28393
1.38895
1.51485
1.65471
1.82676
2.01554
2.25108
2.51652
2.84072
3.28061
)
;
    }
    front
    {
        type            empty;
    }
    back
    {
        type            empty;
    }
}


// ************************************************************************* //
