/*--------------------------------*- C++ -*----------------------------------*\
| =========                 |                                                 |
| \\      /  F ield         | OpenFOAM: The Open Source CFD Toolbox           |
|  \\    /   O peration     | Version:  2306                                  |
|   \\  /    A nd           | Website:  www.openfoam.com                      |
|    \\/     M anipulation  |                                                 |
\*---------------------------------------------------------------------------*/
FoamFile
{
    version     2.0;
    format      binary;
    arch        "LSB;label=32;scalar=64";
    class       volScalarField;
    location    "0.11";
    object      rho.air;
}
// * * * * * * * * * * * * * * * * * * * * * * * * * * * * * * * * * * * * * //

dimensions      [1 -3 0 0 0 0 0];

internalField   uniform 1.2;

boundaryField
{
    top
    {
        type            calculated;
        value           uniform 1.2;
    }
    bottom
    {
        type            calculated;
        value           uniform 1.2;
    }
    walls
    {
        type            calculated;
        value           uniform 1.2;
    }
    frontAndBack
    {
        type            symmetry;
    }
    procBoundary0to1
    {
        type            processor;
        value           uniform 1.2;
    }
}


// ************************************************************************* //
