# y+ ()       
# Time        	patch         	min           	max           	average       
2000          	upperWall	5.009079e-01	2.690396e+00	1.390375e+00
2000          	lowerWall	2.799660e-02	8.760225e+00	1.689621e+00
