/*--------------------------------*- C++ -*----------------------------------*\
| =========                 |                                                 |
| \\      /  F ield         | OpenFOAM: The Open Source CFD Toolbox           |
|  \\    /   O peration     | Version:  2306                                  |
|   \\  /    A nd           | Website:  www.openfoam.com                      |
|    \\/     M anipulation  |                                                 |
\*---------------------------------------------------------------------------*/
FoamFile
{
    version     2.0;
    format      ascii;
    arch        "LSB;label=32;scalar=64";
    class       volScalarField;
    location    "2000";
    object      cp;
}
// * * * * * * * * * * * * * * * * * * * * * * * * * * * * * * * * * * * * * //

dimensions      [0 0 0 0 0 0 0];

internalField   nonuniform List<scalar> 
20540
(
1.39192
1.39467
1.39192
1.39467
1.39192
1.39467
1.39192
1.39467
1.39192
1.39467
1.39191
1.39466
1.39191
1.39466
1.39191
1.39465
1.39191
1.39465
1.39191
1.39464
1.39191
1.39463
1.39191
1.39462
1.39191
1.39461
1.3919
1.39459
1.3919
1.39458
1.3919
1.39455
1.3919
1.39453
1.39189
1.3945
1.39189
1.39446
1.39188
1.39442
1.39187
1.39436
1.39186
1.3943
1.39185
1.39423
1.39184
1.39415
1.39183
1.39406
1.39182
1.39395
1.3918
1.39384
1.39178
1.39372
1.39177
1.3936
1.39175
1.39349
1.39174
1.39342
1.39174
1.39338
1.39174
1.39339
1.39174
1.39343
1.39175
1.39351
1.39176
1.39362
1.39178
1.39374
1.39179
1.39386
1.39181
1.39397
1.39182
1.39407
1.39183
1.39416
1.39184
1.39425
1.39185
1.39432
1.39186
1.39438
1.39187
1.39443
1.39187
1.39448
1.39188
1.39451
1.39188
1.39455
1.39189
1.39457
1.39189
1.3946
1.39189
1.39462
1.39189
1.39463
1.3919
1.39464
1.3919
1.39466
1.3919
1.39467
1.3919
1.39467
1.3919
1.39468
1.3919
1.39469
1.3919
1.39469
1.3919
1.39469
1.3919
1.3947
1.3919
1.3947
1.3919
1.3947
1.39191
1.3947
1.39191
1.3947
1.39281
1.38552
1.38012
1.37658
1.37084
1.36559
1.35863
1.3528
1.34557
1.33914
1.33145
1.3244
1.31635
1.30877
1.30044
1.29243
1.28387
1.2755
1.26677
1.25815
1.24931
1.24054
1.23166
1.22283
1.21398
1.20518
1.19642
1.18774
1.17913
1.17062
1.16221
1.15389
1.14568
1.13757
1.12957
1.12167
1.11389
1.10621
1.09865
1.0912
1.08387
1.07666
1.06956
1.06258
1.05572
1.049
1.04241
1.03599
1.02976
1.02379
1.01809
1.0127
1.00765
1.00278
0.998399
0.993724
0.990013
0.986482
0.981044
0.982361
0.976163
0.978026
0.970655
0.889182
0.861571
0.918447
1.02775
1.14381
1.13982
0.937487
0.741772
0.755835
0.871723
0.972927
1.03113
1.07295
1.13323
1.19323
1.18319
1.10983
0.982151
0.822707
0.697095
0.662593
0.676322
0.747487
0.788734
0.873252
1.39281
1.38552
1.38012
1.37658
1.37084
1.36559
1.35863
1.3528
1.34557
1.33914
1.33145
1.3244
1.31635
1.30877
1.30044
1.29243
1.28387
1.2755
1.26677
1.25815
1.24931
1.24054
1.23166
1.22283
1.21398
1.20518
1.19642
1.18774
1.17913
1.17062
1.16221
1.15389
1.14568
1.13757
1.12957
1.12167
1.11389
1.10621
1.09865
1.0912
1.08387
1.07666
1.06956
1.06258
1.05572
1.049
1.04241
1.03599
1.02976
1.02379
1.01809
1.0127
1.00765
1.00278
0.998399
0.993724
0.990013
0.986482
0.981044
0.982361
0.976162
0.978026
0.970659
0.889188
0.861572
0.918448
1.02776
1.14377
1.13977
0.937486
0.741786
0.755834
0.871689
0.972922
1.03113
1.07295
1.13321
1.19319
1.18315
1.10979
0.982141
0.822708
0.697092
0.662573
0.676311
0.747479
0.788493
0.872514
1.39281
1.38552
1.38012
1.37658
1.37084
1.36559
1.35863
1.3528
1.34557
1.33914
1.33145
1.3244
1.31635
1.30877
1.30044
1.29243
1.28387
1.2755
1.26677
1.25815
1.24931
1.24054
1.23166
1.22283
1.21398
1.20518
1.19642
1.18774
1.17913
1.17062
1.16221
1.15389
1.14568
1.13757
1.12957
1.12167
1.11389
1.10621
1.09865
1.0912
1.08387
1.07666
1.06956
1.06258
1.05572
1.049
1.04241
1.03599
1.02976
1.02379
1.01809
1.0127
1.00765
1.00278
0.998399
0.993724
0.990013
0.986482
0.981044
0.982362
0.976162
0.978026
0.970666
0.889191
0.861564
0.91844
1.02776
1.14371
1.13971
0.937454
0.741716
0.75577
0.871632
0.972918
1.03112
1.07293
1.13318
1.19314
1.18309
1.10971
0.982066
0.82256
0.696903
0.662396
0.676254
0.747443
0.788149
0.871363
1.3928
1.38552
1.38012
1.37658
1.37084
1.36559
1.35863
1.3528
1.34557
1.33914
1.33145
1.3244
1.31635
1.30877
1.30044
1.29243
1.28387
1.2755
1.26677
1.25815
1.24931
1.24054
1.23166
1.22283
1.21398
1.20518
1.19642
1.18774
1.17913
1.17062
1.16221
1.15389
1.14568
1.13757
1.12957
1.12167
1.11389
1.10621
1.09865
1.0912
1.08387
1.07666
1.06956
1.06258
1.05572
1.049
1.04241
1.03599
1.02976
1.02379
1.01809
1.0127
1.00765
1.00278
0.9984
0.993724
0.990013
0.986483
0.981044
0.982362
0.976161
0.978028
0.970672
0.889185
0.861542
0.918425
1.02776
1.14357
1.13955
0.937302
0.741461
0.755578
0.871525
0.972919
1.03111
1.07292
1.13313
1.19306
1.18294
1.10947
0.981734
0.821979
0.696201
0.661829
0.676151
0.747341
0.787615
0.869105
1.3928
1.38552
1.38012
1.37658
1.37084
1.36559
1.35863
1.3528
1.34557
1.33914
1.33145
1.3244
1.31635
1.30877
1.30044
1.29243
1.28387
1.2755
1.26677
1.25815
1.24931
1.24054
1.23166
1.22283
1.21398
1.20518
1.19642
1.18774
1.17913
1.17062
1.16221
1.15389
1.14568
1.13757
1.12957
1.12167
1.11389
1.10621
1.09865
1.0912
1.08387
1.07666
1.06956
1.06258
1.05572
1.049
1.04241
1.03599
1.02976
1.02379
1.01809
1.0127
1.00765
1.00278
0.9984
0.993724
0.990013
0.986483
0.981044
0.982362
0.976162
0.97803
0.970674
0.88916
0.861501
0.918393
1.02773
1.14329
1.1392
0.936841
0.740743
0.755166
0.871357
0.972903
1.03108
1.07289
1.13305
1.19287
1.18256
1.10886
0.980812
0.820358
0.694434
0.660873
0.675977
0.747079
0.786784
0.865479
1.3928
1.38552
1.38012
1.37658
1.37084
1.36559
1.35863
1.3528
1.34557
1.33914
1.33145
1.3244
1.31635
1.30877
1.30044
1.29243
1.28387
1.2755
1.26677
1.25815
1.24931
1.24054
1.23166
1.22283
1.21398
1.20518
1.19642
1.18774
1.17913
1.17062
1.16221
1.15389
1.14568
1.13757
1.12957
1.12167
1.11389
1.10621
1.09865
1.0912
1.08387
1.07666
1.06956
1.06258
1.05572
1.049
1.04241
1.03599
1.02976
1.02379
1.01809
1.0127
1.00765
1.00278
0.9984
0.993725
0.990013
0.986483
0.981045
0.982362
0.976163
0.978031
0.970665
0.889115
0.861448
0.918321
1.02759
1.14278
1.13856
0.935931
0.739071
0.754504
0.871135
0.97284
1.03103
1.07284
1.13291
1.19247
1.18181
1.1078
0.979103
0.817112
0.691364
0.659676
0.675666
0.746538
0.785616
0.860759
1.3928
1.38553
1.38012
1.37658
1.37084
1.36559
1.35863
1.3528
1.34557
1.33914
1.33145
1.3244
1.31635
1.30877
1.30044
1.29243
1.28387
1.2755
1.26677
1.25815
1.24931
1.24054
1.23166
1.22283
1.21398
1.20518
1.19642
1.18774
1.17913
1.17062
1.16221
1.15389
1.14568
1.13757
1.12957
1.12167
1.11389
1.10621
1.09865
1.0912
1.08387
1.07666
1.06956
1.06258
1.05572
1.049
1.04241
1.03599
1.02976
1.02379
1.01809
1.0127
1.00765
1.00278
0.9984
0.993724
0.990013
0.986482
0.981044
0.982361
0.976166
0.978031
0.970645
0.889058
0.861396
0.918196
1.02727
1.14193
1.13759
0.934564
0.73629
0.753631
0.87085
0.972702
1.03092
1.07274
1.1327
1.19168
1.18063
1.10628
0.976272
0.811833
0.687217
0.658336
0.67516
0.745795
0.784183
0.854832
1.39279
1.38553
1.38013
1.37658
1.37084
1.36559
1.35863
1.3528
1.34557
1.33914
1.33146
1.3244
1.31635
1.30877
1.30044
1.29243
1.28387
1.2755
1.26677
1.25815
1.24931
1.24054
1.23166
1.22283
1.21398
1.20518
1.19642
1.18774
1.17913
1.17062
1.16221
1.15389
1.14568
1.13757
1.12957
1.12167
1.11389
1.10621
1.09865
1.0912
1.08387
1.07666
1.06956
1.06258
1.05572
1.049
1.04241
1.03599
1.02976
1.02379
1.01809
1.0127
1.00765
1.00278
0.9984
0.993724
0.990013
0.986482
0.981044
0.982361
0.976169
0.978023
0.970614
0.888974
0.861353
0.918023
1.02668
1.14077
1.13631
0.932558
0.732467
0.752659
0.870462
0.972475
1.03075
1.07259
1.13231
1.19034
1.17904
1.10432
0.971792
0.804415
0.682302
0.656789
0.674428
0.744953
0.782368
0.847226
1.39279
1.38553
1.38013
1.37658
1.37084
1.36559
1.35863
1.3528
1.34557
1.33914
1.33146
1.3244
1.31635
1.30877
1.30044
1.29243
1.28387
1.2755
1.26677
1.25815
1.24931
1.24054
1.23166
1.22283
1.21398
1.20518
1.19642
1.18774
1.17913
1.17062
1.16221
1.15389
1.14568
1.13757
1.12957
1.12167
1.11389
1.10621
1.09865
1.0912
1.08387
1.07666
1.06956
1.06258
1.05572
1.049
1.04241
1.03599
1.02976
1.02379
1.01809
1.0127
1.00765
1.00278
0.9984
0.993723
0.990013
0.98648
0.981043
0.982361
0.97617
0.978
0.970562
0.888848
0.861353
0.917833
1.0257
1.13951
1.13479
0.929734
0.727921
0.751725
0.87001
0.972138
1.03049
1.07238
1.13155
1.18853
1.17728
1.10207
0.964823
0.794962
0.676685
0.654844
0.673381
0.743832
0.779499
0.836554
1.39278
1.38554
1.38013
1.37658
1.37084
1.36559
1.35863
1.3528
1.34557
1.33914
1.33146
1.3244
1.31635
1.30877
1.30044
1.29243
1.28387
1.2755
1.26677
1.25815
1.24931
1.24054
1.23166
1.22283
1.21398
1.20518
1.19642
1.18774
1.17913
1.17062
1.16221
1.15389
1.14568
1.13757
1.12957
1.12167
1.11389
1.10621
1.09865
1.0912
1.08387
1.07666
1.06956
1.06258
1.05572
1.049
1.04241
1.03599
1.02976
1.02379
1.01809
1.0127
1.00765
1.00278
0.998399
0.993722
0.990012
0.986476
0.981043
0.982361
0.976168
0.977963
0.970511
0.888714
0.86139
0.917712
1.02425
1.13853
1.13323
0.925699
0.722744
0.750492
0.869741
0.971712
1.03013
1.0721
1.13028
1.18679
1.17535
1.0995
0.954643
0.78371
0.670192
0.652207
0.671854
0.742403
0.775529
0.821171
1.39278
1.38555
1.38013
1.37658
1.37084
1.36559
1.35863
1.3528
1.34557
1.33914
1.33146
1.3244
1.31635
1.30877
1.30044
1.29243
1.28387
1.2755
1.26677
1.25815
1.24931
1.24054
1.23166
1.22283
1.21398
1.20518
1.19642
1.18774
1.17913
1.17062
1.16221
1.15389
1.14568
1.13757
1.12957
1.12167
1.11389
1.10621
1.09865
1.0912
1.08387
1.07666
1.06956
1.06258
1.05572
1.049
1.04241
1.03599
1.02976
1.02379
1.01809
1.0127
1.00765
1.00278
0.998397
0.99372
0.990011
0.986469
0.981042
0.982361
0.976157
0.97791
0.97044
0.888442
0.861552
0.918
1.02249
1.13816
1.13204
0.920244
0.71744
0.748502
0.869692
0.971172
1.02964
1.07179
1.12846
1.18571
1.17344
1.09604
0.940912
0.771105
0.662587
0.64861
0.669674
0.740854
0.771084
0.802407
1.39277
1.38556
1.38013
1.37659
1.37084
1.36559
1.35863
1.3528
1.34557
1.33914
1.33146
1.3244
1.31635
1.30877
1.30044
1.29243
1.28387
1.2755
1.26677
1.25815
1.24931
1.24054
1.23166
1.22283
1.21398
1.20518
1.19642
1.18774
1.17913
1.17062
1.16221
1.15389
1.14568
1.13757
1.12957
1.12167
1.11389
1.10621
1.09865
1.0912
1.08387
1.07666
1.06956
1.06258
1.05572
1.049
1.04241
1.03599
1.02976
1.02379
1.01808
1.01269
1.00765
1.00278
0.998393
0.993716
0.990007
0.986456
0.981041
0.98236
0.976131
0.977836
0.970301
0.887948
0.861735
0.91886
1.02073
1.13845
1.13117
0.913175
0.712681
0.745259
0.86935
0.970428
1.02904
1.07146
1.1266
1.18612
1.17247
1.09086
0.923918
0.757674
0.65397
0.643995
0.666638
0.73865
0.770703
0.789871
1.39277
1.38557
1.38014
1.37659
1.37084
1.36559
1.35863
1.3528
1.34557
1.33914
1.33146
1.3244
1.31635
1.30877
1.30044
1.29243
1.28387
1.2755
1.26677
1.25815
1.24931
1.24054
1.23166
1.22283
1.21398
1.20518
1.19642
1.18774
1.17913
1.17062
1.16221
1.15389
1.14568
1.13757
1.12957
1.12167
1.11389
1.10621
1.09865
1.0912
1.08387
1.07666
1.06956
1.06258
1.05572
1.049
1.04241
1.03599
1.02976
1.02379
1.01808
1.01269
1.00765
1.00277
0.998385
0.993708
0.989997
0.986433
0.981037
0.982351
0.976075
0.977718
0.970025
0.887443
0.861746
0.920321
1.01957
1.13897
1.13028
0.904734
0.708567
0.740885
0.868638
0.969453
1.02837
1.07122
1.12547
1.18731
1.17324
1.08307
0.904822
0.744109
0.644664
0.638638
0.663193
0.735763
0.773183
0.78586
1.39276
1.38558
1.38014
1.37659
1.37085
1.36559
1.35863
1.3528
1.34557
1.33914
1.33146
1.3244
1.31635
1.30877
1.30044
1.29243
1.28387
1.2755
1.26677
1.25815
1.24931
1.24054
1.23166
1.22284
1.21398
1.20518
1.19642
1.18774
1.17913
1.17062
1.16221
1.15389
1.14568
1.13757
1.12957
1.12167
1.11389
1.10621
1.09865
1.0912
1.08387
1.07666
1.06956
1.06258
1.05572
1.049
1.04241
1.03599
1.02976
1.02379
1.01808
1.01268
1.00764
1.00276
0.998367
0.993694
0.989974
0.986394
0.981025
0.982313
0.975971
0.977485
0.969521
0.887367
0.861721
0.922467
1.01964
1.13837
1.12853
0.894757
0.706575
0.736829
0.867795
0.968291
1.02774
1.07115
1.1258
1.18822
1.17461
1.07171
0.885309
0.731897
0.636171
0.633648
0.659943
0.730113
0.77803
0.798414
1.39275
1.3856
1.38015
1.37659
1.37085
1.3656
1.35863
1.3528
1.34557
1.33914
1.33146
1.3244
1.31635
1.30877
1.30044
1.29243
1.28387
1.2755
1.26677
1.25815
1.24931
1.24054
1.23166
1.22284
1.21398
1.20518
1.19642
1.18774
1.17913
1.17062
1.16221
1.15389
1.14569
1.13758
1.12957
1.12168
1.11389
1.10621
1.09865
1.0912
1.08387
1.07666
1.06956
1.06258
1.05572
1.04899
1.0424
1.03599
1.02975
1.02378
1.01807
1.01267
1.00762
1.00274
0.998335
0.993668
0.989923
0.98633
0.980992
0.982207
0.975807
0.977029
0.968671
0.888387
0.862719
0.925538
1.0211
1.13523
1.12458
0.883216
0.708117
0.735356
0.867466
0.967093
1.02719
1.07136
1.12783
1.18773
1.17485
1.05655
0.867574
0.722545
0.629327
0.629621
0.659113
0.725271
0.785417
0.830468
1.39274
1.38562
1.38015
1.3766
1.37085
1.3656
1.35863
1.35281
1.34557
1.33914
1.33146
1.3244
1.31635
1.30877
1.30044
1.29243
1.28387
1.2755
1.26677
1.25815
1.24931
1.24054
1.23166
1.22284
1.21398
1.20518
1.19642
1.18774
1.17913
1.17062
1.16221
1.15389
1.14569
1.13758
1.12957
1.12168
1.11389
1.10621
1.09865
1.09121
1.08387
1.07666
1.06956
1.06258
1.05572
1.04899
1.0424
1.03598
1.02975
1.02377
1.01805
1.01265
1.00759
1.0027
0.998279
0.993622
0.989826
0.986234
0.980913
0.981986
0.975567
0.97621
0.967435
0.891406
0.866579
0.929865
1.02318
1.12813
1.11649
0.872262
0.713978
0.739247
0.868704
0.966112
1.02662
1.07176
1.13013
1.18444
1.17107
1.03764
0.849647
0.714769
0.626141
0.625823
0.659635
0.723559
0.793136
0.853219
1.39273
1.38564
1.38016
1.3766
1.37085
1.3656
1.35863
1.35281
1.34557
1.33914
1.33146
1.3244
1.31635
1.30877
1.30045
1.29243
1.28387
1.2755
1.26677
1.25815
1.24931
1.24054
1.23166
1.22284
1.21398
1.20518
1.19643
1.18774
1.17913
1.17062
1.16221
1.15389
1.14569
1.13758
1.12958
1.12168
1.11389
1.10621
1.09865
1.09121
1.08388
1.07666
1.06956
1.06258
1.05572
1.04899
1.0424
1.03597
1.02973
1.02375
1.01803
1.01262
1.00755
1.00265
0.998194
0.99355
0.989668
0.986098
0.980766
0.981613
0.975237
0.974926
0.965974
0.897075
0.874463
0.935245
1.02431
1.1163
1.10256
0.864218
0.725631
0.750857
0.872487
0.965506
1.02561
1.07163
1.13022
1.17745
1.16006
1.01608
0.831488
0.703924
0.624606
0.621416
0.660329
0.724252
0.796979
0.852341
1.39271
1.38567
1.38017
1.37661
1.37086
1.3656
1.35863
1.35281
1.34557
1.33915
1.33146
1.3244
1.31635
1.30877
1.30045
1.29243
1.28387
1.2755
1.26677
1.25815
1.24931
1.24054
1.23166
1.22284
1.21398
1.20518
1.19643
1.18774
1.17914
1.17062
1.16221
1.15389
1.14569
1.13758
1.12958
1.12168
1.11389
1.10622
1.09865
1.09121
1.08388
1.07666
1.06956
1.06258
1.05572
1.04898
1.04239
1.03596
1.02972
1.02373
1.018
1.01257
1.00749
1.00257
0.998076
0.993444
0.989448
0.98591
0.980542
0.981081
0.974794
0.973239
0.964517
0.905002
0.885616
0.941053
1.02208
1.09955
1.08331
0.863377
0.744945
0.770755
0.879279
0.965168
1.02341
1.06961
1.12477
1.16488
1.14036
0.993547
0.817276
0.695093
0.627441
0.623438
0.665062
0.726851
0.796631
0.846545
1.3927
1.3857
1.38018
1.37661
1.37086
1.3656
1.35864
1.35281
1.34557
1.33915
1.33146
1.3244
1.31636
1.30877
1.30045
1.29243
1.28387
1.2755
1.26677
1.25815
1.24931
1.24054
1.23166
1.22284
1.21398
1.20519
1.19643
1.18774
1.17914
1.17062
1.16221
1.15389
1.14569
1.13758
1.12958
1.12168
1.11389
1.10622
1.09866
1.09121
1.08388
1.07666
1.06956
1.06258
1.05571
1.04898
1.04238
1.03595
1.0297
1.0237
1.01796
1.01251
1.00741
1.00246
0.997925
0.993301
0.989169
0.985657
0.980246
0.980388
0.974225
0.971349
0.963163
0.914032
0.898167
0.946619
1.01577
1.07811
1.0601
0.87486
0.776117
0.799609
0.889498
0.964938
1.01906
1.06376
1.11134
1.14303
1.11126
0.971718
0.811014
0.697672
0.640584
0.636569
0.675693
0.731198
0.79208
0.834389
1.39267
1.38575
1.3802
1.37662
1.37087
1.36561
1.35864
1.35281
1.34558
1.33915
1.33146
1.3244
1.31636
1.30877
1.30045
1.29243
1.28387
1.2755
1.26677
1.25815
1.24931
1.24054
1.23166
1.22284
1.21398
1.20519
1.19643
1.18774
1.17914
1.17062
1.16221
1.1539
1.14569
1.13758
1.12958
1.12168
1.1139
1.10622
1.09866
1.09121
1.08388
1.07666
1.06956
1.06258
1.05571
1.04897
1.04237
1.03593
1.02968
1.02366
1.01791
1.01244
1.00731
1.00233
0.997735
0.993112
0.988833
0.98532
0.979885
0.979522
0.973528
0.96944
0.96194
0.923066
0.910655
0.951135
1.00705
1.05462
1.03672
0.895809
0.8167
0.833239
0.901652
0.964116
1.01184
1.05192
1.08887
1.11043
1.07458
0.95266
0.814848
0.715436
0.667309
0.662737
0.693654
0.737459
0.78328
0.814397
1.39265
1.38579
1.38021
1.37662
1.37087
1.36561
1.35864
1.35281
1.34558
1.33915
1.33146
1.3244
1.31636
1.30878
1.30045
1.29243
1.28387
1.2755
1.26677
1.25815
1.24931
1.24054
1.23167
1.22284
1.21398
1.20519
1.19643
1.18774
1.17914
1.17062
1.16221
1.1539
1.14569
1.13758
1.12958
1.12168
1.1139
1.10622
1.09866
1.09122
1.08388
1.07667
1.06956
1.06258
1.05571
1.04896
1.04236
1.03591
1.02965
1.02361
1.01785
1.01235
1.00718
1.00217
0.997497
0.992864
0.988431
0.984877
0.979443
0.978467
0.972686
0.967622
0.96082
0.931399
0.922113
0.954155
0.997113
1.03103
1.01475
0.915346
0.855415
0.864416
0.913079
0.961799
1.00116
1.03395
1.05852
1.06866
1.03338
0.937696
0.829901
0.749366
0.70878
0.701289
0.71907
0.745632
0.772237
0.78765
1.39262
1.38585
1.38023
1.37663
1.37088
1.36561
1.35864
1.35282
1.34558
1.33915
1.33147
1.3244
1.31636
1.30878
1.30045
1.29243
1.28387
1.27551
1.26677
1.25815
1.24931
1.24055
1.23167
1.22284
1.21398
1.20519
1.19643
1.18774
1.17914
1.17062
1.16221
1.1539
1.14569
1.13758
1.12958
1.12169
1.1139
1.10623
1.09867
1.09122
1.08389
1.07667
1.06957
1.06258
1.0557
1.04896
1.04234
1.03588
1.02961
1.02356
1.01777
1.01223
1.00702
1.00196
0.997201
0.992538
0.987949
0.984298
0.978891
0.977215
0.971669
0.965941
0.959773
0.938534
0.931844
0.955463
0.986257
1.00821
0.994027
0.928077
0.885685
0.889479
0.921933
0.957387
0.987142
1.01088
1.02438
1.02442
0.993151
0.924996
0.848834
0.788866
0.754304
0.741217
0.743897
0.752071
0.759558
0.759233
1.39258
1.38591
1.38025
1.37664
1.37088
1.36562
1.35865
1.35282
1.34558
1.33915
1.33147
1.32441
1.31636
1.30878
1.30045
1.29243
1.28387
1.27551
1.26677
1.25816
1.24931
1.24055
1.23167
1.22284
1.21398
1.20519
1.19643
1.18774
1.17914
1.17063
1.16222
1.1539
1.1457
1.13759
1.12959
1.12169
1.11391
1.10623
1.09867
1.09123
1.08389
1.07668
1.06957
1.06258
1.0557
1.04894
1.04232
1.03585
1.02956
1.02349
1.01767
1.01208
1.00681
1.00169
0.996828
0.992112
0.987366
0.983551
0.97819
0.975759
0.970444
0.964375
0.958765
0.944087
0.939286
0.955063
0.975037
0.987512
0.975777
0.934735
0.906642
0.907282
0.927055
0.950368
0.970118
0.984249
0.988969
0.982089
0.955797
0.908879
0.857021
0.813571
0.784079
0.766705
0.758082
0.752407
0.745911
0.734627
1.39254
1.38599
1.38028
1.37666
1.37089
1.36562
1.35865
1.35282
1.34558
1.33916
1.33147
1.32441
1.31636
1.30878
1.30045
1.29243
1.28387
1.27551
1.26677
1.25816
1.24932
1.24055
1.23167
1.22284
1.21399
1.20519
1.19643
1.18774
1.17914
1.17063
1.16222
1.1539
1.1457
1.13759
1.12959
1.1217
1.11391
1.10624
1.09868
1.09124
1.0839
1.07668
1.06957
1.06258
1.0557
1.04893
1.0423
1.03581
1.0295
1.0234
1.01753
1.0119
1.00654
1.00134
0.99636
0.991554
0.986652
0.9826
0.977288
0.974096
0.968965
0.96284
0.957684
0.947777
0.94411
0.953066
0.964282
0.969928
0.960767
0.93652
0.918799
0.917404
0.927552
0.940377
0.950777
0.956269
0.954349
0.943589
0.92155
0.888928
0.853247
0.821293
0.796132
0.777035
0.762228
0.748758
0.734729
0.718068
1.39249
1.38607
1.38031
1.37667
1.3709
1.36563
1.35865
1.35283
1.34559
1.33916
1.33147
1.32441
1.31636
1.30878
1.30045
1.29244
1.28387
1.27551
1.26677
1.25816
1.24931
1.24055
1.23167
1.22284
1.21399
1.20519
1.19643
1.18775
1.17914
1.17063
1.16222
1.15391
1.1457
1.1376
1.1296
1.12171
1.11392
1.10625
1.09869
1.09125
1.08391
1.07669
1.06958
1.06258
1.05569
1.04892
1.04227
1.03576
1.02942
1.02328
1.01736
1.01165
1.0062
1.0009
0.995769
0.99083
0.985766
0.981408
0.976117
0.972211
0.967173
0.961179
0.956319
0.94944
0.946157
0.949691
0.954429
0.955519
0.948439
0.934231
0.923001
0.920002
0.923088
0.927601
0.930297
0.929204
0.922886
0.910695
0.892226
0.868564
0.84305
0.818732
0.797134
0.7781
0.760902
0.744209
0.727269
0.709096
1.39244
1.38617
1.38034
1.37668
1.37091
1.36564
1.35866
1.35283
1.34559
1.33917
1.33147
1.32442
1.31636
1.30879
1.30045
1.29244
1.28387
1.27551
1.26677
1.25816
1.24931
1.24055
1.23167
1.22284
1.21399
1.20519
1.19643
1.18775
1.17915
1.17063
1.16223
1.15391
1.14571
1.1376
1.12961
1.12172
1.11394
1.10626
1.09871
1.09126
1.08393
1.07671
1.06959
1.06259
1.05569
1.0489
1.04223
1.0357
1.02932
1.02313
1.01714
1.01134
1.00576
1.00033
0.995022
0.989898
0.984652
0.979933
0.974596
0.970059
0.964981
0.959166
0.954378
0.949031
0.94551
0.945118
0.945358
0.943519
0.9376
0.928511
0.920526
0.916056
0.914212
0.912754
0.909866
0.904353
0.895503
0.883129
0.867387
0.849055
0.829549
0.810153
0.791574
0.773871
0.756849
0.740012
0.72317
0.705938
1.39238
1.38627
1.38038
1.3767
1.37092
1.36565
1.35866
1.35284
1.34559
1.33917
1.33147
1.32442
1.31636
1.30879
1.30045
1.29244
1.28387
1.27552
1.26677
1.25816
1.24931
1.24055
1.23167
1.22285
1.21399
1.2052
1.19643
1.18775
1.17915
1.17064
1.16223
1.15392
1.14572
1.13761
1.12962
1.12173
1.11395
1.10628
1.09873
1.09128
1.08395
1.07672
1.06961
1.06259
1.05568
1.04887
1.04218
1.03561
1.02919
1.02292
1.01684
1.01093
1.00519
0.999591
0.994072
0.988706
0.983241
0.978119
0.972635
0.967545
0.962274
0.956525
0.951539
0.94659
0.942422
0.939343
0.936567
0.932751
0.927044
0.919909
0.912944
0.90708
0.90196
0.896614
0.890172
0.882052
0.871965
0.859907
0.846085
0.830933
0.815042
0.798941
0.78296
0.767201
0.751675
0.73625
0.720947
0.705655
1.39231
1.38638
1.38042
1.37671
1.37093
1.36566
1.35866
1.35285
1.34559
1.33918
1.33147
1.32443
1.31636
1.3088
1.30044
1.29245
1.28387
1.27552
1.26677
1.25817
1.24931
1.24056
1.23166
1.22285
1.21399
1.2052
1.19644
1.18776
1.17915
1.17065
1.16224
1.15393
1.14573
1.13763
1.12963
1.12175
1.11397
1.1063
1.09875
1.09131
1.08397
1.07674
1.06962
1.06259
1.05567
1.04884
1.04211
1.0355
1.02901
1.02265
1.01645
1.01039
1.00446
0.99864
0.992865
0.987196
0.98145
0.975887
0.970129
0.96452
0.958887
0.952961
0.947492
0.942187
0.93715
0.932212
0.927383
0.922065
0.915874
0.908948
0.901789
0.89469
0.887514
0.879894
0.871485
0.862064
0.851548
0.839983
0.827513
0.814358
0.80077
0.786977
0.773142
0.759353
0.745672
0.732085
0.718672
0.70541
1.39224
1.38649
1.38046
1.37673
1.37093
1.36567
1.35866
1.35286
1.34558
1.33919
1.33146
1.32444
1.31635
1.30881
1.30044
1.29246
1.28386
1.27553
1.26676
1.25818
1.24931
1.24057
1.23166
1.22286
1.21399
1.20521
1.19644
1.18777
1.17916
1.17066
1.16225
1.15394
1.14574
1.13764
1.12965
1.12177
1.11399
1.10633
1.09878
1.09133
1.084
1.07677
1.06964
1.0626
1.05565
1.04879
1.04202
1.03534
1.02876
1.0223
1.01594
1.00969
1.00352
0.997424
0.991338
0.985299
0.979189
0.973137
0.966963
0.960793
0.954618
0.948212
0.941988
0.935886
0.929889
0.923561
0.917237
0.910667
0.903647
0.896169
0.888351
0.880262
0.871861
0.863035
0.853683
0.843746
0.833227
0.822174
0.810677
0.798845
0.786793
0.774627
0.762434
0.750268
0.738189
0.726201
0.714388
0.702732
1.39217
1.38659
1.38049
1.37675
1.37094
1.36569
1.35865
1.35287
1.34558
1.33921
1.33145
1.32445
1.31634
1.30882
1.30043
1.29247
1.28385
1.27554
1.26676
1.25819
1.24931
1.24058
1.23166
1.22287
1.21399
1.20522
1.19644
1.18778
1.17917
1.17067
1.16226
1.15396
1.14575
1.13766
1.12967
1.12179
1.11402
1.10636
1.09881
1.09136
1.08403
1.07679
1.06965
1.06259
1.05562
1.04872
1.04189
1.03513
1.02844
1.02183
1.01528
1.00879
1.00233
0.995889
0.989422
0.982937
0.976363
0.969747
0.963004
0.956166
0.949258
0.942078
0.934863
0.927733
0.920755
0.913289
0.905789
0.898146
0.890236
0.882012
0.873483
0.864661
0.855546
0.846118
0.836366
0.826293
0.815921
0.80529
0.794453
0.783465
0.772386
0.761265
0.750151
0.739073
0.728075
0.717153
0.706382
0.695733
1.39212
1.38667
1.38052
1.37678
1.37093
1.36572
1.35864
1.3529
1.34556
1.33923
1.33144
1.32448
1.31632
1.30885
1.30042
1.2925
1.28384
1.27557
1.26675
1.25821
1.2493
1.2406
1.23166
1.22289
1.21399
1.20524
1.19645
1.18779
1.17918
1.17068
1.16227
1.15397
1.14577
1.13768
1.12969
1.12181
1.11404
1.10638
1.09883
1.09139
1.08405
1.07681
1.06966
1.06258
1.05558
1.04863
1.04173
1.03488
1.02807
1.02129
1.01454
1.00778
1.00102
0.994211
0.987333
0.980378
0.973291
0.966086
0.958703
0.951141
0.943427
0.935364
0.927126
0.919009
0.911181
0.902829
0.894447
0.885979
0.877335
0.868472
0.859377
0.850053
0.840512
0.830762
0.820815
0.810689
0.800407
0.789997
0.779493
0.768928
0.758334
0.747739
0.737172
0.726648
0.716199
0.705817
0.695566
0.685412
1.39209
1.38672
1.38053
1.3768
1.37092
1.36575
1.35862
1.35293
1.34554
1.33927
1.33142
1.32451
1.31631
1.30888
1.3004
1.29253
1.28383
1.2756
1.26675
1.25824
1.2493
1.24062
1.23166
1.22291
1.214
1.20526
1.19646
1.18781
1.17918
1.1707
1.16228
1.15398
1.14578
1.13769
1.1297
1.12182
1.11406
1.1064
1.09885
1.09141
1.08407
1.07682
1.06966
1.06257
1.05553
1.04854
1.04158
1.03464
1.02771
1.02077
1.01381
1.0068
0.999733
0.992575
0.985299
0.977889
0.9703
0.962526
0.954517
0.946262
0.937782
0.92889
0.919733
0.910765
0.902236
0.893184
0.88412
0.875011
0.865786
0.856409
0.846867
0.837162
0.827311
0.817327
0.807228
0.79703
0.786752
0.776414
0.76604
0.755649
0.745263
0.734899
0.724575
0.714301
0.7041
0.693965
0.683948
0.674021
1.39209
1.38673
1.38052
1.37683
1.3709
1.36578
1.35859
1.35296
1.34551
1.3393
1.33139
1.32455
1.31628
1.30892
1.30038
1.29257
1.28382
1.27564
1.26674
1.25827
1.2493
1.24065
1.23167
1.22294
1.214
1.20528
1.19646
1.18783
1.17919
1.17071
1.16229
1.154
1.14579
1.1377
1.12971
1.12184
1.11407
1.10641
1.09886
1.09142
1.08408
1.07683
1.06966
1.06255
1.05549
1.04845
1.04144
1.03441
1.02735
1.02026
1.0131
1.00585
0.998486
0.990985
0.983316
0.975461
0.967377
0.959049
0.950434
0.941516
0.932318
0.922657
0.912665
0.902935
0.893791
0.884136
0.874489
0.864829
0.8551
0.845271
0.835334
0.82529
0.815156
0.804946
0.794677
0.784361
0.774014
0.76365
0.753286
0.742935
0.732611
0.722329
0.712099
0.70193
0.691837
0.681819
0.671914
0.662104
1.39211
1.38672
1.38049
1.37685
1.37088
1.36581
1.35856
1.353
1.34548
1.33934
1.33136
1.32459
1.31626
1.30896
1.30036
1.29261
1.2838
1.27568
1.26672
1.25831
1.24929
1.24069
1.23166
1.22297
1.214
1.2053
1.19647
1.18785
1.1792
1.17073
1.16229
1.15401
1.1458
1.13772
1.12972
1.12185
1.11408
1.10642
1.09887
1.09143
1.08409
1.07683
1.06965
1.06253
1.05545
1.04838
1.0413
1.03419
1.02703
1.01978
1.01244
1.00495
0.997311
0.98948
0.981433
0.973148
0.964585
0.955728
0.946539
0.937006
0.927153
0.916795
0.906051
0.895632
0.885929
0.875723
0.865543
0.855379
0.845182
0.83493
0.824616
0.814242
0.803826
0.79338
0.782919
0.772451
0.76199
0.751545
0.741128
0.730749
0.720419
0.710146
0.699941
0.689809
0.679761
0.669799
0.659954
0.650213
1.39216
1.38667
1.38046
1.37687
1.37085
1.36584
1.35853
1.35304
1.34544
1.33939
1.33132
1.32464
1.31622
1.30901
1.30033
1.29266
1.28378
1.27572
1.26671
1.25835
1.24928
1.24073
1.23166
1.223
1.21401
1.20533
1.19647
1.18787
1.17921
1.17074
1.1623
1.15402
1.14581
1.13772
1.12973
1.12185
1.11409
1.10642
1.09888
1.09143
1.08409
1.07682
1.06965
1.06251
1.05541
1.04831
1.04118
1.034
1.02674
1.01936
1.01184
1.00414
0.996237
0.988094
0.979686
0.970989
0.961969
0.952612
0.942892
0.932796
0.92235
0.911362
0.899929
0.888864
0.878626
0.867892
0.857197
0.846542
0.835888
0.825219
0.814528
0.803822
0.793114
0.782418
0.771743
0.761099
0.750493
0.739932
0.729426
0.718981
0.708605
0.698306
0.688088
0.677961
0.667927
0.657993
0.648182
0.638485
1.39222
1.3866
1.38041
1.3769
1.37081
1.36588
1.35849
1.35309
1.3454
1.33944
1.33129
1.3247
1.31619
1.30907
1.3003
1.29271
1.28376
1.27577
1.2667
1.2584
1.24928
1.24077
1.23166
1.22303
1.21401
1.20535
1.19648
1.18788
1.17922
1.17075
1.16232
1.15402
1.14582
1.13772
1.12974
1.12184
1.11409
1.10641
1.09888
1.09141
1.08409
1.07681
1.06965
1.06249
1.05539
1.04825
1.04111
1.03386
1.02653
1.01904
1.01138
1.00351
0.995386
0.98698
0.978266
0.969212
0.959804
0.950021
0.939859
0.929303
0.918375
0.906872
0.894863
0.883232
0.872512
0.861297
0.850129
0.839022
0.827947
0.816892
0.805855
0.79484
0.783863
0.772933
0.76206
0.751247
0.740502
0.729826
0.719228
0.708711
0.69828
0.687941
0.677698
0.667556
0.657521
0.647595
0.637804
0.628138
1.39228
1.38652
1.38036
1.37691
1.37078
1.36591
1.35846
1.35313
1.34537
1.33949
1.33125
1.32475
1.31615
1.30912
1.30027
1.29276
1.28373
1.27582
1.26668
1.25844
1.24927
1.2408
1.23166
1.22306
1.21402
1.20537
1.1965
1.18789
1.17923
1.17075
1.16233
1.15401
1.14584
1.1377
1.12976
1.12183
1.11411
1.10639
1.09889
1.09139
1.0841
1.07678
1.06965
1.06246
1.05539
1.04821
1.04107
1.03376
1.02639
1.01881
1.01107
1.00306
0.994789
0.986182
0.977237
0.967903
0.958197
0.94808
0.937592
0.926693
0.915412
0.903527
0.891072
0.87898
0.867856
0.856231
0.844657
0.83316
0.82172
0.810333
0.798996
0.787717
0.776508
0.765378
0.754333
0.743375
0.732507
0.721729
0.711043
0.700454
0.689963
0.679574
0.669289
0.659111
0.649045
0.63909
0.629271
0.619576
1.39235
1.38643
1.38032
1.37693
1.37076
1.36593
1.35843
1.35316
1.34533
1.33953
1.33122
1.32479
1.31612
1.30916
1.30025
1.2928
1.28371
1.27586
1.26667
1.25848
1.24926
1.24083
1.23166
1.22308
1.21403
1.20538
1.19651
1.18789
1.17925
1.17074
1.16236
1.154
1.14586
1.13768
1.12978
1.1218
1.11413
1.10635
1.09891
1.09135
1.08412
1.07675
1.06967
1.06242
1.05541
1.04817
1.04106
1.03369
1.02631
1.01865
1.01087
1.00275
0.994379
0.985612
0.976502
0.96694
0.957011
0.946627
0.935898
0.924744
0.913209
0.90104
0.888241
0.875769
0.864303
0.852324
0.840398
0.828562
0.816809
0.805135
0.793542
0.782034
0.770628
0.75933
0.748146
0.737072
0.726108
0.71525
0.704499
0.693853
0.683315
0.672885
0.662566
0.652357
0.642263
0.632281
0.622437
0.612719
1.39241
1.38635
1.38028
1.37693
1.37073
1.36595
1.3584
1.35319
1.34531
1.33956
1.33119
1.32482
1.3161
1.30919
1.30022
1.29284
1.2837
1.27589
1.26666
1.2585
1.24926
1.24085
1.23167
1.22309
1.21404
1.20538
1.19652
1.18788
1.17927
1.17072
1.16238
1.15397
1.14589
1.13765
1.12981
1.12176
1.11416
1.10631
1.09894
1.0913
1.08415
1.0767
1.06971
1.06238
1.05544
1.04812
1.04107
1.03362
1.02628
1.01853
1.01075
1.00252
0.994107
0.985202
0.975986
0.966231
0.956141
0.945536
0.934634
0.923288
0.911574
0.899201
0.886139
0.873359
0.861601
0.849319
0.837084
0.824959
0.812935