/*--------------------------------*- C++ -*----------------------------------*\
| =========                 |                                                 |
| \\      /  F ield         | OpenFOAM: The Open Source CFD Toolbox           |
|  \\    /   O peration     | Version:  2306                                  |
|   \\  /    A nd           | Website:  www.openfoam.com                      |
|    \\/     M anipulation  |                                                 |
\*---------------------------------------------------------------------------*/
FoamFile
{
    version     2.0;
    format      ascii;
    arch        "LSB;label=32;scalar=64";
    class       volScalarField;
    location    "2000";
    object      nut;
}
// * * * * * * * * * * * * * * * * * * * * * * * * * * * * * * * * * * * * * //

dimensions      [0 2 -1 0 0 0 0];

internalField   uniform 0;

boundaryField
{
    inlet
    {
        type            calculated;
        value           uniform 0;
    }
    outlet
    {
        type            calculated;
        value           uniform 0;
    }
    lowerWallStartup
    {
        type            symmetryPlane;
    }
    upperWallStartup
    {
        type            symmetryPlane;
    }
    upperWall
    {
        type            nutUBlendedWallFunction;
        value           nonuniform List<scalar> 
218
(
1.17686e-08
3.95731e-09
2.90331e-09
2.45e-09
2.18335e-09
2.00985e-09
1.87784e-09
1.77642e-09
1.69622e-09
1.6316e-09
1.58031e-09
1.53586e-09
1.50186e-09
1.46946e-09
1.44736e-09
1.42275e-09
1.40945e-09
1.39e-09
1.38349e-09
1.36733e-09
1.36621e-09
1.35204e-09
1.35537e-09
1.34228e-09
1.34943e-09
1.33672e-09
1.34714e-09
1.33419e-09
1.34744e-09
1.33387e-09
1.34972e-09
1.33542e-09
1.35394e-09
1.33889e-09
1.36028e-09
1.34444e-09
1.36891e-09
1.35235e-09
1.38011e-09
1.3632e-09
1.39459e-09
1.37814e-09
1.41373e-09
1.39901e-09
1.43976e-09
1.42836e-09
1.47575e-09
1.46903e-09
1.52508e-09
1.52392e-09
1.59142e-09
1.59676e-09
1.68016e-09
1.6953e-09
1.79845e-09
1.83095e-09
1.94568e-09
1.99633e-09
2.10258e-09
2.17683e-09
2.27196e-09
2.3959e-09
2.5619e-09
2.81886e-09
3.01679e-09
3.18243e-09
3.29116e-09
3.36849e-09
3.52661e-09
3.55733e-09
3.79931e-09
3.84136e-09
4.08102e-09
4.13232e-09
4.2206e-09
4.33969e-09
4.31373e-09
4.57703e-09
4.60002e-09
4.87876e-09
4.92557e-09
5.09437e-09
5.06064e-09
5.27725e-09
5.18871e-09
5.60472e-09
5.50311e-09
6.03315e-09
5.82012e-09
6.30717e-09
5.94019e-09
6.4306e-09
5.99501e-09
6.43341e-09
5.93987e-09
6.30056e-09
5.813e-09
6.12948e-09
5.71662e-09
6.04151e-09
5.71178e-09
6.07102e-09
5.77616e-09
6.1566e-09
5.83296e-09
6.19937e-09
5.83119e-09
6.17388e-09
5.81191e-09
6.16547e-09
5.85255e-09
6.25297e-09
5.95652e-09
6.38773e-09
6.02936e-09
6.42927e-09
5.98409e-09
6.32088e-09
5.8613e-09
6.16953e-09
5.77428e-09
6.0993e-09
5.75727e-09
6.10147e-09
5.744e-09
6.08042e-09
5.6866e-09
6.01038e-09
5.62342e-09
5.95251e-09
5.57715e-09
5.89701e-09
5.46786e-09
5.72942e-09
5.22745e-09
5.42194e-09
4.93852e-09
5.11167e-09
4.72601e-09
4.9135e-09
4.60157e-09
4.81822e-09
4.53429e-09
4.80081e-09
4.51157e-09
4.83812e-09
4.48203e-09
4.84269e-09
4.36959e-09
4.721e-09
4.12802e-09
4.44543e-09
3.76714e-09
4.07833e-09
3.40027e-09
3.7484e-09
3.19627e-09
3.35702e-09
2.77233e-09
3.32891e-09
2.49887e-09
2.81692e-09
2.33794e-09
3.52259e-09
2.75272e-09
1.49141e-09
0
3.04622e-09
3.54937e-09
3.54865e-09
5.83745e-10
0
0
3.83021e-09
4.36651e-09
0
3.62713e-09
0
0
2.88186e-09
5.05449e-09
0
1.32129e-09
5.70488e-10
6.80271e-09
2.20023e-08
3.36538e-08
4.23947e-08
5.29319e-08
5.85771e-08
2.63332e-08
1.07525e-08
2.58243e-08
2.0794e-08
1.07413e-08
4.81795e-09
1.84234e-09
7.80016e-10
0
0
0
1.79402e-09
4.12296e-09
3.88121e-09
4.04847e-09
1.20593e-09
6.5032e-09
5.41257e-09
1.98712e-09
5.95547e-09
3.81032e-09
1.41746e-09
8.74447e-09
4.55083e-09
0
0
0
0
)
;
    }
    lowerWall
    {
        type            nutUBlendedWallFunction;
        value           nonuniform List<scalar> 
266
(
1.27268e-08
4.23852e-09
3.10065e-09
2.60826e-09
2.32242e-09
2.13357e-09
1.99209e-09
1.88213e-09
1.79591e-09
1.72663e-09
1.67097e-09
1.62442e-09
1.58657e-09
1.55418e-09
1.52814e-09
1.50552e-09
1.48777e-09
1.47219e-09
1.46039e-09
1.44994e-09
1.44242e-09
1.43576e-09
1.43138e-09
1.4276e-09
1.42555e-09
1.42393e-09
1.42353e-09
1.42342e-09
1.42413e-09
1.42507e-09
1.42657e-09
1.42834e-09
1.43055e-09
1.43304e-09
1.43582e-09
1.43883e-09
1.44197e-09
1.44524e-09
1.4485e-09
1.45177e-09
1.45488e-09
1.45779e-09
1.46029e-09
1.46219e-09
1.46319e-09
1.46291e-09
1.46074e-09
1.45654e-09
1.44849e-09
1.43758e-09
1.42185e-09
1.40028e-09
1.3803e-09
1.34358e-09
1.32934e-09
1.26786e-09
1.23687e-09
1.14244e-09
9.88467e-10
1.06029e-09
0.00228247
1.33369e-09
3.40315e-09
0
6.2566e-09
9.38886e-09
7.76857e-09
1.45857e-09
2.8835e-08
4.1637e-08
8.33736e-09
1.45468e-08
1.28216e-08
7.1035e-09
4.61539e-09
3.88246e-09
1.22151e-09
5.57929e-09
2.06306e-08
4.03005e-08
5.39494e-08
4.35928e-08
0
1.08296e-08
1.55762e-08
1.50602e-08
1.45253e-08
0
0.00128367
0
0
0
0
0
0
0
0
0
0
0
0
1.42049e-06
4.02437e-06
7.07399e-06
1.04749e-05
1.40759e-05
1.74188e-05
1.94747e-05
1.84816e-05
1.38882e-05
2.97348e-06
0
1.40347e-05
3.28364e-05
4.53737e-05
5.34301e-05
5.8149e-05
6.05105e-05
6.1186e-05
6.06942e-05
5.94347e-05
5.78234e-05
5.59558e-05
5.40972e-05
5.23098e-05
5.06542e-05
4.91369e-05
4.77813e-05
4.65504e-05
4.5467e-05
4.44617e-05
4.35899e-05
4.27432e-05
4.20651e-05
4.13231e-05
4.08136e-05
0
1.62615e-09
2.39413e-09
3.12881e-09
2.41489e-09
0
1.43072e-09
1.46378e-09
0
6.48282e-10
0
2.44768e-10
1.03135e-09
1.92089e-09
2.58664e-09
3.09108e-09
3.4677e-09
3.66023e-09
3.50626e-09
2.75035e-09
1.64978e-09
0.479551
2.86083e-09
7.10118e-09
9.72423e-09
1.00714e-08
8.72801e-09
4.83334e-09
7.16473e-09
1.12057e-08
2.24083e-09
5.08546e-09
4.27161e-09
1.07531e-09
0
1.12843e-10
2.62784e-10
0
7.09492e-09
9.22442e-10
1.26581e-09
1.42102e-09
1.0053e-09
0
9.72946e-10
1.77391e-09
2.53155e-09
3.06268e-09
2.01869e-09
2.85193e-09
1.21464e-08
1.95442e-08
1.70426e-08
7.59706e-09
6.13921e-10
0
0
8.79938e-10
1.42381e-09
1.24801e-09
1.1707e-09
1.36756e-09
1.76545e-09
2.24321e-09
2.63666e-09
2.71219e-09
2.60293e-09
2.58218e-09
2.07704e-09
1.63556e-09
1.37651e-10
5.89832e-10
1.39708e-09
1.97293e-09
2.45453e-09
2.85544e-09
3.1857e-09
3.4484e-09
3.65444e-09
3.80586e-09
3.91672e-09
3.99087e-09
4.04198e-09
4.07608e-09
4.09977e-09
4.11199e-09
4.11073e-09
4.08721e-09
4.0416e-09
3.97113e-09
3.8844e-09
3.78148e-09
3.6703e-09
3.54983e-09
3.42479e-09
3.30247e-09
3.18613e-09
3.10816e-09
3.04861e-09
2.94581e-09
2.80893e-09
2.65698e-09
2.48266e-09
2.28796e-09
2.06883e-09
1.81953e-09
1.54123e-09
1.24517e-09
0.00154894
9.09573e-10
9.08007e-10
7.40019e-10
6.77466e-10
8.63034e-10
9.58054e-10
9.04131e-10
1.64652e-09
4.53587e-09
4.5703e-09
4.25549e-09
7.87215e-09
8.89139e-09
2.12523e-08
1.69573e-08
4.75289e-08
4.74426e-08
0
8.94726e-09
3.1118e-09
2.06025e-08
)
;
    }
    front
    {
        type            empty;
    }
    back
    {
        type            empty;
    }
}


// ************************************************************************* //
