/*--------------------------------*- C++ -*----------------------------------*\
| =========                 |                                                 |
| \\      /  F ield         | OpenFOAM: The Open Source CFD Toolbox           |
|  \\    /   O peration     | Version:  2306                                  |
|   \\  /    A nd           | Website:  www.openfoam.com                      |
|    \\/     M anipulation  |                                                 |
\*---------------------------------------------------------------------------*/
FoamFile
{
    version     2.0;
    format      ascii;
    arch        "LSB;label=32;scalar=64";
    class       volScalarField;
    location    "2000";
    object      p;
}
// * * * * * * * * * * * * * * * * * * * * * * * * * * * * * * * * * * * * * //

dimensions      [0 2 -2 0 0 0 0];

internalField   nonuniform List<scalar> 
20540
(
1359.65
1362.35
1359.65
1362.34
1359.65
1362.34
1359.65
1362.34
1359.65
1362.34
1359.65
1362.34
1359.65
1362.33
1359.65
1362.33
1359.65
1362.32
1359.65
1362.31
1359.65
1362.3
1359.64
1362.29
1359.64
1362.28
1359.64
1362.27
1359.64
1362.25
1359.63
1362.23
1359.63
1362.2
1359.63
1362.17
1359.62
1362.14
1359.62
1362.09
1359.61
1362.04
1359.6
1361.98
1359.59
1361.91
1359.58
1361.83
1359.57
1361.74
1359.55
1361.64
1359.54
1361.53
1359.52
1361.42
1359.51
1361.3
1359.49
1361.19
1359.48
1361.12
1359.48
1361.08
1359.48
1361.09
1359.48
1361.13
1359.49
1361.21
1359.5
1361.32
1359.52
1361.44
1359.53
1361.55
1359.54
1361.66
1359.56
1361.76
1359.57
1361.85
1359.58
1361.93
1359.59
1362
1359.6
1362.06
1359.6
1362.11
1359.61
1362.15
1359.61
1362.19
1359.62
1362.22
1359.62
1362.25
1359.63
1362.27
1359.63
1362.29
1359.63
1362.3
1359.63
1362.32
1359.63
1362.33
1359.63
1362.34
1359.64
1362.35
1359.64
1362.35
1359.64
1362.36
1359.64
1362.36
1359.64
1362.37
1359.64
1362.37
1359.64
1362.37
1359.64
1362.37
1359.64
1362.37
1359.64
1362.38
1360.52
1353.4
1348.13
1344.67
1339.06
1333.94
1327.13
1321.44
1314.38
1308.1
1300.59
1293.7
1285.84
1278.43
1270.3
1262.47
1254.11
1245.93
1237.4
1228.99
1220.35
1211.79
1203.11
1194.49
1185.84
1177.25
1168.69
1160.21
1151.8
1143.48
1135.27
1127.14
1119.13
1111.2
1103.39
1095.67
1088.07
1080.57
1073.18
1065.91
1058.75
1051.7
1044.77
1037.95
1031.25
1024.68
1018.24
1011.98
1005.89
1000.06
994.486
989.221
984.296
979.537
975.256
970.69
967.064
963.615
958.303
959.59
953.535
955.355
948.155
868.57
841.6
897.157
1003.93
1117.29
1113.4
915.756
724.578
738.315
851.516
950.374
1007.23
1048.08
1106.97
1165.57
1155.77
1084.1
959.385
803.636
680.936
647.234
660.645
730.16
770.451
853.01
1360.52
1353.4
1348.13
1344.67
1339.06
1333.94
1327.13
1321.44
1314.38
1308.1
1300.59
1293.7
1285.84
1278.43
1270.3
1262.47
1254.11
1245.93
1237.4
1228.99
1220.35
1211.79
1203.11
1194.49
1185.84
1177.25
1168.69
1160.21
1151.8
1143.48
1135.27
1127.14
1119.13
1111.21
1103.39
1095.67
1088.07
1080.57
1073.18
1065.91
1058.75
1051.7
1044.77
1037.95
1031.25
1024.68
1018.24
1011.98
1005.89
1000.06
994.486
989.222
984.296
979.537
975.256
970.69
967.064
963.616
958.304
959.59
953.535
955.355
948.16
868.577
841.601
897.159
1003.94
1117.26
1113.35
915.755
724.591
738.313
851.483
950.369
1007.22
1048.07
1106.94
1165.53
1155.73
1084.06
959.375
803.637
680.933
647.215
660.635
730.152
770.215
852.29
1360.52
1353.4
1348.13
1344.67
1339.06
1333.94
1327.13
1321.44
1314.38
1308.1
1300.59
1293.7
1285.84
1278.43
1270.3
1262.47
1254.11
1245.93
1237.4
1228.99
1220.35
1211.79
1203.11
1194.49
1185.84
1177.25
1168.69
1160.21
1151.8
1143.48
1135.27
1127.14
1119.13
1111.21
1103.39
1095.67
1088.07
1080.57
1073.18
1065.91
1058.75
1051.7
1044.77
1037.95
1031.25
1024.68
1018.24
1011.98
1005.89
1000.06
994.486
989.222
984.297
979.537
975.257
970.69
967.064
963.616
958.304
959.591
953.534
955.356
948.166
868.58
841.593
897.15
1003.94
1117.19
1113.29
915.724
724.523
738.251
851.427
950.366
1007.22
1048.06
1106.91
1165.48
1155.67
1083.99
959.302
803.493
680.749
647.042
660.579
730.117
769.88
851.165
1360.52
1353.4
1348.13
1344.67
1339.06
1333.94
1327.13
1321.44
1314.38
1308.1
1300.59
1293.7
1285.84
1278.43
1270.3
1262.47
1254.11
1245.93
1237.4
1228.99
1220.35
1211.79
1203.11
1194.49
1185.84
1177.25
1168.69
1160.21
1151.8
1143.48
1135.27
1127.14
1119.13
1111.21
1103.39
1095.67
1088.07
1080.57
1073.18
1065.91
1058.75
1051.7
1044.77
1037.95
1031.25
1024.68
1018.24
1011.98
1005.89
1000.06
994.486
989.222
984.297
979.538
975.257
970.69
967.065
963.616
958.304
959.591
953.534
955.357
948.172
868.574
841.572
897.136
1003.94
1117.07
1113.13
915.575
724.274
738.063
851.323
950.367
1007.21
1048.05
1106.86
1165.4
1155.52
1083.75
958.978
802.925
680.063
646.488
660.478
730.018
769.358
848.959
1360.52
1353.41
1348.13
1344.67
1339.07
1333.94
1327.13
1321.44
1314.38
1308.1
1300.59
1293.7
1285.84
1278.43
1270.3
1262.47
1254.11
1245.93
1237.4
1228.99
1220.35
1211.79
1203.11
1194.49
1185.84
1177.25
1168.69
1160.21
1151.8
1143.48
1135.27
1127.14
1119.13
1111.21
1103.39
1095.67
1088.07
1080.57
1073.18
1065.91
1058.75
1051.7
1044.77
1037.95
1031.25
1024.68
1018.24
1011.98
1005.89
1000.06
994.486
989.222
984.297
979.538
975.257
970.69
967.065
963.616
958.304
959.591
953.534
955.359
948.174
868.55
841.532
897.105
1003.91
1116.79
1112.79
915.125
723.573
737.661
851.159
950.351
1007.18
1048.02
1106.79
1165.22
1155.14
1083.16
958.077
801.343
678.337
645.554
660.308
729.762
768.546
845.417
1360.51
1353.41
1348.13
1344.67
1339.07
1333.94
1327.13
1321.44
1314.38
1308.1
1300.59
1293.7
1285.84
1278.43
1270.3
1262.47
1254.11
1245.93
1237.4
1228.99
1220.35
1211.79
1203.11
1194.49
1185.84
1177.25
1168.69
1160.21
1151.8
1143.48
1135.27
1127.14
1119.13
1111.21
1103.39
1095.67
1088.07
1080.57
1073.18
1065.91
1058.75
1051.7
1044.77
1037.95
1031.25
1024.68
1018.24
1011.98
1005.89
1000.06
994.486
989.222
984.297
979.538
975.257
970.69
967.065
963.616
958.304
959.591
953.536
955.361
948.165
868.505
841.479
897.034
1003.77
1116.29
1112.17
914.237
721.939
737.015
850.942
950.289
1007.13
1047.97
1106.65
1164.83
1154.41
1082.13
956.407
798.172
675.338
644.385
660.004
729.234
767.405
840.806
1360.51
1353.41
1348.13
1344.67
1339.07
1333.94
1327.13
1321.44
1314.38
1308.1
1300.59
1293.7
1285.84
1278.43
1270.3
1262.47
1254.11
1245.93
1237.4
1228.99
1220.35
1211.79
1203.11
1194.49
1185.84
1177.25
1168.69
1160.21
1151.8
1143.48
1135.27
1127.14
1119.13
1111.21
1103.39
1095.67
1088.07
1080.57
1073.18
1065.91
1058.75
1051.7
1044.77
1037.95
1031.25
1024.68
1018.24
1011.98
1005.89
1000.06
994.486
989.222
984.297
979.538
975.257
970.69
967.065
963.616
958.304
959.59
953.538
955.36
948.146
868.45
841.429
896.912
1003.45
1115.46
1111.22
912.901
719.223
736.162
850.664
950.155
1007.02
1047.88
1106.44
1164.06
1153.27
1080.63
953.642
793.015
671.287
643.076
659.51
728.507
766.005
835.017
1360.51
1353.41
1348.13
1344.67
1339.07
1333.94
1327.13
1321.44
1314.38
1308.1
1300.59
1293.7
1285.84
1278.43
1270.3
1262.47
1254.11
1245.93
1237.4
1228.99
1220.35
1211.79
1203.11
1194.49
1185.84
1177.25
1168.69
1160.21
1151.8
1143.48
1135.27
1127.14
1119.13
1111.21
1103.39
1095.67
1088.07
1080.57
1073.18
1065.91
1058.75
1051.7
1044.77
1037.95
1031.25
1024.68
1018.24
1011.98
1005.89
1000.06
994.487
989.222
984.297
979.538
975.257
970.69
967.065
963.615
958.303
959.59
953.541
955.352
948.115
868.368
841.387
896.744
1002.88
1114.33
1109.97
910.942
715.488
735.213
850.285
949.933
1006.86
1047.73
1106.06
1162.75
1151.71
1078.72
949.266
785.768
666.486
641.565
658.795
727.685
764.233
827.587
1360.5
1353.42
1348.13
1344.67
1339.07
1333.94
1327.13
1321.44
1314.38
1308.1
1300.59
1293.7
1285.84
1278.43
1270.3
1262.47
1254.11
1245.93
1237.4
1228.99
1220.35
1211.79
1203.11
1194.49
1185.84
1177.25
1168.69
1160.21
1151.8
1143.48
1135.27
1127.14
1119.13
1111.21
1103.39
1095.67
1088.07
1080.57
1073.18
1065.91
1058.75
1051.7
1044.77
1037.95
1031.25
1024.68
1018.24
1011.98
1005.89
1000.06
994.487
989.222
984.297
979.537
975.257
970.689
967.064
963.613
958.303
959.59
953.542
955.33
948.064
868.245
841.387
896.557
1001.92
1113.09
1108.48
908.183
711.048
734.3
849.844
949.604
1006.6
1047.52
1105.32
1160.98
1149.99
1076.53
942.459
776.535
661
639.665
657.772
726.59
761.43
817.162
1360.5
1353.42
1348.14
1344.67
1339.07
1333.94
1327.13
1321.44
1314.38
1308.1
1300.59
1293.7
1285.84
1278.43
1270.3
1262.47
1254.11
1245.93
1237.4
1228.99
1220.35
1211.79
1203.11
1194.49
1185.84
1177.25
1168.69
1160.21
1151.8
1143.48
1135.27
1127.14
1119.13
1111.21
1103.39
1095.67
1088.07
1080.57
1073.18
1065.91
1058.75
1051.7
1044.77
1037.95
1031.25
1024.68
1018.24
1011.98
1005.89
1000.06
994.486
989.222
984.297
979.537
975.256
970.688
967.064
963.61
958.302
959.59
953.54
955.294
948.014
868.113
841.423
896.439
1000.51
1112.13
1106.96
904.241
705.99
733.095
849.58
949.187
1006.25
1047.25
1104.08
1159.28
1148.11
1074.01
932.515
765.544
654.657
637.089
656.28
725.194
757.552
802.136
1360.49
1353.43
1348.14
1344.68
1339.07
1333.94
1327.13
1321.44
1314.38
1308.1
1300.59
1293.7
1285.84
1278.43
1270.3
1262.47
1254.11
1245.93
1237.4
1228.99
1220.35
1211.79
1203.11
1194.49
1185.84
1177.25
1168.69
1160.21
1151.8
1143.48
1135.27
1127.14
1119.13
1111.21
1103.39
1095.67
1088.07
1080.57
1073.18
1065.91
1058.75
1051.7
1044.77
1037.95
1031.25
1024.68
1018.24
1011.98
1005.89
1000.06
994.486
989.221
984.296
979.536
975.254
970.685
967.063
963.603
958.302
959.59
953.53
955.242
947.946
867.848
841.581
896.721
998.784
1111.77
1105.8
898.913
700.81
731.151
849.533
948.661
1005.77
1046.95
1102.3
1158.23
1146.23
1070.64
919.102
753.231
647.228
633.575
654.15
723.681
753.21
783.807
1360.49
1353.44
1348.14
1344.68
1339.07
1333.94
1327.13
1321.44
1314.38
1308.1
1300.59
1293.7
1285.84
1278.43
1270.3
1262.47
1254.11
1245.93
1237.4
1228.99
1220.35
1211.79
1203.11
1194.49
1185.84
1177.25
1168.69
1160.21
1151.8
1143.48
1135.27
1127.14
1119.13
1111.21
1103.39
1095.67
1088.07
1080.57
1073.18
1065.91
1058.75
1051.7
1044.77
1037.95
1031.25
1024.68
1018.24
1011.98
1005.89
1000.06
994.485
989.22
984.294
979.533
975.251
970.681
967.059
963.59
958.3
959.589
953.504
955.17
947.809
867.365
841.76
897.56
997.074
1112.06
1104.95
892.007
696.161
727.984
849.199
947.933
1005.19
1046.62
1100.49
1158.62
1145.29
1065.57
902.502
740.111
638.811
629.067
651.185
721.528
752.838
771.562
1360.48
1353.45
1348.15
1344.68
1339.07
1333.94
1327.13
1321.45
1314.38
1308.1
1300.59
1293.7
1285.84
1278.43
1270.3
1262.47
1254.11
1245.93
1237.41
1228.99
1220.35
1211.79
1203.11
1194.49
1185.84
1177.25
1168.69
1160.21
1151.8
1143.48
1135.27
1127.14
1119.13
1111.21
1103.39
1095.67
1088.07
1080.57
1073.18
1065.91
1058.75
1051.7
1044.77
1037.95
1031.25
1024.68
1018.24
1011.98
1005.89
1000.06
994.483
989.217
984.289
979.528
975.242
970.674
967.049
963.567
958.296
959.58
953.449
955.054
947.54
866.872
841.771
898.988
995.94
1112.57
1104.08
883.763
692.143
723.712
848.503
946.981
1004.53
1046.39
1099.38
1159.79
1146.05
1057.97
883.848
726.861
629.721
623.834
647.82
718.708
755.261
767.643
1360.48
1353.46
1348.15
1344.68
1339.07
1333.94
1327.14
1321.45
1314.38
1308.1
1300.59
1293.7
1285.84
1278.43
1270.3
1262.47
1254.11
1245.93
1237.41
1228.99
1220.35
1211.79
1203.11
1194.49
1185.84
1177.25
1168.69
1160.21
1151.8
1143.48
1135.27
1127.14
1119.13
1111.21
1103.39
1095.67
1088.07
1080.57
1073.18
1065.91
1058.75
1051.7
1044.77
1037.95
1031.25
1024.68
1018.24
1011.98
1005.89
1000.05
994.479
989.21
984.28
979.517
975.225
970.66
967.026
963.529
958.285
959.543
953.348
954.827
947.048
866.798
841.746
901.085
996.002
1111.98
1102.37
874.016
690.197
719.75
847.68
945.846
1003.92
1046.32
1099.7
1160.68
1147.38
1046.87
864.788
714.932
621.424
618.96
644.645
713.189
759.995
779.906
1360.47
1353.48
1348.15
1344.68
1339.07
1333.94
1327.14
1321.45
1314.38
1308.1
1300.59
1293.7
1285.84
1278.43
1270.3
1262.47
1254.11
1245.93
1237.41
1228.99
1220.35
1211.79
1203.11
1194.49
1185.84
1177.25
1168.69
1160.21
1151.8
1143.48
1135.27
1127.14
1119.13
1111.21
1103.39
1095.67
1088.07
1080.57
1073.18
1065.91
1058.75
1051.7
1044.77
1037.95
1031.25
1024.68
1018.24
1011.97
1005.88
1000.05
994.47
989.198
984.264
979.496
975.194
970.635
966.976
963.467
958.252
959.44
953.188
954.382
946.218
867.794
842.721
904.084
997.429
1108.92
1098.51
862.743
691.703
718.311
847.358
944.676
1003.38
1046.53
1101.69
1160.2
1147.62
1032.05
847.464
705.797
614.739
615.027
643.835
708.459
767.211
811.218
1360.46
1353.5
1348.16
1344.69
1339.07
1333.94
1327.14
1321.45
1314.38
1308.1
1300.59
1293.7
1285.84
1278.43
1270.3
1262.47
1254.11
1245.93
1237.41
1228.99
1220.35
1211.79
1203.11
1194.49
1185.84
1177.25
1168.69
1160.21
1151.8
1143.48
1135.27
1127.15
1119.13
1111.21
1103.39
1095.68
1088.07
1080.57
1073.18
1065.91
1058.75
1051.7
1044.77
1037.95
1031.25
1024.68
1018.24
1011.97
1005.88
1000.04
994.456
989.177
984.235
979.461
975.139
970.59
966.881
963.373
958.176
959.224
952.953
953.582
945.01
870.743
846.492
908.311
999.46
1101.98
1090.61
852.043
697.428
722.112
848.567
943.717
1002.82
1046.91
1103.94
1156.98
1143.93
1013.59
829.952
698.201
611.627
611.317
644.345
706.787
774.751
833.441
1360.45
1353.52
1348.17
1344.69
1339.08
1333.94
1327.14
1321.45
1314.38
1308.1
1300.6
1293.7
1285.84
1278.43
1270.3
1262.47
1254.11
1245.94
1237.41
1228.99
1220.35
1211.79
1203.11
1194.49
1185.84
1177.25
1168.69
1160.21
1151.8
1143.48
1135.27
1127.15
1119.13
1111.21
1103.39
1095.68
1088.07
1080.57
1073.19
1065.91
1058.75
1051.7
1044.77
1037.95
1031.25
1024.67
1018.23
1011.96
1005.87
1000.02
994.434
989.144
984.192
979.405
975.056
970.519
966.728
963.24
958.032
958.859
952.631
952.328
943.583
876.28
854.193
913.566
1000.57
1090.42
1077
844.185
708.811
733.452
852.263
943.125
1001.84
1046.79
1104.02
1150.16
1133.17
992.525
812.214
687.607
610.128
607.011
645.022
707.464
778.505
832.584
1360.43
1353.55
1348.18
1344.7
1339.08
1333.95
1327.14
1321.45
1314.38
1308.1
1300.6
1293.7
1285.84
1278.44
1270.3
1262.47
1254.11
1245.94
1237.41
1228.99
1220.35
1211.79
1203.11
1194.49
1185.84
1177.25
1168.69
1160.21
1151.8
1143.48
1135.27
1127.15
1119.13
1111.21
1103.39
1095.68
1088.07
1080.57
1073.19
1065.91
1058.75
1051.7
1044.77
1037.95
1031.25
1024.67
1018.23
1011.95
1005.85
999.997
994.404
989.099
984.132
979.326
974.941
970.416
966.512
963.057
957.813
958.339
952.199
950.679
942.16
884.024
865.088
919.239
998.387
1074.06
1058.2
843.364
727.677
752.889
858.897
942.795
999.69
1044.82
1098.7
1137.88
1113.92
970.516
798.332
678.981
612.897
608.987
649.646
710.002
778.165
826.922
1360.41
1353.58
1348.19
1344.7
1339.08
1333.95
1327.14
1321.45
1314.38
1308.11
1300.6
1293.7
1285.84
1278.44
1270.3
1262.47
1254.11
1245.94
1237.41
1228.99
1220.35
1211.79
1203.11
1194.49
1185.84
1177.25
1168.69
1160.21
1151.8
1143.49
1135.27
1127.15
1119.13
1111.21
1103.39
1095.68
1088.07
1080.57
1073.19
1065.92
1058.75
1051.71
1044.77
1037.95
1031.24
1024.66
1018.22
1011.93
1005.83
999.968
994.365
989.042
984.055
979.225
974.793
970.276
966.24
962.81
957.524
957.663
951.642
948.833
940.837
892.845
877.348
924.677
992.227
1053.12
1035.53
854.581
758.126
781.074
868.88
942.571
995.44
1039.1
1085.58
1116.53
1085.5
949.194
792.215
681.5
625.735
621.814
660.031
714.249
773.72
815.048
1360.39
1353.62
1348.2
1344.71
1339.09
1333.95
1327.14
1321.45
1314.38
1308.11
1300.6
1293.7
1285.84
1278.44
1270.3
1262.47
1254.11
1245.94
1237.41
1228.99
1220.35
1211.79
1203.11
1194.49
1185.84
1177.25
1168.69
1160.21
1151.8
1143.49
1135.27
1127.15
1119.13
1111.21
1103.4
1095.68
1088.08
1080.58
1073.19
1065.92
1058.76
1051.71
1044.77
1037.95
1031.24
1024.66
1018.21
1011.92
1005.81
999.932
994.316
988.97
983.956
979.097
974.607
970.092
965.912
962.481
957.171
956.817
950.961
946.968
939.642
901.669
889.546
929.088
983.708
1030.17
1012.69
875.044
797.769
813.924
880.751
941.768
988.383
1027.54
1063.63
1084.69
1049.68
930.577
795.96
698.852
651.841
647.375
677.575
720.365
765.123
795.519
1360.37
1353.67
1348.22
1344.71
1339.09
1333.95
1327.15
1321.45
1314.39
1308.11
1300.6
1293.7
1285.84
1278.44
1270.3
1262.47
1254.11
1245.94
1237.41
1228.99
1220.36
1211.79
1203.12
1194.49
1185.84
1177.25
1168.69
1160.21
1151.8
1143.49
1135.27
1127.15
1119.13
1111.21
1103.4
1095.68
1088.08
1080.58
1073.19
1065.92
1058.76
1051.71
1044.77
1037.95
1031.24
1024.65
1018.19
1011.9
1005.78
999.888
994.255
988.88
983.832
978.935
974.375
969.849
965.519
962.047
956.739
955.786
950.139
945.193
938.548
909.809
900.738
932.038
974
1007.13
991.224
894.128
835.587
844.378
891.914
939.505
977.952
1009.98
1033.99
1043.89
1009.43
915.961
810.663
731.996
692.351
685.033
702.402
728.348
754.336
769.392
1360.34
1353.73
1348.24
1344.72
1339.1
1333.96
1327.15
1321.46
1314.39
1308.11
1300.6
1293.7
1285.85
1278.44
1270.3
1262.47
1254.11
1245.94
1237.41
1228.99
1220.36
1211.79
1203.12
1194.49
1185.84
1177.25
1168.69
1160.21
1151.81
1143.49
1135.27
1127.15
1119.14
1111.22
1103.4
1095.69
1088.08
1080.58
1073.2
1065.93
1058.76
1051.71
1044.77
1037.95
1031.23
1024.64
1018.18
1011.87
1005.74
999.832
994.176
988.767
983.673
978.73
974.085
969.531
965.048
961.482
956.2
954.563
949.146
943.551
937.526
916.778
910.244
933.316
963.395
984.843
970.985
906.565
865.155
868.861
900.562
935.195
964.26
987.452
1000.64
1000.68
970.129
903.555
829.158
770.58
736.82
724.036
726.653
734.638
741.952
741.634
1360.3
1353.79
1348.26
1344.73
1339.11
1333.96
1327.15
1321.46
1314.39
1308.11
1300.6
1293.71
1285.85
1278.44
1270.31
1262.47
1254.11
1245.94
1237.41
1228.99
1220.36
1211.79
1203.12
1194.49
1185.84
1177.25
1168.7
1160.21
1151.81
1143.49
1135.28
1127.15
1119.14
1111.22
1103.4
1095.69
1088.09
1080.59
1073.21
1065.93
1058.77
1051.72
1044.78
1037.95
1031.23
1024.63
1018.16
1011.84
1005.7
999.762
994.077
988.624
983.471
978.469
973.722
969.114
964.478
960.752
955.516
953.141
947.949
942.021
936.541
922.203
917.513
932.924
952.435
964.621
953.159
913.068
885.626
886.251
905.565
928.339
947.63
961.434
966.044
959.325
933.642
887.811
837.155
794.712
765.904
748.933
740.51
734.966
728.621
717.598
1360.26
1353.86
1348.28
1344.74
1339.12
1333.97
1327.16
1321.46
1314.39
1308.12
1300.61
1293.71
1285.85
1278.44
1270.31
1262.48
1254.11
1245.94
1237.41
1228.99
1220.36
1211.79
1203.12
1194.49
1185.85
1177.25
1168.7
1160.21
1151.81
1143.49
1135.28
1127.16
1119.14
1111.22
1103.41
1095.7
1088.09
1080.6
1073.21
1065.94
1058.78
1051.73
1044.78
1037.95
1031.22
1024.62
1018.14
1011.8
1005.64
999.673
993.948
988.441
983.212
978.133
973.264
968.57
963.781
959.823
954.634
951.516
946.504
940.522
935.485
925.807
922.225
930.974
941.93
947.445
938.496
914.812
897.501
896.139
906.051
918.579
928.738
934.103
932.228
921.717
900.188
868.323
833.469
802.256
777.678
759.024
744.56
731.402
717.698
701.423
1360.22
1353.94
1348.31
1344.76
1339.12
1333.98
1327.16
1321.47
1314.4
1308.12
1300.61
1293.71
1285.85
1278.45
1270.31
1262.48
1254.11
1245.94
1237.41
1228.99
1220.36
1211.79
1203.12
1194.5
1185.85
1177.25
1168.7
1160.21
1151.81
1143.5
1135.28
1127.16
1119.15
1111.23
1103.42
1095.7
1088.1
1080.61
1073.22
1065.95
1058.79
1051.74
1044.79
1037.95
1031.22
1024.6
1018.11
1011.75
1005.56
999.559
993.781
988.205
982.878
977.701
972.688
967.863
962.916
958.659
953.49
949.675
944.753
938.899
934.151
927.432
924.225
927.677
932.305
933.37
926.454
912.576
901.606
898.676
901.691
906.099
908.733
907.665
901.493
889.585
871.544
848.431
823.508
799.754
778.656
760.063
743.264
726.958
710.411
692.659
1360.16
1354.04
1348.35
1344.77
1339.13
1333.98
1327.16
1321.47
1314.4
1308.12
1300.61
1293.72
1285.85
1278.45
1270.31
1262.48
1254.11
1245.95
1237.41
1229
1220.36
1211.8
1203.12
1194.5
1185.85
1177.26
1168.7
1160.22
1151.81
1143.5
1135.28
1127.17
1119.15
1111.23
1103.42
1095.71
1088.11
1080.62
1073.24
1065.97
1058.8
1051.75
1044.8
1037.95
1031.21
1024.58
1018.07
1011.69
1005.46
999.409
993.561
987.898
982.449
977.143
971.957
966.952
961.828
957.218
952.005
947.573
942.613
936.933
932.256
927.032
923.593
923.211
923.445
921.648
915.867
906.988
899.188
894.822
893.02
891.596
888.775
883.39
874.745
862.658
847.281
829.374
810.32
791.374
773.226
755.933
739.305
722.858
706.407
689.574
1360.1
1354.14
1348.38
1344.79
1339.14
1333.99
1327.17
1321.48
1314.4
1308.13
1300.61
1293.72
1285.85
1278.45
1270.3
1262.49
1254.11
1245.95
1237.41
1229
1220.35
1211.8
1203.12
1194.5
1185.85
1177.26
1168.7
1160.22
1151.82
1143.5
1135.29
1127.17
1119.16
1111.24
1103.43
1095.73
1088.13
1080.64
1073.26
1065.99
1058.82
1051.77
1044.81
1037.96
1031.21
1024.56
1018.02
1011.61
1005.33
999.212
993.273
987.497
981.894
976.421
971.029
965.788
960.449
955.446
950.089
945.117
939.968
934.353
929.482
924.648
920.577
917.569
914.857
911.13
905.555
898.585
891.782
886.054
881.053
875.831
869.538
861.606
851.753
839.975
826.473
811.672
796.15
780.422
764.811
749.417
734.252
719.183
704.236
689.298
1360.03
1354.24
1348.42
1344.8
1339.15
1334
1327.17
1321.49
1314.4
1308.14
1300.6
1293.73
1285.84
1278.46
1270.3
1262.49
1254.11
1245.96
1237.4
1229.01
1220.35
1211.8
1203.11
1194.51
1185.85
1177.26
1168.7
1160.23
1151.82
1143.51
1135.3
1127.18
1119.17
1111.26
1103.45
1095.74
1088.15
1080.66
1073.28
1066.01
1058.85
1051.79
1044.83
1037.96
1031.2
1024.53
1017.95
1011.49
1005.15
998.95
992.893
986.971
981.179
975.491
969.851
964.313
958.7
953.266
947.642
942.162
936.66
930.872
925.529
920.347
915.427
910.604
905.886
900.692
894.644
887.879
880.885
873.951
866.941
859.498
851.284
842.081
831.809
820.512
808.331
795.481
782.209
768.735
755.221
741.751
728.387
715.115
702.014
689.059
1359.96
1354.35
1348.46
1344.82
1339.16
1334.02
1327.16
1321.5
1314.39
1308.15
1300.6
1293.74
1285.84
1278.47
1270.29
1262.5
1254.1
1245.96
1237.4
1229.01
1220.35
1211.81
1203.11
1194.51
1185.85
1177.27
1168.71
1160.24
1151.83
1143.52
1135.31
1127.19
1119.18
1111.27
1103.46
1095.76
1088.17
1080.68
1073.31
1066.04
1058.87
1051.81
1044.84
1037.97
1031.18
1024.48
1017.86
1011.34
1004.92
998.6
992.394
986.286
980.262
974.303
968.359
962.459
956.491
950.579
944.548
938.521
932.49
926.232
920.153
914.192
908.334
902.153
895.976
889.557
882.7
875.396
867.759
859.857
851.651
843.03
833.894
824.188
813.913
803.116
791.886
780.328
768.556
756.672
744.761
732.877
721.078
709.368
697.829
686.443
1359.9
1354.45
1348.49
1344.84
1339.16
1334.04
1327.16
1321.51
1314.38
1308.16
1300.59
1293.75
1285.83
1278.48
1270.28
1262.51
1254.09
1245.98
1237.39
1229.03
1220.35
1211.82
1203.11
1194.52
1185.85
1177.28
1168.71
1160.25
1151.83
1143.53
1135.31
1127.21
1119.19
1111.29
1103.48
1095.78
1088.19
1080.71
1073.34
1066.07
1058.9
1051.83
1044.86
1037.96
1031.15
1024.41
1017.74
1011.13
1004.6
998.14
991.745
985.404
979.096
972.805
966.487
960.153
953.731
947.269
940.682
934.002
927.254
920.241
913.193
906.228
899.412
892.119
884.793
877.327
869.6
861.567
853.236
844.618
835.714
826.505
816.979
807.139
797.008
786.624
776.038
765.305
754.482
743.619
732.763
721.942
711.198
700.529
690.008
679.606
1359.85
1354.53
1348.52
1344.86
1339.15
1334.06
1327.14
1321.54
1314.37
1308.19
1300.57
1293.78
1285.81
1278.51
1270.27
1262.54
1254.09
1246
1237.39
1229.05
1220.34
1211.84
1203.11
1194.54
1185.85
1177.3
1168.72
1160.26
1151.84
1143.55
1135.33
1127.22
1119.21
1111.3
1103.5
1095.8
1088.22
1080.73
1073.36
1066.09
1058.92
1051.85
1044.86
1037.95
1031.11
1024.32
1017.59
1010.89
1004.24
997.62
991.019
984.424
977.812
971.165
964.447
957.652
950.731
943.692
936.481
929.094
921.558
913.683
905.635
897.706
890.06
881.902
873.714
865.442
856.998
848.341
839.457
830.349
821.029
811.505
801.789
791.897
781.853
771.685
761.425
751.104
740.756
730.407
720.084
709.805
699.598
689.456
679.443
669.525
1359.82
1354.57
1348.53
1344.89
1339.14
1334.09
1327.13
1321.57
1314.35
1308.22
1300.55
1293.81
1285.79
1278.54
1270.26
1262.57
1254.07
1246.03
1237.38
1229.08
1220.34
1211.87
1203.11
1194.56
1185.86
1177.32
1168.72
1160.28
1151.85
1143.56
1135.33
1127.23
1119.22
1111.32
1103.51
1095.82
1088.23
1080.75
1073.38
1066.11
1058.94
1051.86
1044.86
1037.94
1031.06
1024.24
1017.44
1010.66
1003.89
997.107
990.306
983.465
976.559
969.567
962.459
955.221
947.808
940.215
932.392
924.327
916.044
907.358
898.413
889.653
881.322
872.48
863.627
854.728
845.717
836.557
827.237
817.757
808.134
798.382
788.517
778.554
768.515
758.417
748.283
738.133
727.988
717.864
707.779
697.744
687.779
677.879
668.094
658.397
1359.82
1354.59
1348.52
1344.91
1339.12
1334.12
1327.1
1321.6
1314.32
1308.26
1300.53
1293.85
1285.77
1278.58
1270.24
1262.61
1254.06
1246.07
1237.37
1229.11
1220.34
1211.9
1203.12
1194.59
1185.86
1177.34
1168.73
1160.3
1151.86
1143.58
1135.34
1127.25
1119.23
1111.33
1103.53
1095.83
1088.24
1080.77
1073.39
1066.12
1058.95
1051.87
1044.86
1037.92
1031.02
1024.15
1017.29
1010.43
1003.54
996.609
989.615
982.534
975.341
968.014
960.523
952.85
944.953
936.819
928.403
919.691
910.707
901.27
891.509
882.005
873.073
863.642
854.218
844.782
835.278
825.678
815.971
806.159
796.26
786.287
776.256
766.18
756.072
745.949
735.825
725.713
715.629
705.585
695.592
685.659
675.8
666.014
656.339
646.757
1359.84
1354.57
1348.49
1344.94
1339.1
1334.15
1327.07
1321.64
1314.29
1308.3
1300.5
1293.89
1285.74
1278.62
1270.22
1262.65
1254.04
1246.11
1237.36
1229.14
1220.33
1211.93
1203.11
1194.62
1185.86
1177.36
1168.73
1160.31
1151.86
1143.59
1135.35
1127.26
1119.24
1111.34
1103.54
1095.85
1088.25
1080.77
1073.4
1066.13
1058.96
1051.87
1044.86
1037.9
1030.98
1024.07
1017.16
1010.22
1003.22
996.146
988.968
981.66
974.193
966.544
958.683
950.59
942.226
933.574
924.598
915.287
905.661
895.544
885.048
874.871
865.393
855.424
845.48
835.551
825.59
815.576
805.501
795.368
785.193
774.99
764.771
754.546
744.327
734.124
723.948
713.81
703.719
693.685
683.716
673.82
664.004
654.273
644.656
635.141
1359.89
1354.53
1348.46
1344.96
1339.07
1334.18
1327.04
1321.68
1314.26
1308.34
1300.46
1293.94
1285.71
1278.67
1270.19
1262.7
1254.02
1246.15
1237.35
1229.19
1220.33
1211.97
1203.11
1194.65
1185.87
1177.39
1168.74
1160.33
1151.87
1143.6
1135.36
1127.27
1119.25
1111.35
1103.54
1095.85
1088.26
1080.78
1073.41
1066.13
1058.96
1051.86
1044.85
1037.88
1030.95
1024.01
1017.05
1010.03
1002.94
995.732
988.385
980.867
973.144
965.19
956.977
948.481
939.671
930.531
921.035
911.174
900.969
890.237
879.069
868.26
858.259
847.774
837.327
826.919
816.512
806.09
795.647
785.189
774.73
764.281
753.854
743.457
733.096
722.78
712.517
702.315
692.179
682.119
672.139
662.245
652.445
642.741
633.157
623.685
1359.95
1354.46
1348.41
1344.98
1339.04
1334.22
1327
1321.73
1314.22
1308.39
1300.43
1293.99
1285.68
1278.72
1270.16
1262.75
1254
1246.2
1237.33
1229.23
1220.32
1212.01
1203.11
1194.68
1185.87
1177.41
1168.75
1160.35
1151.89
1143.61
1135.37
1127.27
1119.26
1111.35
1103.56
1095.84
1088.27
1080.76
1073.41
1066.11
1058.96
1051.85
1044.85
1037.86
1030.93
1023.95
1016.97
1009.89
1002.73
995.415
987.937
980.245
972.313
964.102
955.589
946.746
937.556
927.999
918.073
907.762
897.087
885.851
874.12
862.758
852.288
841.332
830.423
819.574
808.755
797.956
787.175
776.416
765.693
755.017
744.395
733.833
723.337
712.909
702.556
692.283
682.094
671.994
661.989
652.082
642.28
632.584
623.02
613.578
1360.01
1354.38
1348.37
1345
1339.01
1334.25
1326.97
1321.77
1314.18
1308.44
1300.39
1294.04
1285.65
1278.77
1270.13
1262.8
1253.98
1246.24
1237.32
1229.27
1220.31
1212.04
1203.11
1194.71
1185.88
1177.43
1168.76
1160.35
1151.9
1143.61
1135.39
1127.26
1119.28
1111.33
1103.57
1095.82
1088.28
1080.74
1073.42
1066.09
1058.97
1051.82
1044.86
1037.83
1030.93
1023.91
1016.93
1009.8
1002.6
995.197
987.633
979.81
971.73
963.322
954.585
945.467
935.986
926.103
915.858
905.212
894.193
882.583
870.417
858.605
847.739
836.383
825.078
813.848
802.673
791.55
780.476
769.458
758.508
747.636
736.847
726.144
715.527
704.999
694.561
684.217
673.969
663.821
653.775
643.833
634
624.276
614.684
605.214
1360.07
1354.3
1348.32
1345.01
1338.98
1334.27
1326.94
1321.8
1314.15
1308.48
1300.36
1294.08
1285.62
1278.81
1270.11
1262.84
1253.96
1246.28
1237.31
1229.3
1220.31
1212.07
1203.11
1194.73
1185.89
1177.44
1168.77
1160.35
1151.92
1143.6
1135.41
1127.25
1119.3
1111.31
1103.6
1095.79
1088.3
1080.71
1073.44
1066.05
1058.99
1051.79
1044.88
1037.8
1030.94
1023.87
1016.92
1009.72
1002.52
995.042
987.436
979.504
971.33
962.765
953.867
944.526
934.828
924.684
914.204
903.308
892.041
880.154
867.652
855.469
844.269
832.567
820.918
809.356
797.875
786.472
775.147
763.907
752.765
741.728
730.804
719.987
709.277
698.671
688.169
677.77
667.476
657.288
647.207
637.235
627.375
617.625
608.009
598.516
1360.13
1354.21
1348.28
1345.02
1338.96
1334.29
1326.91
1321.82
1314.12
1308.5
1300.33
1294.11
1285.59
1278.85
1270.08
1262.87
1253.94
1246.31
1237.29
1229.33
1220.3
1212.09
1203.12
1194.74
1185.89
1177.44
1168.79
1160.35
1151.93
1143.59
1135.44
1127.23
1119.33
1111.28
1103.62
1095.76
1088.33
1080.66
1073.47
1066
1059.02
1051.74
1044.91
1037.75
1030.97
1023.83
1016.94
1009.66
1002.49
994.924
987.317
979.283
971.064
962.365
953.362
943.834
933.977
923.619
912.969
901.886
890.444
878.357
865.599
853.115
841.63
829.632
817.68
805.836
794.091
782.45
770.908
759.476
748.169
736.996
725.96
715.057
704.278
693.618
683.07
672.633
662.305
652.09
641.981
631.983
622.094
612.314
602.665
593.139
1360.19
1354.13
1348.25
1345.02
1338.94
1334.3
1326.89
1321.84
1314.1
1308.53
1300.31
1294.14
1285.57
1278.87
1270.07
1262.89
1253.93
1246.33
1237.29
1229.35
1220.3
1212.1
1203.12
1194.75
1185.9
1177.44
1168.8
1160.34
1151.95
1143.57
1135.46
1127.2
1119.36
1111.25
1103.66
1095.72
1088.37
1080.62
1073.5
1065.95
1059.06
1051.68
1044.95
1037.7
1031.01
1023.77
1016.97
1009.59
1002.49
994.824
987.254
979.113
970.895
962.071
953.014
943.319
933.355
922.816
912.047
900.825
889.261
877.035
864.085
851.36
839.635
827.381
815.17
803.085
791.118
779.274
767.544
755.944
744.492
733.2
722.076
711.108
700.286
689.594
679.024
668.57
658.23
648.003
637.884
627.87
617.96
608.15
598.463
588.891
1360.23
1354.06
1348.22
1345.02
1338.92
1334.31
1326.88
1321.86
1314.09
1308.54
1300.3
1294.16
1285.56
1278.89
1270.05
1262.91
1253.92
1246.35
1237.28
1229.36
1220.29
1212.11
1203.12
1194.75
1185.91
1177.44
1168.81
1160.33
1151.97
1143.56
1135.48
1127.18
1119.38
1111.22
1103.69
1095.68
1088.4
1080.57
1073.54
1065.9
1059.1
1051.62
1045