/*--------------------------------*- C++ -*----------------------------------*\
| =========                 |                                                 |
| \\      /  F ield         | OpenFOAM: The Open Source CFD Toolbox           |
|  \\    /   O peration     | Version:  2306                                  |
|   \\  /    A nd           | Website:  www.openfoam.com                      |
|    \\/     M anipulation  |                                                 |
\*---------------------------------------------------------------------------*/
FoamFile
{
    version     2.0;
    format      ascii;
    arch        "LSB;label=32;scalar=64";
    class       surfaceScalarField;
    location    "2000";
    object      phi;
}
// * * * * * * * * * * * * * * * * * * * * * * * * * * * * * * * * * * * * * //

dimensions      [0 3 -1 0 0 0 0];

oriented        oriented;

internalField   nonuniform List<scalar> 
40747
(
1.75295e-05
-2.64923e-06
7.49335e-06
1.00355e-05
2.11716e-05
-5.82027e-06
1.52897e-05
1.33732e-05
2.55058e-05
-9.55091e-06
2.31072e-05
1.76849e-05
3.06132e-05
-1.38228e-05
3.05568e-05
2.31581e-05
3.65564e-05
-1.85144e-05
3.7149e-05
2.99555e-05
4.33743e-05
-2.33425e-05
4.23307e-05
3.81796e-05
5.10947e-05
-2.78085e-05
4.55753e-05
4.78316e-05
5.97956e-05
-3.11987e-05
4.65471e-05
5.87981e-05
6.97557e-05
-3.27225e-05
4.53373e-05
7.09305e-05
8.17031e-05
-3.18874e-05
4.2683e-05
8.43105e-05
9.70054e-05
-2.90483e-05
3.99245e-05
9.97022e-05
0.000117368
-2.56359e-05
3.83842e-05
0.000118829
0.000143809
-2.33367e-05
3.83439e-05
0.000143751
0.000176021
-2.26085e-05
3.88329e-05
0.000175411
0.000213747
-2.25396e-05
3.89053e-05
0.000213526
0.000258458
-2.23414e-05
3.85435e-05
0.000258639
0.000312523
-2.19637e-05
3.80317e-05
0.000312815
0.000378059
-2.14995e-05
3.74217e-05
0.0003784
0.000457346
-2.09367e-05
3.66693e-05
0.000457772
0.000553257
-2.02502e-05
3.57477e-05
0.000553784
0.000669292
-1.94215e-05
3.46274e-05
0.000669933
0.000809674
-1.84326e-05
3.3273e-05
0.000810447
0.000979513
-1.72656e-05
3.1645e-05
0.000980436
0.00118499
-1.59042e-05
2.96988e-05
0.00118608
0.00143359
-1.43347e-05
2.73848e-05
0.00143487
0.00173437
-1.25476e-05
2.46477e-05
0.00173586
0.00209826
-1.05389e-05
2.14257e-05
0.00209998
0.00253852
-8.26478e-06
1.77074e-05
0.0025405
0.00307115
-5.64016e-06
1.35928e-05
0.00307342
0.00371552
-2.60234e-06
8.99654e-06
0.00371813
0.00356028
-1.36548e-07
4.41075e-06
0.00356269
0.00356035
2.13783e-06
-2.07508e-07
0.00356274
0.00356034
4.39035e-06
-4.8175e-06
0.00356273
0.00356024
6.83149e-06
-9.28762e-06
0.00356269
0.00360275
9.61072e-06
-1.37034e-05
0.00360533
0.00299689
1.18786e-05
-1.76863e-05
0.00299915
0.00249291
1.37769e-05
-2.12196e-05
0.00249488
0.00207368
1.5393e-05
-2.43124e-05
0.00207541
0.00172497
1.67807e-05
-2.69896e-05
0.00172646
0.0014349
1.79748e-05
-2.92859e-05
0.0014362
0.00119362
1.90001e-05
-3.12397e-05
0.00119473
0.000992929
1.98754e-05
-3.28905e-05
0.000993872
0.000825987
2.06169e-05
-3.42762e-05
0.000826782
0.000687122
2.12388e-05
-3.54327e-05
0.000687787
0.000571611
2.17545e-05
-3.63935e-05
0.000572161
0.000475525
2.21767e-05
-3.71852e-05
0.000475974
0.000395593
2.25206e-05
-3.78288e-05
0.000395953
0.000329089
2.2809e-05
-3.83621e-05
0.000329388
0.000273814
2.30028e-05
-3.88073e-05
0.000274066
0.000227948
2.30016e-05
-3.89969e-05
0.000227978
0.000189498
2.31329e-05
-3.8682e-05
0.000189051
0.000156537
2.43491e-05
-3.82571e-05
0.000156002
0.000128502
2.70824e-05
-3.87877e-05
0.000128942
0.000105911
3.03474e-05
-4.07988e-05
0.00010785
8.86407e-05
3.25338e-05
-4.35985e-05
9.13834e-05
7.54647e-05
3.26323e-05
-4.58759e-05
7.76978e-05
6.49023e-05
3.05951e-05
-4.65411e-05
6.55335e-05
5.59104e-05
2.69857e-05
-4.50886e-05
5.4432e-05
4.79713e-05
2.25268e-05
-4.1544e-05
4.44074e-05
4.08956e-05
1.78316e-05
-3.62605e-05
3.55982e-05
3.46313e-05
1.33174e-05
-2.97281e-05
2.80889e-05
2.91549e-05
9.21791e-06
-2.24449e-05
2.18644e-05
2.44307e-05
5.63008e-06
-1.48481e-05
1.68275e-05
2.04022e-05
2.56927e-06
-7.28204e-06
1.28329e-05
1.69983e-05
9.71631e-06
7.13242e-07
9.32045e-06
3.59876e-07
3.52672e-07
2.86066e-07
7.23441e-08
2.48887e-07
3.74112e-08
2.25184e-07
2.27175e-08
2.08514e-07
1.74839e-08
1.95333e-07
1.25696e-08
1.85156e-07
1.12139e-08
1.76745e-07
8.10705e-09
1.70151e-07
7.78895e-09
1.64487e-07
5.72147e-09
1.59979e-07
5.85864e-09
1.56018e-07
4.41202e-09
1.52871e-07
4.64369e-09
1.50093e-07
3.62186e-09
1.47905e-07
3.8224e-09
1.45986e-07
3.12539e-09
1.44494e-07
3.25329e-09
1.43207e-07
2.80564e-09
1.42222e-07
2.85367e-09
1.41401e-07
2.58325e-09
1.40793e-07
2.55942e-09
1.40322e-07
2.40518e-09
1.39999e-07
2.32981e-09
1.39788e-07
2.24964e-09
1.39676e-07
2.1475e-09
1.39648e-07
2.11134e-09
1.39681e-07
1.99927e-09
1.39776e-07
1.97924e-09
1.39913e-07
1.86169e-09
1.40102e-07
1.83233e-09
1.40325e-07
1.70802e-09
1.40594e-07
1.65232e-09
1.40891e-07
1.52241e-09
1.41221e-07
1.43639e-09
1.41568e-07
1.30753e-09
1.41931e-07
1.20051e-09
1.423e-07
1.08384e-09
1.42669e-07
9.74561e-10
1.43029e-07
8.87544e-10
1.43368e-07
8.03726e-10
1.43674e-07
7.74888e-10
1.4392e-07
7.54136e-10
1.44084e-07
8.21606e-10
1.44123e-07
8.98413e-10
1.43987e-07
1.09494e-09
1.43623e-07
1.27366e-09
1.42938e-07
1.59703e-09
1.41855e-07
1.88039e-09
1.40347e-07
2.24338e-09
1.38221e-07
2.75721e-09
1.35819e-07
3.22433e-09
1.32628e-07
4.16531e-09
1.29545e-07
5.72169e-09
1.25418e-07
6.00979e-09
1.19838e-07
1.22318e-08
1.1195e-07
9.34729e-09
9.88113e-08
2.36718e-08
9.19937e-08
4.88278e-09
5.066e-08
5.19257e-08
6.57833e-08
-2.08804e-08
2.18111e-07
-1.4601e-07
1.69156e-07
5.08309e-08
-2.7139e-07
4.47435e-07
-7.00332e-07
4.6378e-07
-7.63628e-07
5.06389e-08
-3.04669e-07
-4.42814e-07
1.0104e-06
-1.33892e-06
2.27202e-06
-1.2721e-06
1.75657e-06
5.10901e-07
-2.47914e-07
2.00806e-06
-1.15428e-06
8.4092e-07
-8.60873e-07
-2.88323e-07
-5.29696e-07
-3.60015e-07
-4.14553e-07
-1.07724e-07
-2.91056e-07
-5.61978e-08
1.61941e-07
-4.64022e-07
1.03354e-06
-8.51789e-07
1.97852e-06
-9.67108e-07
2.73303e-06
-7.5641e-07
2.84091e-06
-1.23998e-07
1.60311e-06
1.23115e-06
-2.74723e-07
1.83401e-06
-1.09241e-06
8.06922e-07
-1.26185e-06
1.63966e-07
-1.09655e-06
-1.33438e-07
-1.00119e-06
-4.49402e-08
-2.06288e-06
1.12283e-06
2.61518e-06
2.00729e-05
1.40277e-06
1.56316e-06
1.11577e-06
3.54939e-07
9.72047e-07
1.81993e-07
8.79575e-07
1.12229e-07
8.15348e-07
8.42768e-08
7.6415e-07
6.19383e-08
7.25261e-07
5.33428e-08
6.92393e-07
4.01081e-08
6.67192e-07
3.67166e-08
6.44725e-07
2.84486e-08
6.27355e-07
2.7436e-08
6.11332e-07
2.1914e-08
5.98931e-07
2.17007e-08
5.87359e-07
1.78809e-08
5.78332e-07
1.79282e-08
5.6997e-07
1.52865e-08
5.63324e-07
1.53658e-08
5.57314e-07
1.35643e-08
5.52388e-07
1.35733e-08
5.48099e-07
1.23566e-08
5.44447e-07
1.22547e-08
5.41413e-07
1.14367e-08
5.38715e-07
1.1235e-08
5.36578e-07
1.0694e-08
5.34583e-07
1.04251e-08
5.33062e-07
1.00629e-08
5.31586e-07
9.73937e-09
5.30503e-07
9.45334e-09
5.29449e-07
9.06517e-09
5.28727e-07
8.76755e-09
5.28054e-07
8.31277e-09
5.27637e-07
7.95753e-09
5.27271e-07
7.45905e-09
5.27058e-07
7.04524e-09
5.26868e-07
6.54661e-09
5.26718e-07
6.11238e-09
5.26549e-07
5.67369e-09
5.26315e-07
5.29032e-09
5.26e-07
4.99498e-09
5.25505e-07
4.77075e-09
5.24831e-07
4.73993e-09
5.23811e-07
4.82339e-09
5.22434e-07
5.21281e-09
5.20437e-07
5.76045e-09
5.17741e-07
6.72326e-09
5.1397e-07
7.81139e-09
5.08914e-07
9.40778e-09
5.02087e-07
1.10889e-08
4.93452e-07
1.30676e-08
4.82527e-07
1.5628e-08
4.70271e-07
1.82335e-08
4.55589e-07
2.20641e-08
4.41234e-07
2.89707e-08
4.22958e-07
3.00892e-08
4.03543e-07
5.29004e-08
3.73015e-07
4.37617e-08
3.36807e-07
9.25245e-08
3.19025e-07
1.54506e-08
1.81524e-07
2.20599e-07
3.47195e-07
-2.05367e-07
5.46462e-07
-3.25802e-07
3.40343e-07
2.69233e-07
-4.57868e-07
1.26528e-06
-1.65656e-06
1.75872e-06
-2.4956e-06
8.50246e-07
-1.51719e-06
-1.3891e-06
2.50688e-06
-5.40784e-06
6.91457e-06
-5.69761e-06
8.13976e-06
-7.41086e-07
1.43242e-06
8.72689e-06
-3.20698e-06
5.32127e-06
-3.25233e-06
-2.30146e-07
-2.18389e-06
-1.47097e-06
-1.44706e-06
-8.27446e-07
-1.04195e-06
-2.78406e-07
-7.93734e-08
-1.45711e-06
3.03919e-06
-3.93637e-06
6.23806e-06
-4.20331e-06
8.69884e-06
-3.22033e-06
9.56839e-06
-1.02571e-06
7.71891e-06
3.05366e-06
1.99432e-06
7.44343e-06
-2.60621e-06
5.39801e-06
-3.47205e-06
1.02626e-06
-3.68501e-06
1.50633e-07
-2.48268e-06
-1.12977e-06
-5.47747e-06
1.06806e-06
5.48581e-06
3.22625e-05
3.10699e-06
3.93883e-06
2.46952e-06
9.84633e-07
2.15019e-06
5.02995e-07
1.94511e-06
3.12068e-07
1.80188e-06
2.32166e-07
1.68853e-06
1.72053e-07
1.60159e-06
1.46144e-07
1.5288e-06
1.11402e-07
1.47218e-06
1.00073e-07
1.42245e-06
7.87198e-08
1.3833e-06
7.41889e-08
1.34784e-06
6.01071e-08
1.31983e-06
5.81128e-08
1.29421e-06
4.84115e-08
1.27382e-06
4.74726e-08
1.25527e-06
4.07256e-08
1.2403e-06
4.01845e-08
1.22693e-06
3.55092e-08
1.21588e-06
3.50431e-08
1.20632e-06
3.18027e-08
1.19817e-06
3.12473e-08
1.19139e-06
2.89929e-08
1.18543e-06
2.83193e-08
1.18066e-06
2.67637e-08
1.17631e-06
2.60084e-08
1.17294e-06
2.4922e-08
1.16978e-06
2.4083e-08
1.1674e-06
2.32181e-08
1.16517e-06
2.2245e-08
1.1636e-06
2.13846e-08
1.16218e-06
2.02579e-08
1.16127e-06
1.92936e-08
1.16051e-06
1.80713e-08
1.16006e-06
1.70128e-08
1.15969e-06
1.58109e-08
1.15941e-06
1.47566e-08
1.15912e-06
1.37267e-08
1.15871e-06
1.28459e-08
1.15814e-06
1.21929e-08
1.15723e-06
1.17455e-08
1.15595e-06
1.17668e-08
1.15397e-06
1.21155e-08
1.15125e-06
1.31961e-08
1.14727e-06
1.47303e-08
1.14182e-06
1.72727e-08
1.13421e-06
2.02125e-08
1.12393e-06
2.44346e-08
1.11007e-06
2.90169e-08
1.09251e-06
3.43523e-08
1.07008e-06
4.14444e-08
1.04495e-06
4.83498e-08
1.01418e-06
5.86154e-08
9.84223e-07
7.50697e-08
9.45822e-07
7.85502e-08
9.0256e-07
1.33712e-07
8.56682e-07
9.57882e-08
7.70978e-07
2.35068e-07
7.40729e-07
3.19236e-08
5.16428e-07
4.97995e-07
7.68878e-07
-4.90056e-07
1.14243e-06
-6.65994e-07
4.36011e-07
1.00224e-06
-1.43366e-06
3.16769e-06
-3.5764e-06
4.03568e-06
-4.18271e-06
1.40267e-06
-1.64103e-06
-3.89327e-06
5.96183e-06
-1.30579e-05
1.35308e-05
-1.32831e-05
1.43204e-05
-1.559e-06
1.9538e-06
2.11054e-05
-5.87797e-06
1.29572e-05
-4.98608e-06
-1.10603e-06
-3.37449e-06
-3.11836e-06
-2.25585e-06
-1.92178e-06
-1.11851e-06
-1.16205e-06
1.63067e-06
-4.24191e-06
6.80622e-06
-9.08132e-06
1.20858e-05
-9.5179e-06
1.63891e-05
-7.52667e-06
1.72699e-05
-1.94538e-06
1.23308e-05
7.96706e-06
5.56086e-07
1.91324e-05
-6.15295e-06
1.21067e-05
-6.34053e-06
1.21435e-06
-5.94447e-06
-1.64115e-07
-3.56264e-06
-3.36689e-06
-1.04941e-05
1.63365e-06
9.67248e-06
4.57324e-05
5.81227e-06
7.79394e-06
4.62294e-06
2.16072e-06
4.02486e-06
1.10412e-06
3.6404e-06
6.87508e-07
3.37141e-06
5.09311e-07
3.15917e-06
3.78707e-07
2.99585e-06
3.19714e-07
2.85937e-06
2.45332e-07
2.75264e-06
2.18591e-07
2.65923e-06
1.73146e-07
2.5852e-06
1.61516e-07
2.51844e-06
1.31708e-07
2.46527e-06
1.25965e-07
2.41682e-06
1.05471e-07
2.37792e-06
1.02345e-07
2.34264e-06
8.8066e-08
2.31387e-06
8.60832e-08
2.28821e-06
7.61281e-08
2.2668e-06
7.45468e-08
2.24817e-06
6.7578e-08
2.23221e-06
6.59998e-08
2.21876e-06
6.10849e-08
2.20689e-06
5.9398e-08
2.19719e-06
5.59435e-08
2.18835e-06
5.41811e-08
2.18129e-06
5.17188e-08
2.17468e-06
4.9851e-08
2.1695e-06
4.78791e-08
2.16464e-06
4.57845e-08
2.16096e-06
4.38605e-08
2.15761e-06
4.14861e-08
2.15517e-06
3.93917e-08
2.15303e-06
3.6853e-08
2.15145e-06
3.46193e-08
2.15003e-06
3.21587e-08
2.1488e-06
2.99949e-08
2.14754e-06
2.79247e-08
2.1461e-06
2.61729e-08
2.14439e-06
2.49069e-08
2.14208e-06
2.40875e-08
2.1391e-06
2.42223e-08
2.13492e-06
2.50589e-08
2.12939e-06
2.7365e-08
2.12167e-06
3.06278e-08
2.11135e-06
3.59272e-08
2.09728e-06
4.20753e-08
2.07854e-06
5.08477e-08
2.05357e-06
6.05306e-08
2.0222e-06
7.16866e-08
1.98209e-06
8.70271e-08
1.93724e-06
1.01488e-07
1.88202e-06
1.23385e-07
1.82789e-06
1.56034e-07
1.76005e-06
1.62618e-07
1.67893e-06
2.76137e-07
1.61697e-06
1.6702e-07
1.46108e-06
4.82946e-07
1.4049e-06
6.44238e-08
1.07359e-06
9.14409e-07
1.40993e-06
-8.78108e-07
1.84203e-06
-1.04341e-06
3.07653e-07
2.58351e-06
-2.86988e-06
6.39829e-06
-5.67369e-06
7.0127e-06
-5.4167e-06
1.07532e-06
-6.38493e-07
-8.61985e-06
1.05468e-05
-2.42944e-05
2.09179e-05
-2.36702e-05
1.83837e-05
9.4466e-07
7.25891e-07
3.877e-05
-8.51265e-06
2.19891e-05
-6.39449e-06
-3.20315e-06
-4.32347e-06
-5.23379e-06
-2.52184e-06
-3.68655e-06
-2.01092e-07
-3.19501e-06
4.61733e-06
-9.09847e-06
1.17961e-05
-1.62329e-05
1.92048e-05
-1.69611e-05
2.48938e-05
-1.32193e-05
2.2345e-05
5.59632e-07
7.13595e-06
2.31635e-05
-6.38348e-06
3.26187e-05
-9.13435e-06
1.48623e-05
-9.16011e-06
1.2428e-06
-8.00576e-06
-1.22389e-06
-4.2857e-06
-6.91355e-06
-1.70833e-05
2.48049e-06
1.55869e-05
6.00766e-05
9.98708e-06
1.3386e-05
7.97316e-06
4.15321e-06
6.94468e-06
2.13782e-06
6.2816e-06
1.33574e-06
5.81711e-06
9.87448e-07
5.45117e-06
7.35407e-07
5.16915e-06
6.18909e-07
4.93335e-06
4.76965e-07
4.74842e-06
4.23305e-07
4.58657e-06
3.368e-07
4.45785e-06
3.12518e-07
4.3418e-06
2.55963e-07
4.24893e-06
2.43415e-07
4.16427e-06
2.04604e-07
4.09587e-06
1.97414e-07
4.03373e-06
1.70365e-07
3.98269e-06
1.65634e-07
3.93698e-06
1.46718e-07
3.89853e-06
1.42978e-07
3.86485e-06
1.29656e-07
3.83572e-06
1.26114e-07
3.81086e-06
1.16633e-07
3.78874e-06
1.1303e-07
3.77029e-06
1.06271e-07
3.75338e-06
1.02624e-07
3.73948e-06
9.77137e-08
3.72643e-06
9.39439e-08
3.7158e-06
8.99684e-08
3.7058e-06
8.58501e-08
3.69779e-06
8.2013e-08
3.69038e-06
7.74476e-08
3.68451e-06
7.3361e-08
3.67917e-06
6.8558e-08
3.67477e-06
6.42934e-08
3.67069e-06
5.9699e-08
3.66692e-06
5.56525e-08
3.66315e-06
5.1841e-08
3.65911e-06
4.86372e-08
3.65464e-06
4.6357e-08
3.6492e-06
4.49299e-08
3.64269e-06
4.52432e-08
3.63423e-06
4.687e-08
3.62359e-06
5.11359e-08
3.60945e-06
5.71486e-08
3.5911e-06
6.68242e-08
3.5668e-06
7.80535e-08
3.53511e-06
9.39852e-08
3.49341e-06
1.11896e-07
3.44168e-06
1.32204e-07
3.37563e-06
1.61198e-07
3.30189e-06
1.87784e-07
3.21099e-06
2.28661e-07
3.12068e-06
2.86906e-07
3.01176e-06
2.95486e-07
2.8715e-06
5.07689e-07
2.79398e-06
2.57403e-07
2.54151e-06
8.71275e-07
2.43245e-06
1.36933e-07
2.00787e-06
1.46293e-06
2.37748e-06
-1.32419e-06
2.60083e-06
-1.17868e-06
-5.63418e-08
5.31689e-06
-4.54308e-06
1.09741e-05
-7.34784e-06
1.00342e-05
-5.55501e-06
-8.21243e-07
2.26424e-06
-1.63677e-05
1.70725e-05
-3.91426e-05
2.8513e-05
-3.51269e-05
2e-05
9.43378e-06
-3.06274e-06
6.18389e-05
-1.08409e-05
2.95539e-05
-7.28629e-06
-6.72468e-06
-4.4427e-06
-8.13929e-06
-1.44257e-06
-6.63895e-06
2.45461e-06
-6.82612e-06
9.4375e-06
-1.61148e-05
1.88138e-05
-2.55878e-05
2.8311e-05
-2.64911e-05
3.31605e-05
-1.80742e-05
2.21668e-05
1.15147e-05
2.24786e-07
4.50957e-05
-1.07337e-05
4.35459e-05
-1.13486e-05
1.54876e-05
-1.17725e-05
1.67125e-06
-9.85952e-06
-3.0249e-06
-5.06179e-06
-1.15189e-05
-2.52164e-05
3.20621e-06
2.36713e-05
7.45493e-05
1.62424e-05
2.08036e-05
1.30822e-05
7.28112e-06
1.14113e-05
3.81712e-06
1.03264e-05
2.39766e-06
9.56461e-06
1.77073e-06
8.96468e-06
1.32095e-06
8.50164e-06
1.10907e-06
8.11382e-06
8.58366e-07
7.80884e-06
7.5957e-07
7.54163e-06
6.07025e-07
7.32847e-06
5.60881e-07
7.1361e-06
4.61434e-07
6.98145e-06
4.36783e-07
6.84027e-06
3.68675e-07
6.72552e-06
3.54022e-07
6.62098e-06
3.06563e-07
6.5345e-06
2.9664e-07
6.45667e-06
2.63352e-07
6.39069e-06
2.55492e-07
6.33241e-06
2.31906e-07
6.28161e-06
2.24671e-07
6.23767e-06
2.07726e-07
6.19829e-06
2.00607e-07
6.1648e-06
1.88344e-07
6.13396e-06
1.81301e-07
6.10794e-06
1.72206e-07
6.08349e-06
1.65075e-07
6.06293e-06
1.57618e-07
6.04354e-06
1.50027e-07
6.02733e-06
1.42903e-07
6.0122e-06
1.347e-07
5.99951e-06
1.27285e-07
5.98773e-06
1.18823e-07
5.97746e-06
1.11263e-07
5.96773e-06
1.03293e-07
5.95855e-06
9.62719e-08
5.94942e-06
8.97591e-08
5.9399e-06
8.43254e-08
5.92975e-06
8.05104e-08
5.91814e-06
7.82017e-08
5.90489e-06
7.88163e-08
5.88867e-06
8.16929e-08
5.86909e-06
8.89317e-08
5.84424e-06
9.9092e-08
5.81301e-06
1.15312e-07
5.77287e-06
1.34149e-07
5.72173e-06
1.60661e-07
5.65553e-06
1.91138e-07
5.5746e-06
2.2494e-07
5.47157e-06
2.75192e-07
5.35671e-06
3.1987e-07
5.21518e-06
3.89833e-07
5.07193e-06
4.85673e-07
4.90725e-06
4.92273e-07
4.67679e-06
8.61432e-07
4.58437e-06
3.66139e-07
4.20148e-06
1.4361e-06
3.99766e-06
2.90433e-07
3.55197e-06
2.06992e-06
3.81901e-06
-1.69527e-06
3.41034e-06
-6.2594e-07
-4.66939e-07
9.32586e-06
-5.82531e-06
1.64715e-05
-7.86027e-06
1.23242e-05
-4.12065e-06
-4.70961e-06
7.73841e-06
-2.81523e-05
2.59283e-05
-5.73572e-05
3.53842e-05
-4.46005e-05
1.75178e-05
2.72892e-05
-7.28884e-06
8.6653e-05
-1.1933e-05
3.39388e-05
-7.72256e-06
-1.08827e-05
-3.13813e-06
-1.27662e-05
1.61953e-06
-1.13533e-05
7.34252e-06
-1.23334e-05
1.66404e-05
-2.54384e-05
2.82641e-05
-3.71958e-05
3.89645e-05
-3.72221e-05
3.87108e-05
-1.78285e-05
1.71935e-05
3.29979e-05
-6.53256e-06
6.88122e-05
-1.32404e-05
5.02168e-05
-1.31113e-05
1.53776e-05
-1.37594e-05
2.32772e-06
-1.1544e-05
-5.09661e-06
-6.42923e-06
-1.645e-05
-3.51e-05
3.58041e-06
3.43118e-05
8.80201e-05
2.52945e-05
2.9806e-05
2.0702e-05
1.18287e-05
1.81229e-05
6.40863e-06
1.64215e-05
4.06639e-06
1.52196e-05
3.00386e-06
1.42718e-05
2.24802e-06
1.35382e-05
1.88227e-06
1.29223e-05
1.46515e-06
1.24359e-05
1.29163e-06
1.20093e-05
1.03825e-06
1.16675e-05
9.54068e-07
1.13589e-05
7.89392e-07
1.11093e-05
7.42694e-07
1.08812e-05
6.30151e-07
1.06945e-05
6.01311e-07
1.0524e-05
5.22869e-07
1.03819e-05
5.02818e-07
1.02533e-05
4.47586e-07
1.01435e-05
4.31716e-07
1.00457e-05
3.92291e-07
9.95986e-06
3.78109e-07
9.8846e-06
3.49476e-07
9.81681e-06
3.36012e-07
9.75805e-06
3.1496e-07
9.70382e-06
3.02005e-07
9.65698e-06
2.86085e-07
9.61299e-06
2.73301e-07
9.57495e-06
2.60125e-07
9.53905e-06
2.46929e-07
9.50797e-06
2.34509e-07
9.47877e-06
2.20671e-07
9.45322e-06
2.08084e-07
9.4292e-06
1.9415e-07
9.40745e-06
1.81661e-07
9.3866e-06
1.68793e-07
9.36661e-06
1.57486e-07
9.34673e-06
1.47177e-07
9.32633e-06
1.38676e-07
9.30499e-06
1.32832e-07
9.28154e-06
1.29491e-07
9.2556e-06
1.30742e-07
9.22533e-06
1.35657e-07
9.19005e-06
1.47321e-07
9.14716e-06
1.63577e-07
9.09493e-06
1.8923e-07
9.02999e-06
2.19058e-07
8.94942e-06
2.60563e-07
8.84721e-06
3.09466e-07
8.72437e-06
3.62305e-07
8.56902e-06
4.44127e-07
8.39613e-06
5.14356e-07
8.18347e-06
6.27009e-07
7.96332e-06
7.75229e-07
7.72246e-06
7.7262e-07
7.35902e-06
1.37742e-06
7.24545e-06
4.98845e-07
6.68744e-06
2.21788e-06
6.33302e-06
5.82018e-07
5.98906e-06
2.60536e-06
5.9164e-06
-1.75383e-06
4.40124e-06
1.11234e-06
-3.0472e-07
1.43359e-05
-6.37474e-06
2.26613e-05
-6.94652e-06
1.32731e-05
-5.1968e-07
-1.13086e-05
1.46375e-05
-4.32564e-05
3.44178e-05
-7.7155e-05
4.00281e-05
-5.02359e-05
1.31492e-05
5.41653e-05
-1.05131e-05
0.000110325
-1.16235e-05
3.4693e-05
-6.41618e-06
-1.60301e-05
4.42888e-07
-1.96625e-05
6.72176e-06
-1.76017e-05
1.37035e-05
-1.91473e-05
2.41326e-05
-3.58897e-05
3.73901e-05
-5.044e-05
4.82069e-05
-4.80706e-05
3.9134e-05
-8.76604e-06
8.68021e-06
6.34196e-05
-1.15688e-05
8.90512e-05
-1.44021e-05
5.3005e-05
-1.42987e-05
1.53073e-05
-1.46178e-05
2.66391e-06
-1.28493e-05
-6.67076e-06
-8.20218e-06
-2.09165e-05
-4.69899e-05
3.81979e-06
4.76914e-05
9.90624e-05
3.78304e-05
3.96479e-05
3.1736e-05
1.78653e-05
2.79927e-05
1.01686e-05
2.54425e-05
6.57417e-06
2.36162e-05
4.87144e-06
2.21694e-05
3.66775e-06
2.10427e-05
3.06165e-06
2.00936e-05
2.40238e-06
1.93392e-05
2.10708e-06
1.86769e-05
1.70709e-06
1.81425e-05
1.55693e-06
1.76601e-05
1.29774e-06
1.72668e-05
1.21079e-06
1.69075e-05
1.03397e-06
1.66106e-05
9.78209e-07
1.63392e-05
8.54831e-07
1.61108e-05
8.15254e-07
1.59034e-05
7.27959e-07
1.57248e-05
6.96855e-07
1.55644e-05
6.34029e-07
1.54227e-05
6.07158e-07
1.52968e-05
5.61025e-07
1.51829e-05
5.36532e-07
1.50824e-05
5.0212e-07
1.49895e-05
4.79353e-07
1.49074e-05
4.52927e-07
1.48304e-05
4.3118e-07
1.4762e-05
4.09225e-07
1.46975e-05
3.87556e-07
1.46399e-05
3.67215e-07
1.45855e-05
3.45248e-07
1.45363e-05
3.2523e-07
1.44895e-05
3.03721e-07
1.4446e-05
2.84447e-07
1.44039e-05
2.65047e-07
1.43631e-05
2.48098e-07
1.43224e-05
2.32948e-07
1.42811e-05
2.20669e-07
1.42383e-05
2.1251e-07
1.41926e-05
2.08296e-07
1.41432e-05
2.10913e-07
1.40876e-05
2.19174e-07
1.40248e-05
2.3734e-07
1.39513e-05
2.62392e-07
1.38645e-05
3.01284e-07
1.37603e-05
3.46589e-07
1.36345e-05
4.0874e-07
1.34788e-05
4.83751e-07
1.3295e-05
5.62756e-07
1.30652e-05
6.89614e-07
1.28099e-05
7.94847e-07
1.24971e-05
9.68297e-07
1.21656e-05
1.18758e-06
1.18153e-05
1.16831e-06
1.12648e-05
2.1044e-06
1.10995e-05
6.85419e-07
1.03005e-05
3.27568e-06
9.72168e-06
1.08706e-06
9.55944e-06
2.98471e-06
8.85415e-06
-1.20105e-06
5.84761e-06
4.34966e-06
3.64289e-07
2.0117e-05
-7.07524e-06
3.01802e-05
-5.10103e-06
1.20598e-05
4.46545e-06
-2.10151e-05
2.16195e-05
-6.03669e-05
4.16982e-05
-9.72455e-05
4.15891e-05
-5.01622e-05
7.1773e-06
8.85747e-05
-1.23873e-05
0.000129905
-1.07747e-05
3.24734e-05
-1.75736e-06
-2.49931e-05
6.31349e-06
-2.77678e-05
1.30645e-05
-2.43312e-05
2.04548e-05
-2.63975e-05
3.16489e-05
-4.71054e-05
4.6221e-05
-6.50013e-05
5.42109e-05
-5.61006e-05
3.43148e-05
1.11152e-05
-2.65829e-07
9.79666e-05
-1.44693e-05
0.000103243
-1.54132e-05
5.38967e-05
-1.52686e-05
1.52145e-05
-1.46287e-05
2.05504e-06
-1.37076e-05
-7.35189e-06
-1.0211e-05
-2.41985e-05
-6.11621e-05
4.10729e-06
6.36148e-05
0.000106295
5.42314e-05
4.9008e-05
4.70465e-05
2.49802e-05
4.20688e-05
1.51669e-05
3.84774e-05
1.01142e-05
3.58347e-05
7.56464e-06
3.37147e-05
5.75494e-06
3.20457e-05
4.79509e-06
3.06311e-05
3.80286e-06
2.94954e-05
3.31756e-06
2.84962e-05
2.71456e-06
2.76823e-05
2.45461e-06
2.69477e-05
2.0643e-06
2.63424e-05
1.90721e-06
2.57897e-05
1.64109e-06
2.5328e-05
1.53701e-06
2.49053e-05
1.35092e-06
2.45459e-05
1.27602e-06
2.42182e-05
1.14361e-06
2.39334e-05
1.08535e-06
2.36754e-05
9.89277e-07
2.34461e-05
9.40566e-07
2.32395e-05
8.69313e-07
2.30519e-05
8.26657e-07
2.28832e-05
7.72875e-07
2.27271e-05
7.34654e-07
2.25864e-05
6.92902e-07
2.24543e-05
6.57656e-07
2.23345e-05
6.22981e-07
2.22211e-05
5.8914e-07
2.21174e-05
5.57613e-07
2.20189e-05
5.24501e-07
2.19277e-05
4.94383e-07
2.18403e-05
4.62917e-07
2.17574e-05
4.348e-07
2.16768e-05
4.07141e-07
2.15981e-05
3.83161e-07
2.15198e-05
3.62174e-07
2.14407e-05
3.45526e-07
2.13597e-05
3.34964e-07
2.12746e-05
3.30341e-07
2.11844e-05
3.35444e-07
2.10858e-05
3.48894e-07
2.09771e-05
3.76287e-07
2.08539e-05
4.13671e-07
2.07126e-05
4.70621e-07
2.05477e-05
5.37152e-07
2.03539e-05
6.27179e-07
2.012e-05
7.37944e-07
1.98484e-05
8.526e-07
1.95138e-05
1.0415e-06
1.91423e-05
1.19417e-06
1.86891e-05
1.4529e-06
1.82e-05
1.76591e-06
1.7683e-05
1.73505e-06
1.6887e-05
3.09451e-06
1.65911e-05
1.00394e-06
1.54478e-05
4.70474e-06
1.45552e-05
1.89649e-06
1.44656e-05
3.3152e-06
1.27596e-05
3.33269e-07
1.19771e-05
5.33903e-06
4.16765e-06
2.80736e-05
-2.54599e-06
3.69617e-05
-8.17266e-07
1.12622e-05
1.13246e-05
-3.32594e-05
2.95058e-05
-7.85113e-05
4.91742e-05
-0.000116926
4.22804e-05
-4.33066e-05
2.51966e-06
0.000128327
-1.22546e-05
0.0001447
-1.06968e-05
2.99915e-05
3.18242e-06
-3.88257e-05
1.25309e-05
-3.71519e-05
1.99933e-05
-3.17753e-05
2.77736e-05
-3.40452e-05
3.96977e-05
-5.90519e-05
5.46369e-05
-7.9934e-05
5.64498e-05
-5.79808e-05
2.6137e-05
4.14066e-05
-7.52336e-06
0.00013159
-1.61045e-05
0.000111812
-1.74647e-05
5.52026e-05
-1.74958e-05
1.53191e-05
-1.57283e-05
3.30313e-07
-1.51053e-05
-7.72807e-06
-1.24377e-05
-2.66199e-05
-7.79088e-05
4.46741e-06
8.14582e-05
0.000109042
7.42045e-05
5.62329e-05
6.70209e-05
3.2081e-05
6.12199e-05
2.09919e-05
5.66375e-05
1.46376e-05
5.30954e-05
1.1165e-05
5.01741e-05
8.63865e-06
4.78291e-05
7.21409e-06
4.58159e-05
5.80015e-06
4.4176e-05
5.043e-06
4.27249e-05
4.17547e-06
4.15278e-05
3.74731e-06
4.04453e-05
3.18362e-06
3.95419e-05
2.91429e-06
3.87159e-05
2.52904e-06
3.80173e-05
2.34571e-06
3.73763e-05
2.07519e-06
3.68248e-05
1.94189e-06
3.63195e-05
1.74814e-06
3.5876e-05
1.64538e-06
3.54708e-05
1.50362e-06
3.51079e-05
1.41991e-06
3.47769e-05
1.31382e-06
3.44748e-05
1.24294e-06
3.41991e-05
1.16205e-06
3.39431e-05
1.10059e-06
3.37085e-05
1.03726e-06
3.34878e-05
9.82386e-07
3.32843e-05
9.29859e-07
3.30913e-05
8.78952e-07
3.2912e-05
8.32007e-07
3.27409e-05
7.83853e-07
3.25801e-05
7.40224e-07
3.24254e-05
6.95779e-07
3.22773e-05
6.56199e-07
3.2133e-05
6.18076e-07
3.19918e-05
5.85244e-07
3.18519e-05
5.57059e-07
3.17115e-05
5.35149e-07
3.15692e-05
5.21878e-07
3.1422e-05
5.17201e-07
3.12684e-05
5.25912e-07
3.1104e-05
5.4658e-07
3.09263e-05
5.86246e-07
3.07298e-05
6.40096e-07
3.05095e-05
7.20762e-07
3.02586e-05
8.15353e-07
2.99695e-05
9.42366e-07
2.96287e-05
1.10024e-06
2.92372e-05
1.26335e-06
2.87619e-05
1.53499e-06
2.82343e-05
1.75131e-06
2.75909e-05
2.1296e-06
2.68935e-05
2.55785e-06
2.6121e-05
2.55979e-06
2.50333e-05
4.38654e-06
2.44644e-05
1.59635e-06
2.28413e-05
6.63013e-06
2.15469e-05
3.10138e-06
2.11994e-05
3.92186e-06
1.83098e-05
3.0345e-06
1.78675e-05
5.99035e-06
9.69296e-06
3.63555e-05
1.60434e-06
4.51093e-05
3.75455e-06
9.73923e-06
2.04158e-05
-5.00094e-05
3.91943e-05
-9.72593e-05
5.70276e-05
-0.000134777
4.03857e-05
-2.66994e-05
-1.71944e-07
0.000168864
-7.9531e-06
0.000152511
-5.70483e-06
2.68825e-05
9.83908e-06
-5.43314e-05
2.03867e-05
-4.77336e-05
2.85469e-05
-3.99189e-05
3.65676e-05
-4.19351e-05
4.85777e-05
-7.10862e-05
6.21243e-05
-9.34802e-05
5.55857e-05
-5.15405e-05
1.68914e-05
8.0072e-05
-1.23281e-05
0.000160767
-1.71432e-05
0.000116616
-2.03866e-05
5.83962e-05
-2.15116e-05
1.65413e-05
-1.94137e-05
-1.72421e-06
-1.90506e-05
-7.85435e-06
-1.5142e-05
-3.02694e-05
-9.77316e-05
4.87475e-06
0.000100542
0.000108067
9.6654e-05
6.00849e-05
9.10328e-05
3.76042e-05
8.55068e-05
2.65453e-05
8.05251e-05
1.95522e-05
7.63546e-05
1.54008e-05
7.27251e-05
1.22264e-05
6.97088e-05
1.03124e-05
6.70513e-05
8.44012e-06
6.48392e-05
7.34928e-06
6.28544e-05
6.17112e-06
6.11895e-05
5.51687e-06
5.96726e-05
4.74079e-06
5.83877e-05
4.31218e-06
5.72071e-05
3.77718e-06
5.61944e-05
3.47784e-06
5.52607e-05
3.09912e-06
5.44473e-05
2.87904e-06
5.36972e-05
2.60536e-06
5.3032e-05
2.43625e-06
5.24189e-05
2.23406e-06
5.18653e-05
2.09854e-06
5.13551e-05
1.94572e-06
5.08866e-05
1.83359e-06
5.0454e-05
1.71591e-06
5.00509e-05
1.621e-06
4.96771e-05
1.52804e-06
4.93248e-05
1.44539e-06
4.89963e-05
1.3682e-06
4.86843e-05
1.29361e-06
4.83915e-05
1.22548e-06
4.81119e-05
1.15689e-06
4.78469e-05
1.09495e-06
4.75919e-05
1.03319e-06
4.7347e-05
9.78268e-07
4.71089e-05
9.26262e-07
4.68765e-05
8.81585e-07
4.66475e-05
8.43718e-07
4.64196e-05
8.14598e-07
4.61907e-05
7.97339e-07
4.59573e-05
7.9212e-07
4.57167e-05
8.04842e-07
4.54638e-05
8.34258e-07
4.51947e-05
8.88893e-07
4.49026e-05
9.63303e-07
4.45807e-05
1.07365e-06
4.42207e-05
1.20349e-06
4.38118e-05
1.37829e-06
4.33389e-05
1.59532e-06
4.27989e-05
1.82309e-06
4.21514e-05
2.20119e-06
4.14332e-05
2.49989e-06
4.05517e-05
3.0453e-06
3.96081e-05
3.59809e-06
3.84779e-05
3.74327e-06
3.70828e-05
5.98871e-06
3.60599e-05
2.64317e-06
3.3805e-05
9.19162e-06
3.20856e-05
4.72999e-06
3.09934e-05
5.27889e-06
2.66297e-05
7.20471e-06
2.51712e-05
7.65047e-06
1.98607e-05
4.17725e-05
1.32226e-05
5.18043e-05
1.59588e-05
7.45383e-06
3.29249e-05
-6.70609e-05
5.17936e-05
-0.000116105
6.49033e-05
-0.000147914
3.79476e-05
2.19635e-07
-7.39182e-07
0.000207511
-3.00431e-06
0.000154817
6.00753e-06
1.73011e-05
1.95018e-05
-6.77958e-05
3.08501e-05
-5.91101e-05
3.95224e-05
-4.85763e-05
4.74066e-05
-4.96895e-05
5.90637e-05
-8.27706e-05
7.0609e-05
-0.000105034
5.3027e-05
-3.4067e-05
8.82453e-06
0.000124236
-1.43879e-05
0.000183932
-1.76176e-05
0.000119838
-2.2677e-05
6.3421e-05
-2.48518e-05
1.88348e-05
-2.27506e-05
-3.77959e-06
-2.16857e-05
-8.60032e-06
-1.58832e-05
-3.56085e-05
-0.000118462
5.0633e-06
0.000121107
0.000105616
0.000120424
6.07235e-05
0.000117495
4.04146e-05
0.000113654
3.0418e-05
0.000109455
2.36739e-05
0.000105507
1.9423e-05
0.000101733
1.59531e-05
9.84101e-05
1.37263e-05
9.53323e-05
1.14986e-05
9.26816e-05
1.01025e-05
9.02338e-05
8.63068e-06
8.81315e-05
7.73198e-06
8.61821e-05
6.73338e-06
8.44996e-05
6.1157e-06
8.29351e-05
5.41378e-06
8.15712e-05
4.96889e-06
8.03018e-05
4.46436e-06
7.91803e-05
4.13173e-06
7.81369e-05
3.76206e-06
7.72006e-05
3.50517e-06
7.633e-05
3.22843e-06
7.55365e-05
3.0236e-06
7.47984e-05
2.81178e-06
7.4116e-05
2.64421e-06
7.34799e-05
2.47905e-06
7.28846e-05
2.33908e-06
7.23277e-05
2.20714e-06
7.18017e-05
2.08706e-06
7.13074e-05
1.97693e-06
7.08376e-05
1.87046e-06
7.0394e-05
1.77383e-06
6.99701e-05
1.67781e-06
6.9567e-05
1.5912e-06
6.91795e-05
1.50616e-06
6.88073e-05
1.4304e-06
6.84467e-05
1.35946e-06
6.8096e-05
1.29831e-06
6.77526e-05
1.24667e-06
6.74135e-05
1.20683e-06
6.70761e-05
1.18281e-06
6.67357e-05
1.17518e-06
6.63889e-05
1.19105e-06
6.60291e-05
1.22964e-06
6.56515e-05
1.30097e-06
6.52474e-05
1.39923e-06
6.48079e-05
1.54475e-06
6.43239e-05
1.71631e-06
6.37794e-05
1.95022e-06
6.31595e-05
2.23771e-06
6.2455e-05
2.54768e-06
6.16182e-05
3.05685e-06
6.06935e-05
3.45523e-06
5.95467e-05
4.22652e-06
5.83476e-05
4.89389e-06
5.6794e-05
5.35013e-06
5.51098e-05
7.87789e-06
5.34909e-05
4.28623e-06
5.05304e-05
1.24469e-05
4.84027e-05
6.77105e-06
4.61469e-05
7.78477e-06
3.98369e-05
1.33405e-05
3.68783e-05
1.07874e-05
3.18184e-05
4.69493e-05
2.61878e-05
5.74956e-05
3.23577e-05
1.62828e-06
5.03406e-05
-8.51305e-05
6.82673e-05
-0.00013402
7.40561e-05
-0.000153746
3.82686e-05
3.59642e-05
4.44375e-06
0.000241277
4.12954e-06
0.000155186
1.86523e-05
2.35755e-06
3.26968e-05
-8.18201e-05
4.49597e-05
-7.13925e-05
5.38955e-05
-5.7499e-05
6.14019e-05
-5.70695e-05
7.08776e-05
-9.22791e-05
7.64595e-05
-0.00011064
4.77242e-05
-5.44718e-06
3.56351e-06
0.000168345
-1.30991e-05
0.000200541
-1.62569e-05
0.000122999
-2.33063e-05
7.04575e-05
-2.56278e-05
2.13104e-05
-1.70813e-05
-1.23046e-05
-4.72442e-06
-2.05646e-05
-4.00085e-06
-3.56087e-05
-0.000126424
4.18823e-06
0.000145161
0.000103991
0.000145975
5.98549e-05
0.000145403
4.08415e-05
0.00014387
3.1989e-05
0.00014149
2.59616e-05
0.000138868
2.2131e-05
0.000135937
1.88299e-05
0.00013313
1.66361e-05
0.000130284
1.43222e-05
0.000127706
1.27941e-05
0.000125188
1.11614e-05
0.000122952
1.00921e-05
0.0001208
8.93138e-06
0.000118896
8.15035e-06
0.000117081
7.30663e-06
0.000115466
6.72009e-06
0.000113934
6.09785e-06
0.000112558
5.64733e-06
0.000111259
5.1815e-06
0.000110076
4.82807e-06
0.000108963
4.47263e-06
0.000107936