/*--------------------------------*- C++ -*----------------------------------*\
| =========                 |                                                 |
| \\      /  F ield         | OpenFOAM: The Open Source CFD Toolbox           |
|  \\    /   O peration     | Version:  2306                                  |
|   \\  /    A nd           | Website:  www.openfoam.com                      |
|    \\/     M anipulation  |                                                 |
\*---------------------------------------------------------------------------*/
FoamFile
{
    version     2.0;
    format      ascii;
    arch        "LSB;label=32;scalar=64";
    class       volSymmTensorField;
    location    "2000";
    object      turbulenceProperties:devReff;
}
// * * * * * * * * * * * * * * * * * * * * * * * * * * * * * * * * * * * * * //

dimensions      [0 2 -2 0 0 0 0];

internalField   nonuniform List<symmTensor> 
20540
(
(-0.00125488 -0.0195484 -0 0.00125324 -0 1.64021e-06)
(0.0118213 0.0344054 -0 -0.0117942 -0 -2.71225e-05)
(-0.0012432 -0.0621219 -0 0.00124303 -0 1.62314e-07)
(0.010207 0.10851 -0 -0.0102208 -0 1.37923e-05)
(-0.00120976 -0.111543 -0 0.00121039 -0 -6.27451e-07)
(0.00845701 0.190576 -0 -0.00846301 -0 5.99961e-06)
(-0.00114522 -0.166433 -0 0.00114595 -0 -7.35312e-07)
(0.00665733 0.274904 -0 -0.0066547 -0 -2.63499e-06)
(-0.00104033 -0.222888 -0 0.00104168 -0 -1.35008e-06)
(0.00487081 0.35318 -0 -0.00486602 -0 -4.79579e-06)
(-0.000885781 -0.273902 -0 0.000887789 -0 -2.00734e-06)
(0.00316723 0.413381 -0 -0.00316123 -0 -6.00359e-06)
(-0.000677672 -0.309323 -0 0.000679613 -0 -1.94159e-06)
(0.00164214 0.441055 -0 -0.00163438 -0 -7.75627e-06)
(-0.000424445 -0.317821 -0 0.00042495 -0 -5.04722e-07)
(0.000411761 0.421917 -0 -0.000402984 -0 -8.7769e-06)
(-0.000155498 -0.291466 -0 0.000153592 -0 1.9054e-06)
(-0.000406441 0.348031 -0 0.0004134 -0 -6.95854e-06)
(7.48586e-05 -0.231556 -0 -7.82211e-05 -0 3.36248e-06)
(-0.000738499 0.22808 -0 0.000740542 -0 -2.04217e-06)
(0.00020276 -0.151754 -0 -0.000204949 -0 2.18885e-06)
(-0.000626434 0.0954394 -0 0.000625343 -0 1.09124e-06)
(0.000198534 -0.0747257 -0 -0.00019805 -0 -4.83569e-07)
(-0.000279719 -0.00177256 -0 0.00028382 -0 -4.10137e-06)
(0.000108721 -0.021882 -0 -0.000107075 -0 -1.64632e-06)
(5.67836e-06 -0.0352943 -0 8.00869e-06 -0 -1.36871e-05)
(2.73549e-05 -0.000160528 -0 -2.66722e-05 -0 -6.82621e-07)
(7.71805e-05 -0.0230993 -0 -6.18292e-05 -0 -1.53513e-05)
(1.18042e-06 0.00193987 -0 -1.49898e-06 -0 3.18559e-07)
(2.7105e-05 -0.00514427 -0 -1.70904e-05 -0 -1.00146e-05)
(4.24584e-06 2.507e-05 -0 -4.88486e-06 -0 6.39019e-07)
(-1.0289e-05 0.000730639 -0 1.83904e-05 -0 -8.10142e-06)
(7.15824e-06 -0.000278329 -0 -7.96396e-06 -0 8.05717e-07)
(-1.63617e-05 0.000389562 -0 2.62903e-05 -0 -9.92852e-06)
(7.06869e-06 -4.18651e-05 -0 -7.96259e-06 -0 8.939e-07)
(-1.60193e-05 -4.28599e-05 -0 2.72094e-05 -0 -1.11901e-05)
(6.85632e-06 7.40128e-06 -0 -7.76606e-06 -0 9.09741e-07)
(-1.62339e-05 -4.44356e-05 -0 2.75747e-05 -0 -1.13408e-05)
(6.81405e-06 -3.85599e-07 -0 -7.75843e-06 -0 9.44381e-07)
(-1.64745e-05 -2.80733e-05 -0 2.77635e-05 -0 -1.12891e-05)
(6.76499e-06 -2.61899e-06 -0 -7.75963e-06 -0 9.94649e-07)
(-1.66595e-05 -2.81095e-05 -0 2.79448e-05 -0 -1.12852e-05)
(6.65048e-06 -2.87897e-06 -0 -7.66715e-06 -0 1.01667e-06)
(-1.67397e-05 -2.85106e-05 -0 2.79862e-05 -0 -1.12465e-05)
(6.4685e-06 -2.96447e-06 -0 -7.47425e-06 -0 1.00575e-06)
(-1.66906e-05 -2.80019e-05 -0 2.78309e-05 -0 -1.11402e-05)
(6.23184e-06 -2.92836e-06 -0 -7.20598e-06 -0 9.74131e-07)
(-1.65262e-05 -2.69024e-05 -0 2.75029e-05 -0 -1.09767e-05)
(5.94475e-06 -2.78362e-06 -0 -6.87024e-06 -0 9.25485e-07)
(-1.62692e-05 -2.53289e-05 -0 2.7044e-05 -0 -1.07748e-05)
(5.64926e-06 -2.55013e-06 -0 -6.54928e-06 -0 9.00019e-07)
(-1.5944e-05 -2.33152e-05 -0 2.6497e-05 -0 -1.05531e-05)
(5.38318e-06 -2.23615e-06 -0 -6.31425e-06 -0 9.31073e-07)
(-1.54594e-05 -2.0844e-05 -0 2.56713e-05 -0 -1.02119e-05)
(5.01364e-06 -1.85137e-06 -0 -5.89003e-06 -0 8.76392e-07)
(-1.46464e-05 -1.78717e-05 -0 2.42175e-05 -0 -9.57119e-06)
(4.45797e-06 -1.40425e-06 -0 -5.09428e-06 -0 6.36312e-07)
(-1.37168e-05 -1.4455e-05 -0 2.25491e-05 -0 -8.83228e-06)
(4.00413e-06 -9.01368e-07 -0 -4.47905e-06 -0 4.7492e-07)
(-1.31157e-05 -1.06777e-05 -0 2.15565e-05 -0 -8.44084e-06)
(3.84748e-06 -4.61318e-07 -0 -4.37286e-06 -0 5.2538e-07)
(-1.29997e-05 -6.63068e-06 -0 2.1492e-05 -0 -8.49234e-06)
(3.80467e-06 3.97123e-08 -0 -4.38281e-06 -0 5.7814e-07)
(-1.30858e-05 -2.59372e-06 -0 2.17801e-05 -0 -8.69435e-06)
(3.76448e-06 5.32431e-07 -0 -4.29696e-06 -0 5.32483e-07)
(-1.2943e-05 1.41515e-06 -0 2.15873e-05 -0 -8.64437e-06)
(3.7592e-06 9.38337e-07 -0 -4.17821e-06 -0 4.19015e-07)
(-1.26779e-05 5.44605e-06 -0 2.11149e-05 -0 -8.43696e-06)
(3.91097e-06 1.42496e-06 -0 -4.26966e-06 -0 3.58697e-07)
(-1.26879e-05 9.34964e-06 -0 2.11553e-05 -0 -8.46743e-06)
(4.28754e-06 1.82024e-06 -0 -4.73566e-06 -0 4.48126e-07)
(-1.31323e-05 1.30796e-05 -0 2.20199e-05 -0 -8.88765e-06)
(4.66539e-06 2.10781e-06 -0 -5.18242e-06 -0 5.17033e-07)
(-1.38741e-05 1.6488e-05 -0 2.34614e-05 -0 -9.58734e-06)
(4.91235e-06 2.36051e-06 -0 -5.36905e-06 -0 4.56691e-07)
(-1.4555e-05 1.94629e-05 -0 2.47654e-05 -0 -1.02104e-05)
(5.13543e-06 2.5576e-06 -0 -5.52391e-06 -0 3.88482e-07)
(-1.50539e-05 2.20334e-05 -0 2.57044e-05 -0 -1.06504e-05)
(5.37081e-06 2.70668e-06 -0 -5.72752e-06 -0 3.56704e-07)
(-1.54594e-05 2.42157e-05 -0 2.6469e-05 -0 -1.10096e-05)
(5.58409e-06 2.82574e-06 -0 -5.91527e-06 -0 3.31185e-07)
(-1.57626e-05 2.59936e-05 -0 2.70528e-05 -0 -1.12903e-05)
(5.76663e-06 2.96051e-06 -0 -6.07202e-06 -0 3.05387e-07)
(-1.59577e-05 2.73001e-05 -0 2.74543e-05 -0 -1.14966e-05)
(5.91158e-06 3.17782e-06 -0 -6.18516e-06 -0 2.73581e-07)
(-1.60458e-05 2.79939e-05 -0 2.76836e-05 -0 -1.16379e-05)
(6.01938e-06 3.44683e-06 -0 -6.25663e-06 -0 2.3725e-07)
(-1.60281e-05 2.78909e-05 -0 2.77503e-05 -0 -1.17222e-05)
(6.07125e-06 3.13887e-06 -0 -6.2498e-06 -0 1.78551e-07)
(-1.58952e-05 2.7088e-05 -0 2.76368e-05 -0 -1.17416e-05)
(6.06234e-06 -2.65768e-06 -0 -6.15333e-06 -0 9.09923e-08)
(-1.56505e-05 3.45326e-05 -0 2.73734e-05 -0 -1.17229e-05)
(6.13788e-06 2.8553e-06 -0 -6.16355e-06 -0 2.56676e-08)
(-1.5362e-05 6.51073e-05 -0 2.70624e-05 -0 -1.17005e-05)
(6.45741e-06 0.000166543 -0 -6.42379e-06 -0 -3.36181e-08)
(-1.55889e-05 -9.06716e-05 -0 2.67282e-05 -0 -1.11393e-05)
(5.5116e-06 0.000362615 -0 -5.34101e-06 -0 -1.70588e-07)
(-1.51658e-05 -0.000843202 -0 2.45053e-05 -0 -9.33947e-06)
(6.74401e-07 -0.000727909 -0 -2.95014e-07 -0 -3.79388e-07)
(2.71765e-06 0.000489688 -0 5.88116e-06 -0 -8.59881e-06)
(5.40884e-06 -0.00231761 -0 -4.42861e-06 -0 -9.80229e-07)
(5.58106e-05 0.011858 -0 -4.33028e-05 -0 -1.25077e-05)
(5.41975e-05 0.00561736 -0 -5.20922e-05 -0 -2.10524e-06)
(7.51519e-05 0.0314716 -0 -5.93785e-05 -0 -1.57733e-05)
(0.000146954 0.0382632 -0 -0.000144681 -0 -2.27267e-06)
(-7.9238e-05 0.0305109 -0 8.97001e-05 -0 -1.0462e-05)
(0.000213142 0.100096 -0 -0.000212702 -0 -4.391e-07)
(-0.000410495 -0.0255308 -0 0.000412524 -0 -2.02959e-06)
(0.000174306 0.17852 -0 -0.00017599 -0 1.68486e-06)
(-0.000702467 -0.136873 -0 0.000702765 -0 -2.98019e-07)
(1.39519e-05 0.252182 -0 -1.58605e-05 -0 1.90854e-06)
(-0.000692628 -0.26682 -0 0.000696973 -0 -4.34465e-06)
(-0.000225645 0.302189 -0 0.000225431 -0 2.14143e-07)
(-0.000238663 -0.372957 -0 0.000246743 -0 -8.07991e-06)
(-0.000485993 0.319192 -0 0.000487688 -0 -1.69484e-06)
(0.000660382 -0.431408 -0 -0.000651557 -0 -8.82543e-06)
(-0.000723224 0.304527 -0 0.00072577 -0 -2.5468e-06)
(0.0019223 -0.43915 -0 -0.00191477 -0 -7.52447e-06)
(-0.000915435 0.266557 -0 0.00091776 -0 -2.32568e-06)
(0.00343863 -0.405409 -0 -0.0034327 -0 -5.92904e-06)
(-0.00105754 0.215664 -0 0.00105918 -0 -1.64572e-06)
(0.0051065 -0.343504 -0 -0.00510147 -0 -5.0321e-06)
(-0.0011541 0.160729 -0 0.00115524 -0 -1.14019e-06)
(0.00684234 -0.266311 -0 -0.00683899 -0 -3.34942e-06)
(-0.00121381 0.107769 -0 0.00121496 -0 -1.14273e-06)
(0.00858583 -0.184412 -0 -0.00859071 -0 4.87447e-06)
(-0.0012446 0.0601177 -0 0.00124472 -0 -1.18834e-07)
(0.0102812 -0.105089 -0 -0.010294 -0 1.28853e-05)
(-0.00125537 0.0189462 -0 0.00125392 -0 1.45126e-06)
(0.0118474 -0.0333707 -0 -0.0118213 -0 -2.61314e-05)
(0.0158986 -3.37849 -0 -0.0158899 -0 -8.71729e-06)
(0.000649361 -1.44225 -0 -0.000673188 -0 2.38266e-05)
(0.000139781 -1.08695 -0 -0.00014411 -0 4.32924e-06)
(7.40735e-05 -0.923599 -0 -7.69128e-05 -0 2.8393e-06)
(4.78207e-05 -0.825037 -0 -4.89775e-05 -0 1.15681e-06)
(3.64358e-05 -0.758221 -0 -3.83355e-05 -0 1.89969e-06)
(2.84485e-05 -0.707385 -0 -2.91144e-05 -0 6.65836e-07)
(2.44804e-05 -0.667299 -0 -2.6131e-05 -0 1.65064e-06)
(1.95896e-05 -0.635439 -0 -2.01632e-05 -0 5.7363e-07)
(1.76334e-05 -0.609495 -0 -1.92487e-05 -0 1.61531e-06)
(1.44836e-05 -0.588398 -0 -1.52438e-05 -0 7.60191e-07)
(1.35919e-05 -0.570509 -0 -1.53391e-05 -0 1.74728e-06)
(1.1401e-05 -0.555801 -0 -1.25025e-05 -0 1.10146e-06)
(1.09038e-05 -0.543007 -0 -1.28728e-05 -0 1.96901e-06)
(9.29739e-06 -0.532579 -0 -1.08303e-05 -0 1.5329e-06)
(8.96729e-06 -0.523322 -0 -1.12311e-05 -0 2.26385e-06)
(7.78855e-06 -0.515906 -0 -9.80767e-06 -0 2.01912e-06)
(7.53505e-06 -0.50921 -0 -1.01441e-05 -0 2.60909e-06)
(6.69216e-06 -0.503956 -0 -9.21353e-06 -0 2.52137e-06)
(6.47006e-06 -0.499141 -0 -9.44439e-06 -0 2.97433e-06)
(5.87699e-06 -0.495448 -0 -8.8822e-06 -0 3.00521e-06)
(5.65391e-06 -0.492033 -0 -8.99141e-06 -0 3.3375e-06)
(5.23642e-06 -0.489481 -0 -8.68956e-06 -0 3.45314e-06)
(5.00734e-06 -0.487119 -0 -8.69743e-06 -0 3.69009e-06)
(4.72471e-06 -0.485401 -0 -8.58432e-06 -0 3.85961e-06)
(4.51083e-06 -0.483818 -0 -8.53234e-06 -0 4.02152e-06)
(4.33813e-06 -0.482688 -0 -8.54842e-06 -0 4.21028e-06)
(4.14631e-06 -0.481659 -0 -8.45373e-06 -0 4.30742e-06)
(4.03199e-06 -0.480938 -0 -8.51518e-06 -0 4.4832e-06)
(3.82843e-06 -0.480318 -0 -8.3545e-06 -0 4.52607e-06)
(3.69774e-06 -0.479922 -0 -8.36387e-06 -0 4.66613e-06)
(3.44502e-06 -0.479645 -0 -8.10904e-06 -0 4.66402e-06)
(3.25087e-06 -0.479537 -0 -7.99364e-06 -0 4.74277e-06)
(2.95341e-06 -0.47955 -0 -7.64466e-06 -0 4.69126e-06)
(2.6984e-06 -0.479666 -0 -7.37689e-06 -0 4.67848e-06)
(2.39166e-06 -0.479867 -0 -6.96313e-06 -0 4.57147e-06)
(2.1052e-06 -0.480095 -0 -6.5667e-06 -0 4.4615e-06)
(1.83091e-06 -0.480354 -0 -6.14881e-06 -0 4.31789e-06)
(1.56525e-06 -0.480573 -0 -5.71117e-06 -0 4.14591e-06)
(1.4018e-06 -0.48076 -0 -5.41611e-06 -0 4.0143e-06)
(1.28359e-06 -0.480832 -0 -5.1269e-06 -0 3.84331e-06)
(1.41021e-06 -0.480783 -0 -5.20494e-06 -0 3.79473e-06)
(1.69584e-06 -0.48051 -0 -5.39762e-06 -0 3.70178e-06)
(2.44292e-06 -0.479954 -0 -6.25507e-06 -0 3.81216e-06)
(3.51374e-06 -0.478986 -0 -7.37111e-06 -0 3.85737e-06)
(5.40717e-06 -0.477466 -0 -9.54177e-06 -0 4.1346e-06)
(7.68241e-06 -0.475128 -0 -1.19623e-05 -0 4.27986e-06)
(1.13491e-05 -0.471917 -0 -1.59044e-05 -0 4.55525e-06)
(1.55195e-05 -0.467104 -0 -2.01421e-05 -0 4.62259e-06)
(2.06666e-05 -0.461015 -0 -2.53962e-05 -0 4.72969e-06)
(2.80017e-05 -0.453007 -0 -3.2777e-05 -0 4.77538e-06)
(3.32632e-05 -0.442601 -0 -3.96778e-05 -0 6.41459e-06)
(4.52538e-05 -0.432879 -0 -5.20328e-05 -0 6.77896e-06)
(5.33885e-05 -0.416705 -0 -7.12461e-05 -0 1.78576e-05)
(6.74404e-05 -0.409172 -0 -7.86552e-05 -0 1.12148e-05)
(0.000114269 -0.384857 -0 -0.000158213 -0 4.39445e-05)
(0.000122882 -0.367672 -0 -0.000144372 -0 2.14902e-05)
(0.00027551 -0.347077 -0 -0.000333875 -0 5.83654e-05)
(4.60737e-05 -0.269655 -0 -5.13091e-05 -0 5.23547e-06)
(0.000809214 -0.314306 -0 -0.000934122 -0 0.000124909)
(-0.000301101 -0.0822894 -0 0.000332415 -0 -3.13134e-05)
(-0.00257428 -0.374244 -0 0.00233532 -0 0.00023896)
(0.000990195 -0.964004 -0 -0.000374956 -0 -0.000615238)
(0.0117132 -0.130536 -0 -0.0118058 -0 9.26057e-05)
(0.0134932 1.49538 -0 -0.0156086 -0 0.00211534)
(0.00352796 2.29338 -0 -0.0055693 -0 0.00204133)
(-0.0155011 2.37489 -0 0.0156521 -0 -0.000151041)
(-0.0426711 -0.0344724 -0 0.0425312 -0 0.000139888)
(-0.0417509 -5.5183 -0 0.0440438 -0 -0.00229292)
(0.0153861 -8.08872 -0 -0.00973969 -0 -0.00564638)
(0.0826152 -4.52284 -0 -0.0955489 -0 0.0129337)
(0.0453973 2.90644 -0 -0.055363 -0 0.00996567)
(-0.00667174 3.13129 -0 0.00208563 -0 0.00458611)
(-0.0150588 2.28439 -0 0.0172776 -0 -0.0022188)
(-0.00599667 1.5734 -0 0.00728795 -0 -0.00129128)
(-0.00523829 1.44425 -0 0.00312435 -0 0.00211394)
(-0.0235841 0.773669 -0 0.0213263 -0 0.00225777)
(-0.0479834 -1.49568 -0 0.0518078 -0 -0.00382437)
(-0.0560484 -4.43267 -0 0.0590717 -0 -0.0030233)
(-0.0455727 -7.38846 -0 0.0460269 -0 -0.000454273)
(-0.00658929 -9.29243 -0 0.00937866 -0 -0.00278937)
(0.0843767 -8.66917 -0 -0.085953 -0 0.00157632)
(0.142728 -4.17815 -0 -0.161612 -0 0.0188836)
(0.0875623 2.23018 -0 -0.113139 -0 0.0255768)
(0.0132291 3.24244 -0 -0.0205769 -0 0.00734774)
(-0.000379619 3.45992 -0 -0.001859 -0 0.00223862)
(-0.0233517 3.3652 -0 0.0239832 -0 -0.000631491)
(-0.21191 1.35009 -3.8126e-21 0.250478 -0 -0.0385677)
(0.0151793 -2.95104 -0 -0.0151841 -0 4.79295e-06)
(0.00176053 -1.44393 -0 -0.00174563 -0 -1.49069e-05)
(0.00043074 -1.08704 -0 -0.000426964 -0 -3.77625e-06)
(0.000226885 -0.923964 -0 -0.000225619 -0 -1.26561e-06)
(0.000148067 -0.825239 -0 -0.00014639 -0 -1.67714e-06)
(0.000110828 -0.758154 -0 -0.000111037 -0 2.08155e-07)
(8.77742e-05 -0.707349 -0 -8.68878e-05 -0 -8.86381e-07)
(7.36716e-05 -0.667269 -0 -7.4542e-05 -0 8.70455e-07)
(6.0447e-05 -0.635382 -0 -6.01452e-05 -0 -3.01723e-07)
(5.27339e-05 -0.609315 -0 -5.41093e-05 -0 1.37548e-06)
(4.4589e-05 -0.588067 -0 -4.49137e-05 -0 3.24795e-07)
(4.03446e-05 -0.569964 -0 -4.22164e-05 -0 1.87178e-06)
(3.4809e-05 -0.555026 -0 -3.58207e-05 -0 1.01163e-06)
(3.21155e-05 -0.541937 -0 -3.45266e-05 -0 2.4111e-06)
(2.80524e-05 -0.531193 -0 -2.9828e-05 -0 1.77566e-06)
(2.62183e-05 -0.521558 -0 -2.92203e-05 -0 3.002e-06)
(2.31601e-05 -0.513736 -0 -2.57514e-05 -0 2.59129e-06)
(2.18482e-05 -0.506586 -0 -2.54772e-05 -0 3.62905e-06)
(1.95523e-05 -0.500851 -0 -2.29774e-05 -0 3.42516e-06)
(1.85771e-05 -0.495523 -0 -2.28476e-05 -0 4.27052e-06)
(1.68656e-05 -0.491291 -0 -2.11051e-05 -0 4.23956e-06)
(1.60973e-05 -0.487316 -0 -2.09962e-05 -0 4.89892e-06)
(1.48337e-05 -0.484176 -0 -1.98353e-05 -0 5.00155e-06)
(1.42077e-05 -0.481214 -0 -1.96995e-05 -0 5.49186e-06)
(1.33187e-05 -0.478866 -0 -1.9009e-05 -0 5.69034e-06)
(1.28253e-05 -0.47665 -0 -1.88605e-05 -0 6.03526e-06)
(1.22477e-05 -0.474864 -0 -1.85399e-05 -0 6.29215e-06)
(1.18428e-05 -0.473186 -0 -1.83649e-05 -0 6.52204e-06)
(1.1434e-05 -0.471802 -0 -1.82366e-05 -0 6.80267e-06)
(1.09986e-05 -0.470532 -0 -1.79465e-05 -0 6.94785e-06)
(1.05859e-05 -0.469477 -0 -1.77963e-05 -0 7.21048e-06)
(1.00467e-05 -0.468552 -0 -1.73193e-05 -0 7.27252e-06)
(9.58154e-06 -0.467787 -0 -1.70297e-05 -0 7.44814e-06)
(9.01708e-06 -0.467146 -0 -1.64118e-05 -0 7.39476e-06)
(8.59695e-06 -0.466598 -0 -1.60108e-05 -0 7.41381e-06)
(8.16708e-06 -0.466134 -0 -1.53971e-05 -0 7.23e-06)
(7.92785e-06 -0.465688 -0 -1.50109e-05 -0 7.08307e-06)
(7.78779e-06 -0.465266 -0 -1.45982e-05 -0 6.81039e-06)
(7.88779e-06 -0.46479 -0 -1.44451e-05 -0 6.55728e-06)
(8.26019e-06 -0.464272 -0 -1.45413e-05 -0 6.28113e-06)
(9.02221e-06 -0.463621 -0 -1.50446e-05 -0 6.02243e-06)
(1.03589e-05 -0.462833 -0 -1.62222e-05 -0 5.86328e-06)
(1.24299e-05 -0.461807 -0 -1.81554e-05 -0 5.72553e-06)
(1.56089e-05 -0.460489 -0 -2.14041e-05 -0 5.79527e-06)
(2.00824e-05 -0.458754 -0 -2.59371e-05 -0 5.85468e-06)
(2.67451e-05 -0.456479 -0 -3.28099e-05 -0 6.06487e-06)
(3.5154e-05 -0.453404 -0 -4.12912e-05 -0 6.13719e-06)
(4.75869e-05 -0.449488 -0 -5.36299e-05 -0 6.04309e-06)
(6.23968e-05 -0.44405 -0 -6.79158e-05 -0 5.51899e-06)
(8.00483e-05 -0.437358 -0 -8.53197e-05 -0 5.27139e-06)
(0.00010379 -0.428905 -0 -0.000108184 -0 4.39432e-06)
(0.000119831 -0.4181 -0 -0.000127956 -0 8.12411e-06)
(0.000155061 -0.407991 -0 -0.000163124 -0 8.06291e-06)
(0.000166608 -0.391811 -0 -0.000194392 -0 2.77839e-05)
(0.000209453 -0.383499 -0 -0.000229226 -0 1.97731e-05)
(0.000309203 -0.360863 -0 -0.000359454 -0 5.02514e-05)
(0.000246766 -0.341392 -0 -0.000289565 -0 4.27992e-05)
(0.000669338 -0.345631 -0 -0.000713915 -0 4.45774e-05)
(0.000212674 -0.252871 -0 -0.000191158 -0 -2.15152e-05)
(0.00126583 -0.314198 -0 -0.0015022 -0 0.000236364)
(-0.0010065 -0.190427 -0 0.00164174 -0 -0.00063524)
(-0.00493587 -0.314659 -0 0.00405476 -0 0.000881111)
(0.00330344 -0.687695 -0 -0.00383125 -0 0.000527816)
(0.0233768 0.0358621 -0 -0.0217794 -0 -0.00159737)
(0.0291106 1.2044 -0 -0.029427 -0 0.000316416)
(0.0139522 1.55492 -0 -0.0136605 -0 -0.000291665)
(-0.0308625 1.52399 -0 0.0334943 -0 -0.00263181)
(-0.11065 -0.334802 -0 0.109016 -0 0.00163407)
(-0.121012 -4.11979 -0 0.11701 -0 0.00400152)
(-0.00231049 -6.25017 -0 0.00533669 -0 -0.00302621)
(0.195368 -4.59094 -0 -0.209616 -0 0.014248)
(0.140441 1.984 -0 -0.135717 -0 -0.00472389)
(-0.00335596 1.91584 -0 0.00316783 -0 0.000188132)
(-0.0306822 1.53001 -0 0.0336635 -0 -0.00298139)
(-0.0194122 1.08037 -0 0.0203719 -0 -0.000959713)
(-0.0168059 0.897775 -0 0.0174906 -0 -0.000684675)
(-0.0612385 0.104761 -0 0.0573834 -0 0.00385515)
(-0.124537 -1.58375 -0 0.124932 -0 -0.000395557)
(-0.14381 -3.51407 -0 0.141113 -0 0.00269725)
(-0.121628 -5.48947 -0 0.116184 -0 0.00544338)
(-0.0377387 -6.85353 -0 0.0319832 -0 0.00575552)
(0.107899 -6.55857 -0 -0.0994338 -0 -0.0084648)
(0.336694 -3.44812 -0 -0.344961 -0 0.00826787)
(0.255742 2.19992 -0 -0.251831 -0 -0.00391136)
(0.0436037 2.16764 -0 -0.0358821 -0 -0.00772156)
(0.00679429 2.2485 -0 -0.00467475 -0 -0.00211953)
(-0.0706767 1.99259 -0 0.0640563 -0 0.00662037)
(-0.201848 0.0289435 3.71746e-21 0.151089 -0 0.0507581)
(0.0142201 -2.51164 -0 -0.014216 -0 -4.07302e-06)
(0.00286566 -1.4374 -0 -0.00285184 -0 -1.38241e-05)
(0.000793509 -1.08281 -0 -0.000788618 -0 -4.89129e-06)
(0.000417391 -0.920076 -0 -0.000416356 -0 -1.03455e-06)
(0.000272689 -0.821305 -0 -0.000270237 -0 -2.45207e-06)
(0.000204393 -0.753899 -0 -0.00020548 -0 1.08753e-06)
(0.00016156 -0.70305 -0 -0.00016025 -0 -1.31018e-06)
(0.000135851 -0.662812 -0 -0.000137833 -0 1.98251e-06)
(0.000111551 -0.630801 -0 -0.000111254 -0 -2.96957e-07)
(9.74651e-05 -0.604519 -0 -0.000100254 -0 2.78862e-06)
(8.26243e-05 -0.583118 -0 -8.3608e-05 -0 9.83747e-07)
(7.47432e-05 -0.564846 -0 -7.84785e-05 -0 3.73534e-06)
(6.48143e-05 -0.549782 -0 -6.72266e-05 -0 2.41225e-06)
(5.96914e-05 -0.536571 -0 -6.45015e-05 -0 4.81008e-06)
(5.25028e-05 -0.525727 -0 -5.64462e-05 -0 3.94343e-06)
(4.89276e-05 -0.516016 -0 -5.4935e-05 -0 6.00746e-06)
(4.3553e-05 -0.508128 -0 -4.90807e-05 -0 5.52773e-06)
(4.09576e-05 -0.500942 -0 -4.82325e-05 -0 7.27482e-06)
(3.69047e-05 -0.495173 -0 -4.4e-05 -0 7.09532e-06)
(3.49701e-05 -0.489843 -0 -4.35047e-05 -0 8.53466e-06)
(3.1894e-05 -0.485605 -0 -4.04703e-05 -0 8.57631e-06)
(3.03852e-05 -0.481655 -0 -4.01119e-05 -0 9.72671e-06)
(2.80391e-05 -0.478536 -0 -3.7969e-05 -0 9.92988e-06)
(2.68316e-05 -0.475627 -0 -3.76557e-05 -0 1.0824e-05)
(2.50932e-05 -0.473331 -0 -3.62295e-05 -0 1.11363e-05)
(2.41558e-05 -0.471198 -0 -3.59564e-05 -0 1.18005e-05)
(2.29299e-05 -0.469495 -0 -3.50895e-05 -0 1.21596e-05)
(2.21702e-05 -0.467924 -0 -3.47829e-05 -0 1.26126e-05)
(2.12299e-05 -0.466644 -0 -3.41894e-05 -0 1.29595e-05)
(2.04282e-05 -0.465489 -0 -3.36568e-05 -0 1.32286e-05)
(1.94889e-05 -0.464537 -0 -3.29967e-05 -0 1.35078e-05)
(1.85049e-05 -0.463717 -0 -3.21056e-05 -0 1.36007e-05)
(1.74819e-05 -0.463045 -0 -3.12058e-05 -0 1.37239e-05)
(1.64354e-05 -0.462497 -0 -3.00393e-05 -0 1.36038e-05)
(1.54888e-05 -0.462038 -0 -2.89611e-05 -0 1.34723e-05)
(1.46426e-05 -0.461671 -0 -2.77617e-05 -0 1.31191e-05)
(1.39997e-05 -0.461329 -0 -2.67173e-05 -0 1.27176e-05)
(1.36178e-05 -0.461029 -0 -2.58177e-05 -0 1.21999e-05)
(1.35523e-05 -0.460695 -0 -2.51803e-05 -0 1.16281e-05)
(1.40284e-05 -0.460344 -0 -2.51245e-05 -0 1.10961e-05)
(1.5107e-05 -0.459892 -0 -2.56334e-05 -0 1.05263e-05)
(1.72309e-05 -0.459339 -0 -2.74138e-05 -0 1.01828e-05)
(2.05704e-05 -0.458591 -0 -3.03887e-05 -0 9.81827e-06)
(2.58361e-05 -0.457602 -0 -3.56665e-05 -0 9.83037e-06)
(3.32654e-05 -0.45626 -0 -4.30465e-05 -0 9.7811e-06)
(4.4416e-05 -0.454465 -0 -5.4401e-05 -0 9.98495e-06)
(5.84789e-05 -0.451988 -0 -6.84642e-05 -0 9.9853e-06)
(7.93051e-05 -0.448822 -0 -8.89744e-05 -0 9.66925e-06)
(0.000104437 -0.444371 -0 -0.000113341 -0 8.90478e-06)
(0.000134043 -0.438867 -0 -0.000142294 -0 8.25075e-06)
(0.000175682 -0.43189 -0 -0.000182841 -0 7.15976e-06)
(0.000203711 -0.422686 -0 -0.000217121 -0 1.34098e-05)
(0.000265834 -0.414132 -0 -0.000278342 -0 1.25077e-05)
(0.000289382 -0.399795 -0 -0.000337498 -0 4.81159e-05)
(0.000359789 -0.392419 -0 -0.000388761 -0 2.89714e-05)
(0.000549371 -0.372309 -0 -0.000644952 -0 9.55811e-05)
(0.000332117 -0.353997 -0 -0.000429918 -0 9.78014e-05)
(0.00120898 -0.369576 -0 -0.00130755 -0 9.85758e-05)
(0.000267378 -0.271989 -0 -0.000213158 -0 -5.42193e-05)
(0.00193501 -0.34776 -0 -0.00248925 -0 0.000554234)
(-0.00131463 -0.227504 -0 0.00231947 -0 -0.00100484)
(-0.00686566 -0.310995 -0 0.00523895 -0 0.00162671)
(0.00824879 -0.522524 -0 -0.00840343 -0 0.000154639)
(0.0419248 0.352407 -0 -0.0391138 -0 -0.00281097)
(0.0414803 1.28726 -0 -0.0431354 -0 0.00165506)
(0.00800174 0.936931 -0 -0.0102136 -0 0.00221184)
(-0.0521987 0.289273 -0 0.0459078 -0 0.0062909)
(-0.168396 -1.3538 -0 0.166813 -0 0.00158295)
(-0.178358 -3.17722 -0 0.181419 -0 -0.00306132)
(0.00499818 -4.00882 -0 0.0049405 -0 -0.00993868)
(0.293722 -0.941876 -0 -0.299242 -0 0.00552012)
(0.206872 1.82854 -0 -0.20837 -0 0.0014978)
(-0.0321642 0.719165 -0 0.0366826 -0 -0.00451845)
(-0.04 0.452731 -0 0.042126 -0 -0.00212599)
(-0.0273847 0.334933 -0 0.0308151 -0 -0.00343034)
(-0.0361831 0.0807842 -0 0.0299767 -0 0.0062064)
(-0.107747 -1.03669 -0 0.0999362 -0 0.00781055)
(-0.180379 -2.00413 -0 0.184312 -0 -0.00393235)
(-0.202613 -2.91052 -0 0.202899 -0 -0.000285747)
(-0.17852 -3.9349 -0 0.17802 -0 0.00049968)
(-0.0457836 -4.37925 -0 0.0470227 -0 -0.00123912)
(0.251658 -1.56402 -0 -0.252872 -0 0.00121388)
(0.530511 3.49995 -0 -0.513981 -0 -0.0165296)
(0.297211 2.30803 -0 -0.269834 -0 -0.0273776)
(0.00578313 1.51908 -0 -0.0121565 -0 0.00637337)
(-0.0130083 1.21089 -0 0.00968458 -0 0.00332369)
(-0.13626 0.812147 -0 0.127682 -0 0.00857851)
(-0.319411 -0.634285 -0 0.341767 -0 -0.0223563)
(0.0129875 -2.07253 -0 -0.0129767 -0 -1.07962e-05)
(0.00385601 -1.41497 -0 -0.00384944 -0 -6.56891e-06)
(0.00122721 -1.07822 -0 -0.00122278 -0 -4.43042e-06)
(0.000647358 -0.91741 -0 -0.000647171 -0 -1.87538e-07)
(0.000424283 -0.81937 -0 -0.00042189 -0 -2.39265e-06)
(0.000317395 -0.752031 -0 -0.000319456 -0 2.06138e-06)
(0.000251148 -0.701534 -0 -0.000249933 -0 -1.21449e-06)
(0.000210695 -0.661444 -0 -0.000213815 -0 3.12058e-06)
(0.000173637 -0.629593 -0 -0.000173628 -0 -8.84046e-09)
(0.000151341 -0.603273 -0 -0.000155477 -0 4.13622e-06)
(0.00012868 -0.581867 -0 -0.000130288 -0 1.60782e-06)
(0.000116027 -0.563469 -0 -0.00012138 -0 5.35304e-06)
(0.00010086 -0.548315 -0 -0.000104319 -0 3.45853e-06)
(9.25983e-05 -0.534913 -0 -9.93552e-05 -0 6.75688e-06)
(8.16025e-05 -0.5239 -0 -8.70881e-05 -0 5.48553e-06)
(7.58158e-05 -0.513939 -0 -8.41521e-05 -0 8.33628e-06)
(6.7581e-05 -0.505807 -0 -7.51905e-05 -0 7.60953e-06)
(6.33582e-05 -0.49832 -0 -7.33738e-05 -0 1.00157e-05)
(5.71415e-05 -0.492243 -0 -6.68669e-05 -0 9.72541e-06)
(5.39759e-05 -0.486572 -0 -6.56687e-05 -0 1.16928e-05)
(4.92586e-05 -0.481975 -0 -6.099e-05 -0 1.17314e-05)
(4.67829e-05 -0.477652 -0 -6.00683e-05 -0 1.32854e-05)
(4.31861e-05 -0.474135 -0 -5.67503e-05 -0 1.35642e-05)
(4.11971e-05 -0.470826 -0 -5.59474e-05 -0 1.47503e-05)
(3.85236e-05 -0.4681 -0 -5.37129e-05 -0 1.51892e-05)
(3.69614e-05 -0.465548 -0 -5.30096e-05 -0 1.60483e-05)
(3.5064e-05 -0.463399 -0 -5.16208e-05 -0 1.65568e-05)
(3.37977e-05 -0.461401 -0 -5.09223e-05 -0 1.71246e-05)
(3.23514e-05 -0.459676 -0 -4.99694e-05 -0 1.7618e-05)
(3.10748e-05 -0.458096 -0 -4.90135e-05 -0 1.79387e-05)
(2.96705e-05 -0.456707 -0 -4.80049e-05 -0 1.83344e-05)
(2.81819e-05 -0.455464 -0 -4.65996e-05 -0 1.84177e-05)
(2.66932e-05 -0.454356 -0 -4.52837e-05 -0 1.85905e-05)
(2.5159e-05 -0.453382 -0 -4.35464e-05 -0 1.83874e-05)
(2.382e-05 -0.452487 -0 -4.20312e-05 -0 1.82111e-05)
(2.2624e-05 -0.45169 -0 -4.03296e-05 -0 1.77056e-05)
(2.178e-05 -0.450913 -0 -3.89566e-05 -0 1.71765e-05)
(2.1319e-05 -0.450186 -0 -3.77938e-05 -0 1.64748e-05)
(2.1384e-05 -0.449424 -0 -3.7125e-05 -0 1.5741e-05)
(2.22391e-05 -0.448653 -0 -3.72921e-05 -0 1.50529e-05)
(2.40426e-05 -0.447785 -0 -3.83971e-05 -0 1.43545e-05)
(2.73568e-05 -0.446828 -0 -4.1314e-05 -0 1.39572e-05)
(3.25016e-05 -0.445689 -0 -4.6071e-05 -0 1.35694e-05)
(4.04167e-05 -0.444334 -0 -5.41014e-05 -0 1.36847e-05)
(5.14771e-05 -0.442657 -0 -6.5221e-05 -0 1.37439e-05)
(6.7902e-05 -0.440585 -0 -8.204e-05 -0 1.4138e-05)
(8.8473e-05 -0.437901 -0 -0.000102737 -0 1.42638e-05)
(0.00011873 -0.434623 -0 -0.000132716 -0 1.39853e-05)
(0.000155463 -0.430236 -0 -0.000168552 -0 1.30885e-05)
(0.000198412 -0.42488 -0 -0.000210928 -0 1.25158e-05)
(0.000260284 -0.41834 -0 -0.000271701 -0 1.14169e-05)
(0.000301878 -0.409639 -0 -0.00032237 -0 2.04922e-05)
(0.000394664 -0.401632 -0 -0.000414231 -0 1.95673e-05)
(0.000428398 -0.388312 -0 -0.000495565 -0 6.71675e-05)
(0.000525744 -0.380877 -0 -0.000566324 -0 4.05801e-05)
(0.000811486 -0.363847 -0 -0.000937679 -0 0.000126192)
(0.000330966 -0.343517 -0 -0.000437765 -0 0.000106799)
(0.00174472 -0.36632 -0 -0.00186392 -0 0.000119197)
(0.000411113 -0.27319 -0 -0.000353442 -0 -5.76716e-05)
(0.00227049 -0.338748 -0 -0.00290597 -0 0.000635473)
(-0.00109592 -0.258154 -0 0.00229136 -0 -0.00119544)
(-0.00760091 -0.258296 -0 0.00542471 -0 0.0021762)
(0.015544 -0.312566 -0 -0.0158653 -0 0.000321242)
(0.0570793 0.437351 -0 -0.0528743 -0 -0.00420498)
(0.0420234 0.836426 -0 -0.0432647 -0 0.00124132)
(-0.00892329 0.199824 -0 0.00644733 -0 0.00247596)
(-0.082001 -0.466271 -0 0.0757631 -0 0.00623791)
(-0.206391 -1.63387 -0 0.208072 -0 -0.00168014)
(-0.199129 -2.15841 -0 0.200571 -0 -0.00144198)
(0.0581657 -1.90218 -0 -0.040882 -0 -0.0172837)
(0.357846 1.79277 -0 -0.353018 -0 -0.00482788)
(0.187122 1.10459 -0 -0.184215 -0 -0.00290732)
(-0.0534845 0.0206865 -0 0.0561003 -0 -0.00261578)
(-0.0441338 -0.0279184 -0 0.0472754 -0 -0.00314163)
(-0.0378886 -0.15267 -0 0.0424047 -0 -0.00451603)
(-0.0664502 -0.577473 -0 0.0595274 -0 0.00692287)
(-0.148532 -1.33518 -0 0.144052 -0 0.00447985)
(-0.209529 -1.78571 -0 0.212802 -0 -0.00327299)
(-0.238324 -2.2579 -0 0.240802 -0 -0.00247835)
(-0.196696 -2.66938 -0 0.197355 -0 -0.000659209)
(0.0921728 -1.71188 -0 -0.0855614 -0 -0.00661133)
(0.564215 2.97516 -0 -0.557679 -0 -0.00653596)
(0.5009 5.07246 -0 -0.482314 -0 -0.0185867)
(0.111951 0.522743 -0 -0.11071 -0 -0.00124113)
(-0.00637921 0.668764 -0 -0.00149546 -0 0.00787467)
(-0.0427483 0.459376 -0 0.0469777 -0 -0.00422945)
(-0.189712 0.233216 -0 0.185246 -0 0.00446597)
(-0.33525 -0.514487 -0 0.355047 -0 -0.0197974)
(0.0114334 -1.64067 -0 -0.0114181 -0 -1.53063e-05)
(0.00462657 -1.35875 -0 -0.00462124 -0 -5.32144e-06)
(0.00171788 -1.06598 -0 -0.00171162 -0 -6.25147e-06)
(0.000920113 -0.910801 -0 -0.000919839 -0 -2.74502e-07)
(0.000605216 -0.814805 -0 -0.000601986 -0 -3.22937e-06)
(0.000452883 -0.748145 -0 -0.000455767 -0 2.88405e-06)
(0.000358185 -0.698375 -0 -0.000356588 -0 -1.59715e-06)
(0.000300525 -0.65866 -0 -0.000304872 -0 4.34669e-06)
(0.000248176 -0.627135 -0 -0.00024823 -0 5.39409e-08)
(0.000216459 -0.600871 -0 -0.000222207 -0 5.74771e-06)
(0.000184427 -0.579537 -0 -0.000186713 -0 2.28634e-06)
(0.000166328 -0.561057 -0 -0.000173749 -0 7.42133e-06)
(0.00014494 -0.545853 -0 -0.000149776 -0 4.836e-06)
(0.000133137 -0.532288 -0 -0.000142474 -0 9.33684e-06)
(0.000117685 -0.521128 -0 -0.000125295 -0 7.61048e-06)
(0.000109434 -0.510941 -0 -0.000120908 -0 1.14741e-05)
(9.7901e-05 -0.50258 -0 -0.000108394 -0 1.04934e-05)
(9.18854e-05 -0.494817 -0 -0.00010561 -0 1.3725e-05)
(8.31959e-05 -0.488447 -0 -9.65294e-05 -0 1.33335e-05)
(7.86851e-05 -0.482461 -0 -9.46299e-05 -0 1.59448e-05)
(7.20981e-05 -0.477524 -0 -8.80855e-05 -0 1.59874e-05)
(6.85748e-05 -0.472859 -0 -8.65932e-05 -0 1.80184e-05)
(6.35551e-05 -0.468967 -0 -8.19236e-05 -0 1.83685e-05)
(6.07257e-05 -0.465293 -0 -8.06121e-05 -0 1.98864e-05)
(5.69795e-05 -0.462171 -0 -7.74104e-05 -0 2.04309e-05)
(5.47362e-05 -0.459239 -0 -7.6232e-05 -0 2.14958e-05)
(5.20385e-05 -0.456685 -0 -7.41498e-05 -0 2.21112e-05)
(5.01919e-05 -0.454305 -0 -7.29691e-05 -0 2.27772e-05)
(4.81059e-05 -0.45218 -0 -7.14584e-05 -0 2.33526e-05)
(4.62645e-05 -0.450222 -0 -6.9948e-05 -0 2.36835e-05)
(4.42655e-05 -0.448442 -0 -6.83768e-05 -0 2.41113e-05)
(4.21857e-05 -0.446822 -0 -6.63078e-05 -0 2.41221e-05)
(4.01188e-05 -0.445325 -0 -6.43591e-05 -0 2.42403e-05)
(3.80246e-05 -0.443969 -0 -6.18952e-05 -0 2.38706e-05)
(3.6199e-05 -0.442682 -0 -5.9723e-05 -0 2.3524e-05)
(3.45943e-05 -0.441499 -0 -5.73568e-05 -0 2.27624e-05)
(3.34742e-05 -0.440335 -0 -5.54362e-05 -0 2.1962e-05)
(3.28991e-05 -0.439227 -0 -5.38559e-05 -0 2.09569e-05)
(3.30573e-05 -0.438089 -0 -5.2964e-05 -0 1.99067e-05)
(3.43062e-05 -0.436951 -0 -5.32405e-05 -0 1.89342e-05)
(3.68633e-05 -0.435728 -0 -5.48113e-05 -0 1.7948e-05)
(4.14556e-05 -0.434429 -0 -5.88164e-05 -0 1.73608e-05)
(4.85099e-05 -0.432969 -0 -6.52933e-05 -0 1.67834e-05)
(5.9245e-05 -0.431323 -0 -7.60932e-05 -0 1.68482e-05)
(7.40875e-05 -0.429394 -0 -9.09168e-05 -0 1.68292e-05)
(9.60173e-05 -0.427134 -0 -0.000113241 -0 1.72241e-05)
(0.000123319 -0.424347 -0 -0.000140588 -0 1.72681e-05)
(0.000163128 -0.42107 -0 -0.000179909 -0 1.67817e-05)
(0.000212117 -0.416888 -0 -0.000227713 -0 1.55967e-05)
(0.000268356 -0.411843 -0 -0.000283107 -0 1.47517e-05)
(0.000352117 -0.405918 -0 -0.0003657 -0 1.35834e-05)
(0.000408146 -0.397948 -0 -0.000433229 -0 2.50828e-05)
(0.000533668 -0.390666 -0 -0.000557366 -0 2.36982e-05)
(0.000581866 -0.378631 -0 -0.000665398 -0 8.35318e-05)
(0.000695729 -0.371185 -0 -0.000743409 -0 4.76808e-05)
(0.00111319 -0.3574 -0 -0.00127019 -0 0.000156998)
(0.000317653 -0.335668 -0 -0.000448915 -0 0.000131262)
(0.00229377 -0.361058 -0 -0.00243572 -0 0.000141948)
(0.000639029 -0.277552 -0 -0.000582249 -0 -5.67804e-05)