/*--------------------------------*- C++ -*----------------------------------*\
| =========                 |                                                 |
| \\      /  F ield         | OpenFOAM: The Open Source CFD Toolbox           |
|  \\    /   O peration     | Version:  2306                                  |
|   \\  /    A nd           | Website:  www.openfoam.com                      |
|    \\/     M anipulation  |                                                 |
\*---------------------------------------------------------------------------*/
FoamFile
{
    version     2.0;
    format      ascii;
    arch        "LSB;label=32;scalar=64";
    class       volVectorField;
    location    "2000";
    object      U;
}
// * * * * * * * * * * * * * * * * * * * * * * * * * * * * * * * * * * * * * //

dimensions      [0 1 -1 0 0 0 0];

internalField   nonuniform List<vector> 
20540
(
(29.9942 -0.000531967 0)
(58.6911 0.00528635 0)
(30.0676 -0.00170632 0)
(58.5619 0.0156974 0)
(30.261 -0.00310853 0)
(58.2253 0.0263481 0)
(30.64 -0.00473961 0)
(57.5853 0.0367329 0)
(31.2879 -0.00657784 0)
(56.532 0.0462804 0)
(32.2965 -0.00854805 0)
(54.9659 0.0542772 0)
(33.741 -0.0104928 0)
(52.8388 0.059951 0)
(35.6339 -0.0121507 0)
(50.2211 0.0626589 0)
(37.8687 -0.0131737 0)
(47.3808 0.0621893 0)
(40.185 -0.0132424 0)
(44.8224 0.0591375 0)
(42.2073 -0.0123094 0)
(43.1649 0.0550934 0)
(43.5857 -0.0108277 0)
(42.7641 0.0521186 0)
(44.1966 -0.00960815 0)
(43.3025 0.0513279 0)
(44.2646 -0.00913904 0)
(43.9524 0.0518843 0)
(44.1894 -0.00912669 0)
(44.1962 0.0522481 0)
(44.1755 -0.00909257 0)
(44.178 0.051999 0)
(44.1904 -0.00895349 0)
(44.1512 0.0514354 0)
(44.1942 -0.00877535 0)
(44.1515 0.0506866 0)
(44.1934 -0.00856767 0)
(44.1536 0.0497576 0)
(44.1931 -0.00831742 0)
(44.1543 0.048632 0)
(44.1931 -0.0080116 0)
(44.1551 0.0472629 0)
(44.1931 -0.00764102 0)
(44.1562 0.0456006 0)
(44.1931 -0.00720068 0)
(44.1576 0.0435968 0)
(44.1932 -0.0066836 0)
(44.1592 0.0411965 0)
(44.1933 -0.00608409 0)
(44.1612 0.0383375 0)
(44.1934 -0.00539701 0)
(44.1633 0.0349446 0)
(44.1935 -0.00459558 0)
(44.1657 0.0309292 0)
(44.1936 -0.00364416 0)
(44.1682 0.0262731 0)
(44.1937 -0.00262493 0)
(44.1708 0.0210686 0)
(44.1937 -0.00163448 0)
(44.1732 0.0151888 0)
(44.1937 -0.000635713 0)
(44.1749 0.00901498 0)
(44.1936 0.000380695 0)
(44.1756 0.00285171 0)
(44.1935 0.00138365 0)
(44.1756 -0.0033897 0)
(44.1933 0.00234653 0)
(44.1748 -0.00945414 0)
(44.1931 0.0032604 0)
(44.1731 -0.0154546 0)
(44.1929 0.00416468 0)
(44.1709 -0.0211027 0)
(44.1927 0.00503952 0)
(44.1684 -0.0261054 0)
(44.1926 0.00579997 0)
(44.166 -0.0305733 0)
(44.1925 0.00643283 0)
(44.1636 -0.034454 0)
(44.1924 0.00697476 0)
(44.1615 -0.0377952 0)
(44.1923 0.00743857 0)
(44.1596 -0.0406498 0)
(44.1922 0.0078339 0)
(44.1579 -0.0430701 0)
(44.1922 0.0081685 0)
(44.1564 -0.0451089 0)
(44.1921 0.00844912 0)
(44.1553 -0.046816 0)
(44.1921 0.00868321 0)
(44.1544 -0.0482378 0)
(44.1921 0.0088735 0)
(44.1538 -0.0494135 0)
(44.1926 0.00902633 0)
(44.1525 -0.0503834 0)
(44.1922 0.00915573 0)
(44.1495 -0.0511833 0)
(44.1813 0.00926843 0)
(44.1594 -0.0518236 0)
(44.1697 0.00932299 0)
(44.2005 -0.0522618 0)
(44.2142 0.00927559 0)
(44.1437 -0.0522428 0)
(44.2693 0.00938348 0)
(43.7208 -0.0516473 0)
(44.038 0.0101192 0)
(43.0337 -0.0514226 0)
(43.1792 0.0114636 0)
(42.7675 -0.0529856 0)
(41.6057 0.0127712 0)
(43.573 -0.0564232 0)
(39.5201 0.0133727 0)
(45.5059 -0.0602479 0)
(37.266 0.0130128 0)
(48.1189 -0.0626131 0)
(35.1646 0.0118303 0)
(50.8533 -0.0623222 0)
(33.4185 0.0101353 0)
(53.3015 -0.0590461 0)
(32.0978 0.00822899 0)
(55.2643 -0.0530868 0)
(31.177 0.00632953 0)
(56.7029 -0.0450636 0)
(30.5838 0.00456673 0)
(57.6711 -0.0356779 0)
(30.2346 0.00300173 0)
(58.262 -0.025566 0)
(30.055 0.00165155 0)
(58.5748 -0.0152325 0)
(29.9863 0.000516356 0)
(58.6959 -0.00512989 0)
(3.04756 0.00685899 0)
(1.22258 9.34933e-05 0)
(0.920849 1.34367e-05 0)
(0.781739 8.40995e-06 0)
(0.697965 3.71391e-06 0)
(0.641203 5.19772e-06 0)
(0.597854 2.18746e-06 0)
(0.563628 4.07372e-06 0)
(0.536437 1.71072e-06 0)
(0.514345 3.5573e-06 0)
(0.496436 2.00034e-06 0)
(0.481336 3.59468e-06 0)
(0.468978 2.649e-06 0)
(0.458341 3.85773e-06 0)
(0.449745 3.37239e-06 0)
(0.442248 4.26311e-06 0)
(0.436345 4.10241e-06 0)
(0.431147 4.75736e-06 0)
(0.427201 4.7824e-06 0)
(0.423697 5.24741e-06 0)
(0.421173 5.35288e-06 0)
(0.418935 5.67036e-06 0)
(0.417461 5.79815e-06 0)
(0.416189 6.0213e-06 0)
(0.415498 6.13804e-06 0)
(0.414951 6.29597e-06 0)
(0.414818 6.36378e-06 0)
(0.41478 6.44132e-06 0)
(0.415018 6.42417e-06 0)
(0.415333 6.40173e-06 0)
(0.415842 6.28537e-06 0)
(0.416438 6.16895e-06 0)
(0.417181 5.94028e-06 0)
(0.418019 5.72917e-06 0)
(0.418956 5.3497e-06 0)
(0.419968 5.01799e-06 0)
(0.421024 4.45521e-06 0)
(0.422122 3.99602e-06 0)
(0.423215 3.27303e-06 0)
(0.424312 2.73774e-06 0)
(0.425353 1.9345e-06 0)
(0.426331 1.41565e-06 0)
(0.427166 6.34645e-07 0)
(0.427803 2.25563e-07 0)
(0.428137 -4.64384e-07 0)
(0.428044 -7.41623e-07 0)
(0.427316 -1.35216e-06 0)
(0.42591 -1.68097e-06 0)
(0.423211 -2.0918e-06 0)
(0.419547 -3.09097e-06 0)
(0.41425 -2.82868e-06 0)
(0.406958 -2.38433e-06 0)
(0.400176 -2.09231e-06 0)
(0.387645 1.44183e-05 0)
(0.382754 1.88977e-06 0)
(0.361599 7.64192e-05 0)
(0.350809 8.84026e-05 0)
(0.317899 0.000172621 0)
(0.260243 -5.10242e-05 0)
(0.299603 0.000625709 0)
(0.000210007 0.000234356 0)
(0.388013 -0.000460674 0)
(1.01232 -0.00206958 0)
(0.0513616 0.00543812 0)
(-1.74403 0.00766971 0)
(-2.38993 0.00313003 0)
(-2.06809 0.00733887 0)
(0.497781 -0.00263156 0)
(5.6754 -0.0167876 0)
(7.42888 -0.00195398 0)
(2.37588 0.0267781 0)
(-3.48531 0.031075 0)
(-3.06945 -0.00848946 0)
(-1.90611 -0.00327062 0)
(-1.32158 -0.00187287 0)
(-1.28816 0.0114302 0)
(-0.444137 0.00270706 0)
(1.68084 -0.0141859 0)
(4.41796 -0.0122936 0)
(7.24866 -0.0117924 0)
(8.95388 -0.00850963 0)
(7.68433 0.0217327 0)
(1.5921 0.0622382 0)
(-2.99764 0.0439606 0)
(-3.57543 0.0128924 0)
(-3.47197 0.00659941 0)
(-3.38151 -0.00929791 0)
(-1.90889 -0.26255 0)
(8.9994 0.0215191 0)
(3.93661 0.00119553 0)
(2.96748 0.000262437 0)
(2.52239 0.000139559 0)
(2.25363 8.96334e-05 0)
(2.07141 6.92529e-05 0)
(1.93296 5.32656e-05 0)
(1.82385 4.72315e-05 0)
(1.73711 3.68636e-05 0)
(1.66641 3.48685e-05 0)
(1.60886 2.76273e-05 0)
(1.55995 2.77308e-05 0)
(1.51968 2.23366e-05 0)
(1.4845 2.31985e-05 0)
(1.45574 1.9132e-05 0)
(1.43005 2.01794e-05 0)
(1.40935 1.72418e-05 0)
(1.39049 1.81888e-05 0)
(1.37554 1.62467e-05 0)
(1.3617 1.6968e-05 0)
(1.35089 1.58429e-05 0)
(1.34077 1.62877e-05 0)
(1.33297 1.57835e-05 0)
(1.32564 1.59732e-05 0)
(1.32002 1.59379e-05 0)
(1.31474 1.59532e-05 0)
(1.31066 1.62558e-05 0)
(1.30684 1.61666e-05 0)
(1.30385 1.66327e-05 0)
(1.30114 1.64387e-05 0)
(1.29903 1.686e-05 0)
(1.29727 1.65184e-05 0)
(1.29597 1.67263e-05 0)
(1.295 1.62297e-05 0)
(1.29431 1.6162e-05 0)
(1.29383 1.55856e-05 0)
(1.29342 1.53156e-05 0)
(1.29306 1.48169e-05 0)
(1.29256 1.4547e-05 0)
(1.29193 1.43935e-05 0)
(1.29094 1.45012e-05 0)
(1.28958 1.51842e-05 0)
(1.28754 1.63162e-05 0)
(1.28469 1.86282e-05 0)
(1.28065 2.1643e-05 0)
(1.27505 2.65743e-05 0)
(1.26715 3.21301e-05 0)
(1.25679 4.0446e-05 0)
(1.24199 4.90258e-05 0)
(1.22355 6.03001e-05 0)
(1.19989 7.39259e-05 0)
(1.16964 8.94219e-05 0)
(1.14134 0.000112949 0)
(1.09577 0.000149848 0)
(1.0734 0.000166443 0)
(1.00769 0.000287101 0)
(0.956211 0.00020446 0)
(0.91869 0.0005276 0)
(0.69772 0.000167887 0)
(0.817767 0.00123137 0)
(0.308745 -0.000966399 0)
(0.935895 -0.00337859 0)
(2.39513 0.00205251 0)
(0.427957 0.0157604 0)
(-3.50526 0.0239981 0)
(-5.72038 0.0105023 0)
(-6.41574 -0.0385482 0)
(-0.472487 -0.0764054 0)
(13.8553 -0.0666879 0)
(21.3854 0.0100489 0)
(14.1085 0.17128 0)
(-6.69683 0.0850609 0)
(-8.04425 0.0149645 0)
(-6.27201 -0.0326476 0)
(-4.30954 -0.0138417 0)
(-3.86482 -0.0157245 0)
(-2.3674 -0.0390756 0)
(3.58311 -0.0872872 0)
(11.2999 -0.10171 0)
(18.9744 -0.0730021 0)
(24.0603 -0.0125509 0)
(23.255 0.138044 0)
(13.7623 0.263585 0)
(-4.74676 0.207256 0)
(-7.84908 0.0368316 0)
(-8.79117 -0.000290273 0)
(-8.53814 -0.0349657 0)
(-3.47605 -0.225064 0)
(15.2043 0.038282 0)
(7.2124 0.00379325 0)
(5.42949 0.000922375 0)
(4.61376 0.000490465 0)
(4.12033 0.000314372 0)
(3.78515 0.000244427 0)
(3.53097 0.000186805 0)
(3.33038 0.000166302 0)
(3.17083 0.000130257 0)
(3.04053 0.00012301 0)
(2.93441 9.93732e-05 0)
(2.84417 9.86675e-05 0)
(2.76981 8.21749e-05 0)
(2.70487 8.36958e-05 0)
(2.65169 7.18467e-05 0)
(2.60424 7.41096e-05 0)
(2.56592 6.57197e-05 0)
(2.5311 6.80477e-05 0)
(2.50341 6.23446e-05 0)
(2.47788 6.43811e-05 0)
(2.45786 6.07167e-05 0)
(2.43922 6.22577e-05 0)
(2.42481 6.01143e-05 0)
(2.41136 6.11498e-05 0)
(2.40103 6.01809e-05 0)
(2.39141 6.08149e-05 0)
(2.38399 6.06886e-05 0)
(2.37713 6.09258e-05 0)
(2.37176 6.11534e-05 0)
(2.36694 6.08377e-05 0)
(2.3632 6.08641e-05 0)
(2.36009 5.98522e-05 0)
(2.35779 5.92732e-05 0)
(2.35609 5.75974e-05 0)
(2.35488 5.62849e-05 0)
(2.3541 5.41932e-05 0)
(2.35344 5.23582e-05 0)
(2.35293 5.03506e-05 0)
(2.35219 4.86099e-05 0)
(2.3513 4.7586e-05 0)
(2.3498 4.71473e-05 0)
(2.3477 4.86893e-05 0)
(2.34447 5.15851e-05 0)
(2.33985 5.81424e-05 0)
(2.33322 6.71059e-05 0)
(2.32395 8.18235e-05 0)
(2.31076 9.9347e-05 0)
(2.29344 0.000125016 0)
(2.26858 0.000153975 0)
(2.23761 0.000189368 0)
(2.19777 0.000236767 0)
(2.14621 0.000287431 0)
(2.09802 0.000362588 0)
(2.01893 0.00049063 0)
(1.97994 0.000532916 0)
(1.86531 0.000962773 0)
(1.7746 0.000818941 0)
(1.76192 0.00182089 0)
(1.31715 0.000288365 0)
(1.61817 0.00444737 0)
(0.80054 -0.00468539 0)
(1.70242 -0.00705683 0)
(3.846 0.00696639 0)
(-0.190719 0.0491115 0)
(-6.84553 0.0717996 0)
(-8.75394 0.0319477 0)
(-8.07792 -0.0650885 0)
(2.22244 -0.231049 0)
(22.6728 -0.262992 0)
(32.8898 -0.0234655 0)
(20.7685 0.504922 0)
(-11.8217 0.31727 0)
(-10.7269 -0.020176 0)
(-7.94005 -0.0803389 0)
(-5.60278 -0.0478119 0)
(-4.82541 -0.024155 0)
(-0.515242 -0.110105 0)
(8.47732 -0.283504 0)
(18.9369 -0.307915 0)
(29.7232 -0.250474 0)
(36.9126 -0.0672315 0)
(34.204 0.203951 0)
(14.701 0.822279 0)
(-12.6175 0.572798 0)
(-12.5196 0.0718312 0)
(-12.568 0.0138479 0)
(-11.3439 -0.134365 0)
(-2.57182 -0.498288 0)
(21.5 0.0570519 0)
(11.1484 0.0084484 0)
(8.40133 0.00227738 0)
(7.13974 0.00120709 0)
(6.37534 0.00077826 0)
(5.85479 0.000600076 0)
(5.46119 0.000461959 0)
(5.15015 0.000406414 0)
(4.90277 0.00032214 0)
(4.70015 0.0002995 0)
(4.53518 0.000245003 0)
(4.39454 0.000238743 0)
(4.27863 0.000201125 0)
(4.17711 0.00020095 0)
(4.09388 0.000174002 0)
(4.01939 0.000176313 0)
(3.95903 0.000157116 0)
(3.90403 0.000160243 0)
(3.86005 0.000146967 0)
(3.81937 0.000150007 0)
(3.7872 0.000141191 0)
(3.75717 0.000143582 0)
(3.73361 0.000138092 0)
(3.71158 0.0001397 0)
(3.69433 0.0001368 0)
(3.67824 0.00013776 0)
(3.6655 0.000136758 0)
(3.65369 0.000137002 0)
(3.64416 0.000136841 0)
(3.63554 0.000135948 0)
(3.62855 0.000135406 0)
(3.62257 0.000133012 0)
(3.61778 0.000131251 0)
(3.61396 0.000127467 0)
(3.61085 0.000124336 0)
(3.60842 0.000119812 0)
(3.60618 0.000115897 0)
(3.60421 0.000111821 0)
(3.60191 0.000108537 0)
(3.59942 0.000106951 0)
(3.59605 0.000107006 0)
(3.5918 0.000111457 0)
(3.58591 0.000119391 0)
(3.57799 0.000135347 0)
(3.56711 0.000157256 0)
(3.55242 0.000191893 0)
(3.53203 0.000233579 0)
(3.50573 0.000293741 0)
(3.46857 0.000362897 0)
(3.42252 0.000446864 0)
(3.36392 0.000561817 0)
(3.28756 0.000681295 0)
(3.21642 0.000859726 0)
(3.09909 0.00113788 0)
(3.03967 0.00123734 0)
(2.87372 0.00218007 0)
(2.72984 0.00152554 0)
(2.77273 0.00411982 0)
(2.06241 0.000579317 0)
(2.56093 0.0089191 0)
(1.45586 -0.00932025 0)
(2.48401 -0.0125321 0)
(4.96168 0.0245359 0)
(-1.37952 0.108511 0)
(-9.87819 0.137038 0)
(-10.2309 0.0401445 0)
(-7.65294 -0.141833 0)
(6.4046 -0.497955 0)
(29.462 -0.532393 0)
(40.9889 -0.023804 0)
(17.8819 0.938664 0)
(-15.6604 0.612989 0)
(-11.426 -0.0908689 0)
(-8.40949 -0.144231 0)
(-5.88002 -0.100809 0)
(-4.10582 -0.0792674 0)
(2.9471 -0.277301 0)
(13.5745 -0.563351 0)
(25.6911 -0.616731 0)
(38.3363 -0.523534 0)
(45.4163 -0.133686 0)
(29.5259 0.822342 0)
(-5.67844 1.5132 0)
(-15.7536 0.79676 0)
(-15.1978 0.0804035 0)
(-14.6454 -0.0207325 0)
(-12.3923 -0.341365 0)
(-1.21415 -1.16822 0)
(27.6615 0.0774417 0)
(15.7932 0.01559 0)
(11.9739 0.00468778 0)
(10.1826 0.00249063 0)
(9.09428 0.00161142 0)
(8.35033 0.00123851 0)
(7.7897 0.000955796 0)
(7.34577 0.000837001 0)
(6.99291 0.000667093 0)
(6.7028 0.000616522 0)
(6.46674 0.00050723 0)
(6.26476 0.000490529 0)
(6.09838 0.000415461 0)
(5.95201 0.000411802 0)
(5.83193 0.00035812 0)
(5.72394 0.00036009 0)
(5.63617 0.000321764 0)
(5.55582 0.000325884 0)
(5.49115 0.000299176 0)
(5.43109 0.000303559 0)
(5.38307 0.000285552 0)
(5.33808 0.000289016 0)
(5.3022 0.000277473 0)
(5.26855 0.000279662 0)
(5.24156 0.00027313 0)
(5.21633 0.000274214 0)
(5.19574 0.000271345 0)
(5.17663 0.000271146 0)
(5.16067 0.000269928 0)
(5.14614 0.000267622 0)
(5.13385 0.000265731 0)
(5.12308 0.000260615 0)
(5.11393 0.000256484 0)
(5.10621 0.000248801 0)
(5.09945 0.000242247 0)
(5.09371 0.00023333 0)
(5.08822 0.000225609 0)
(5.08317 0.000217838 0)
(5.0777 0.000211759 0)
(5.07201 0.000209121 0)
(5.06515 0.00020993 0)
(5.05713 0.000219237 0)
(5.04689 0.000235599 0)
(5.03396 0.00026726 0)
(5.01707 0.000310664 0)
(4.99516 0.000378418 0)
(4.96564 0.000460084 0)
(4.92841 0.000577237 0)
(4.87696 0.000713899 0)
(4.81356 0.000878053 0)
(4.73417 0.00110963 0)
(4.62998 0.00134444 0)
(4.53337 0.00170019 0)
(4.37375 0.00222531 0)
(4.28961 0.00240242 0)
(4.07254 0.0042436 0)
(3.85783 0.00248078 0)
(3.9851 0.00793027 0)
(2.97688 0.00121043 0)
(3.67242 0.0152807 0)
(2.37941 -0.0153028 0)
(3.25524 -0.016706 0)
(5.68852 0.0570827 0)
(-2.85016 0.198422 0)
(-11.7687 0.206048 0)
(-9.76791 0.0170284 0)
(-5.05804 -0.280083 0)
(12.2137 -0.872249 0)
(35.5879 -0.877948 0)
(43.8063 0.0550423 0)
(9.44337 1.57128 0)
(-18.3364 0.857884 0)
(-10.7004 -0.200512 0)
(-7.65582 -0.234516 0)
(-4.53141 -0.192653 0)
(-1.13254 -0.187445 0)
(7.64832 -0.538955 0)
(19.2891 -0.943008 0)
(32.5287 -1.05177 0)
(45.6456 -0.851371 0)
(46.4615 0.209122 0)
(15.347 1.90616 0)
(-14.7424 2.21872 0)
(-15.3765 0.889682 0)
(-16.3694 0.101178 0)
(-15.1668 -0.149103 0)
(-12.6196 -0.691833 0)
(-0.679801 -1.6037 0)
(33.4018 0.0986252 0)
(21.1011 0.0255109 0)
(16.2245 0.00862903 0)
(13.8261 0.0046354 0)
(12.3576 0.00301108 0)
(11.3479 0.00231038 0)
(10.5891 0.00178578 0)
(9.98651 0.00155945 0)
(9.50774 0.00124812 0)
(9.11226 0.0011496 0)
(8.79063 0.000949961 0)
(8.51424 0.00091441 0)
(8.28665 0.000777858 0)
(8.08544 0.000767146 0)
(7.92019 0.000669792 0)
(7.7708 0.000670067 0)
(7.64896 0.000600623 0)
(7.53685 0.000605342 0)
(7.44598 0.000556795 0)
(7.36123 0.000562415 0)
(7.29268 0.000529384 0)
(7.22827 0.000533716 0)
(7.176 0.000512127 0)
(7.12686 0.000514444 0)
(7.08655 0.000501621 0)
(7.04879 0.000502098 0)
(7.01716 0.000495589 0)
(6.98774 0.000493857 0)
(6.96247 0.000490157 0)
(6.93935 0.000484818 0)
(6.91915 0.000479961 0)
(6.90115 0.000469862 0)
(6.88523 0.000461238 0)
(6.87132 0.000446877 0)
(6.85863 0.000434337 0)
(6.84739 0.000418157 0)
(6.83646 0.0004041 0)
(6.82623 0.000390403 0)
(6.81545 0.000379896 0)
(6.80447 0.000375732 0)
(6.792 0.000377979 0)
(6.77809 0.000395155 0)
(6.76137 0.000425044 0)
(6.74126 0.000481392 0)
(6.71614 0.000558321 0)
(6.68479 0.000677365 0)
(6.64389 0.000820801 0)
(6.59353 0.00102516 0)
(6.52574 0.00126761 0)
(6.44276 0.0015541 0)
(6.34086 0.001972 0)
(6.20625 0.00238505 0)
(6.08189 0.00301987 0)
(5.87665 0.00392121 0)
(5.76252 0.0041739 0)
(5.49645 0.0074859 0)
(5.19263 0.00365805 0)
(5.42205 0.0136853 0)
(4.10258 0.00255982 0)
(4.98697 0.023057 0)
(3.64661 -0.0211999 0)
(4.01294 -0.0140842 0)
(6.12149 0.10666 0)
(-3.97679 0.31198 0)
(-11.8816 0.252232 0)
(-7.55112 -0.058599 0)
(-0.779409 -0.585243 0)
(19.2578 -1.36151 0)
(40.786 -1.20425 0)
(39.672 0.530791 0)
(-0.505899 2.36399 0)
(-17.1186 1.0468 0)
(-9.23649 -0.312688 0)
(-6.12134 -0.382802 0)
(-1.3933 -0.348517 0)
(3.56082 -0.383348 0)
(13.1774 -0.899814 0)
(25.3617 -1.433 0)
(39.0914 -1.56325 0)
(50.1239 -1.0198 0)
(38.828 1.091 0)
(1.16202 3.23458 0)
(-16.5192 2.74787 0)
(-14.3281 0.933921 0)
(-15.9657 0.127998 0)
(-14.2449 -0.326078 0)
(-12.8181 -1.0597 0)
(-1.27974 -2.28245 0)
(38.3763 0.119235 0)
(26.8683 0.0381602 0)
(21.1724 0.0146207 0)
(18.1352 0.00804196 0)
(16.2393 0.00525934 0)
(14.9221 0.00403261 0)
(13.933 0.00312408 0)
(13.1443 0.00272085 0)
(12.5171 0.00218834 0)
(11.9962 0.00200878 0)
(11.5724 0.00166837 0)
(11.2065 0.00159817 0)
(10.905 0.00136641 0)
(10.6372 0.00134044 0)
(10.4167 0.00117581 0)
(10.2165 0.00116985 0)
(10.0524 0.00105258 0)
(9.90078 0.00105512 0)
(9.77683 0.000972868 0)
(9.66092 0.000977693 0)
(9.56594 0.000921173 0)
(9.47658 0.000924515 0)
(9.40277 0.00088679 0)
(9.33334 0.000887295 0)
(9.27511 0.000863776 0)
(9.22057 0.000861525 0)
(9.17377 0.000848073 0)
(9.13023 0.000842372 0)
(9.09193 0.000833358 0)
(9.05671 0.000822053 0)
(9.02516 0.000811287 0)
(8.99663 0.000792699 0)
(8.97067 0.000776243 0)
(8.94739 0.00075135 0)
(8.9256 0.000729297 0)
(8.90573 0.000702248 0)
(8.88624 0.000678818 0)
(8.8677 0.000656784 0)
(8.8485 0.000640426 0)
(8.82912 0.000634938 0)
(8.80789 0.000640607 0)
(8.78492 0.000670621 0)
(8.75848 0.00072199 0)
(8.72793 0.000815834 0)
(8.69126 0.000943202 0)
(8.64716 0.0011382 0)
(8.59162 0.00137312 0)
(8.52492 0.00170448 0)
(8.43792 0.0021054 0)
(8.33243 0.00256909 0)
(8.20569 0.00326947 0)
(8.03789 0.00394145 0)
(7.88279 0.0049934 0)
(7.62883 0.00643124 0)
(7.47737 0.00673031 0)
(7.16373 0.0123031 0)
(6.75612 0.00504639 0)
(7.08173 0.0218176 0)
(5.46371 0.00520509 0)
(6.51849 0.0309157 0)
(5.25015 -0.0242451 0)
(4.81021 0.00245856 0)
(6.53218 0.174978 0)
(-4.54188 0.450535 0)
(-10.1805 0.278963 0)
(-4.22917 -0.197516 0)
(4.94525 -0.93088 0)
(23.1188 -1.90248 0)
(42.9818 -1.4429 0)
(31.9521 1.21844 0)
(-7.80958 3.19278 0)
(-13.6947 1.06166 0)
(-6.8837 -0.451172 0)
(-2.89998 -0.61385 0)
(2.99991 -0.576915 0)
(8.59243 -0.656035 0)
(17.3505 -1.33703 0)
(28.6348 -2.02861 0)
(41.936 -2.0907 0)
(49.4005 -0.811725 0)
(25.2083 2.56138 0)
(-8.25876 4.50584 0)
(-14.4759 3.03369 0)
(-13.2781 0.975122 0)
(-14.123 0.171625 0)
(-11.982 -0.417198 0)
(-12.9884 -1.33911 0)
(-2.09033 -3.05533 0)
(42.2136 0.137377 0)
(32.6793 0.0528481 0)
(26.6961 0.023031 0)
(23.1103 0.0131786 0)
(20.7791 0.00872991 0)
(19.1287 0.00669896 0)
(17.8835 0.00521253 0)
(16.8844 0.00452486 0)
(16.0873 0.00366436 0)
(15.4209 0.00334767 0)
(14.8774 0.00279974 0)
(14.4059 0.00266381 0)
(14.0165 0.00229283 0)
(13.6691 0.00223251 0)
(13.3819 0.00197002 0)
(13.1202 0.00194508 0)
(12.904 0.0017582 0)
(12.704 0.00174942 0)
(12.5386 0.00161772 0)
(12.3838 0.00161472 0)
(12.2551 0.0015231 0)
(12.134 0.00151965 0)
(12.0322 0.00145706 0)
(11.9364 0.00145069 0)
(11.8544 0.00140979 0)
(11.7775 0.00140021 0)
(11.7102 0.00137455 0)
(11.6474 0.00136051 0)
(11.591 0.00134171 0)
(11.5389 0.00132007 0)
(11.4912 0.00129919 0)
(11.4474 0.00126769 0)
(11.4068 0.00123932 0)
(11.3695 0.00119975 0)
(11.334 0.0011646 0)
(11.3009 0.00112351 0)
(11.2682 0.00108848 0)
(11.2367 0.00105702 0)
(11.2045 0.00103525 0)
(11.172 0.00103109 0)
(11.1373 0.00104541 0)
(11.1006 0.00109718 0)
(11.0597 0.00118305 0)
(11.0139 0.00133327 0)
(10.9609 0.00153535 0)
(10.8993 0.00184002 0)
(10.8244 0.0022071 0)
(10.7367 0.00271784 0)
(10.6263 0.00334841 0)
(10.4942 0.0040608 0)
(10.3388 0.00517217 0)
(10.1344 0.00620633 0)
(9.9438 0.0078593 0)
(9.63755 0.0100371 0)
(9.43912 0.0103317 0)
(9.07266 0.0191949 0)
(8.55888 0.00678019 0)
(8.93191 0.0328751 0)
(7.0575 0.0099019 0)
(8.22866 0.0370749 0)
(7.03891 -0.0206845 0)
(5.79784 0.0400373 0)
(7.06275 0.22887 0)
(-5.59748 0.573646 0)
(-7.72797 0.227421 0)
(-0.434908 -0.414048 0)
(8.81816 -1.37684 0)
(25.2967 -2.46545 0)
(41.7108 -1.50948 0)
(21.9265 2.19181 0)
(-11.6195 3.85757 0)
(-10.3745 1.05483 0)
(-3.49603 -0.749348 0)
(1.98762 -0.908331 0)
(7.32237 -0.830467 0)
(12.3733 -0.954832 0)
(19.6564 -1.81141 0)
(30.1281 -2.67482 0)
(42.1031 -2.61061 0)
(42.8388 -0.0388926 0)
(11.5878 4.36574 0)
(-11.7898 5.45872 0)
(-12.0068 3.15268 0)
(-12.4463 0.988495 0)
(-11.9551 0.192049 0)
(-9.01088 -0.456794 0)
(-13.1474 -1.59638 0)
(-2.61141 -4.0545 0)
(44.5977 0.150895 0)
(37.907 0.0679763 0)
(32.4254 0.0337014 0)
(28.5976 0.0204092 0)
(25.9238 0.0138355 0)
(23.9631 0.010665 0)
(22.4618 0.00836265 0)
(21.244 0.00723582 0)
(20.2643 0.00591514 0)
(19.4388 0.00537182 0)
(18.7612 0.00453371 0)
(18.1706 0.00427626 0)
(17.6799 0.00371194 0)
(17.2409 0.00357965 0)
(16.8749 0.00318181 0)
(16.541 0.00311086 0)
(16.2621 0.00282751 0)
(16.0041 0.00278721 0)
(15.7876 0.00258631 0)
(15.5854 0.00256002 0)
(15.4142 0.00241848 0)
(15.2535 0.00239612 0)
(15.1156 0.00229728 0)
(14.986 0.00227437 0)
(14.8727 0.00220729 0)
(14.7666 0.00218257 0)
(14.6716 0.0021378 0)
(14.5829 0.00210899 0)
(14.5019 0.00207484 0)
(14.4264 0.00203749 0)
(14.3562 0.00200188 0)
(14.291 0.00195307 0)
(14.2294 0.00190913 0)
(14.172 0.00185173 0)
(14.1166 0.00180133 0)
(14.0642 0.00174506 0)
(14.0124 0.00169867 0)
(13.9621 0.00165978 0)
(13.911 0.00163673 0)
(13.8597 0.00164088 0)
(13.8059 0.00167436 0)
(13.7498 0.00176292 0)
(13.6889 0.00190367 0)
(13.6225 0.00213774 0)
(13.5478 0.00244906 0)
(13.4634 0.00290928 0)
(13.3642 0.00346399 0)
(13.2506 0.0042237 0)
(13.1122 0.0051782 0)
(12.9494 0.00623525 0)
(12.7607 0.00792543 0)
(12.5165 0.00945912 0)
(12.2846 0.0119601 0)
(11.9223 0.0151453 0)
(11.6684 0.0154382 0)
(11.2295 0.028775 0)
(10.6353 0.00944139 0)
(10.946 0.0477592 0)
(8.89606 0.0178876 0)
(10.0851 0.0408534 0)
(8.79897 -0.00639094 0)
(7.18497 0.0659036 0)
(10.8036 0.371723 0)
(-3.8592 0.779213 0)
(-2.62754 0.2418 0)
(3.28168 -0.71679 0)
(12.1331 -1.85997 0)
(26.3556 -3.00931 0)
(39.6256 -1.50015 0)
(13.2121 3.35806 0)
(-11.3456 4.52558 0)
(-8.55208 1.42699 0)
(-0.457814 -1.14328 0)
(5.34767 -1.22293 0)
(10.3923 -1.11062 0)
(14.8764 -1.26198 0)
(21.092 -2.3287 0)
(30.515 -3.38696 0)
(40.2705 -2.77375 0)
(32.8813 1.3074 0)
(1.6624 6.2091 0)
(-11.5232 6.06294 0)
(-10.614 3.19847 0)
(-12.1129 0.963831 0)
(-11.1336 0.0989956 0)
(-6.99122 -0.572201 0)
(-13.3976 -1.91855 0)
(-2.77858 -5.25967 0)
(45.4262 0.158056 0)
(41.8352 0.0810524 0)
(37.6799 0.0454568 0)
(34.1617 0.0295803 0)
(31.4175 0.020812 0)
(29.2772 0.0162446 0)
(27.5828 0.0128998 0)
(26.18 0.0111495 0)
(25.0327 0.00922539 0)
(24.0544 0.00833286 0)
(23.2416 0.00711072 0)
(22.529 0.00664701 0)
(21.9303 0.00582673 0)
(21.3934 0.00556163 0)
(20.9402 0.00498473 0)
(20.5265 0.0048225 0)
(20.1759 0.00441105 0)
(19.8519 0.00430488 0)
(19.5753 0.00401135 0)
(19.3175 0.00393559 0)
(19.095 0.00372643 0)
(18.8866 0.00366525 0)
(18.704 0.00351668 0)
(18.5329 0.00346218 0)
(18.3802 0.00335854 0)
(18.237 0.00330741 0)
(18.1068 0.00323561 0)
(17.9847 0.00318368 0)
(17.8716 0.00312816 0)
(17.7656 0.00306908 0)
(17.666 0.00301436 0)
(17.5726 0.00294437 0)
(17.4836 0.00288236 0)
(17.3996 0.00280568 0)
(17.3183 0.00273996 0)
(17.2406 0.00267 0)
(17.164 0.0026155 0)
(17.0893 0.0025747 0)
(17.0142 0.00255856 0)
(16.9391 0.00258276 0)
(16.8616 0.00265151 0)
(16.7818 0.00279846 0)
(16.697 0.00302249 0)
(16.6061 0.00337727 0)
(16.5065 0.00384399 0)
(16.3962 0.00451956 0)
(16.2702 0.00533444 0)
(16.1284 0.00643511 0)
(15.9597 0.00783343 0)
(15.7652 0.00936717 0)
(15.5407 0.0118498 0)
(15.2571 0.0140701 0)
(14.9807 0.0177593 0)
(14.5609 0.0222743 0)
(14.2526 0.0228473 0)
(13.7065 0.0416265 0)
(13.0978 0.0144315 0)
(13.1805 0.0678368 0)
(11.1001 0.030416 0)
(12.1611 0.045902 0)
(10.5582 0.0212675 0)
(8.75426 0.0784345 0)
(12.2978 0.4848 0)
(-0.708239 0.963236 0)
(-0.800277 0.362285 0)
(7.08773 -1.05458 0)
(15.232 -2.35524 0)
(27.0991 -3.52633 0)
(35.6654 -1.04078 0)
(6.34274 4.59587 0)
(-8.59373 4.74705 0)
(-3.69545 1.25478 0)
(2.7228 -1.58834 0)
(8.34301 -1.58618 0)
(13.0532 -1.41928 0)
(16.9705 -1.58617 0)
(22.1837 -2.86559 0)
(30.0648 -4.01218 0)
(36.8649 -2.81895 0)
(22.5516 3.09084 0)
(-3.91107 7.89586 0)
(-9.68474 6.39012 0)
(-9.98259 3.31961 0)
(-11.7959 0.931689 0)
(-11.6109 -0.0942603 0)
(-6.96024 -0.532633 0)
(-14.2564 -2.07693 0)
(-2.5536 -6.82208 0)
(45.0105 0.158677 0)
(43.9673 0.0894294 0)
(41.6099 0.0559161 0)
(39.028 0.0394338 0)
(36.6742 0.0292221 0)
(34.6478 0.0233941 0)
(32.9406 0.0189602 0)
(31.4701 0.016463 0)
(30.2297 0.0138326 0)
(29.1503 0.0124673 0)
(28.2347 0.0107761 0)
(27.4234 0.0100056 0)
(26.7302 0.00886629 0)
(26.1053 0.00839007 0)
(25.569 0.00758792 0)
(25.0787 0.00727369 0)
(24.6556 0.00669979 0)
(24.2647 0.00648075 0)
(23.9246 0.00606864 0)
(23.6081 0.00590735 0)
(23.3295 0.00561078 0)
(23.0691 0.00548353 0)
(22.8366 0.00527 0)
(22.6187 0.00516369 0)
(22.421 0.00501185 0)
(22.2356 0.0049196 0)
(22.0645 0.00481184 0)
(21.9038 0.00472632 0)
(21.7535 0.00464262 0)
(21.612 0.00455466 0)
(21.4782 0.00447603 0)
(21.352 0.00438072 0)
(21.2313 0.00429823 0)
(21.1167 0.00420122 0)
(21.0059 0.00412071 0)
(20.8996 0.00403941 0)
(20.7953 0.00398098 0)
(20.6938 0.00394497 0)
(20.5926 0.00394528 0)
(20.4921 0.0040031 0)
(20.3899 0.00412572 0)
(20.2857 0.00435595 0)
(20.1769 0.00469638 0)
(20.0621 0.00521462 0)
(19.9386 0.00589139 0)
(19.804 0.00685324 0)
(19.6533 0.00801413 0)
(19.4863 0.00957109 0)
(19.2905 0.0115527 0)
(19.0694 0.0137374 0)
(18.8127 0.0172691 0)
(18.4973 0.0204132 0)
(18.1818 0.0257616 0)
(17.7103 0.031892 0)
(17.3649 0.0336487 0)
(16.6825 0.0580363 0)
(16.1451 0.0238861 0)
(15.8484 0.094778 0)
(13.8996 0.0485506 0)
(14.7256 0.0581094 0)
(12.6375 0.0670257 0)
(10.8436 0.0940629 0)
(13.0655 0.575644 0)
(4.70385 1.07296 0)
(4.64868 0.343333 0)
(11.2245 -1.44674 0)
(18.2247 -2.84712 0)
(28.1227 -3.95139 0)
(30.6843 -0.37183 0)
(2.05131 5.83589 0)
(-5.61512 5.00894 0)
(2.04851 0.583422 0)
(6.34696 -2.1864 0)
(11.3098 -2.01067 0)
(15.6101 -1.75686 0)
(18.8984 -1.90794 0)
(23.0511 -3.40317 0)
(29.5589 -4.61438 0)
(33.3404 -2.22019 0)
(13.7103 5.24796 0)
(-5.60557 9.25309 0)
(-7.69636 6.60081 0)
(-9.22894 3.52838 0)
(-10.6988 1.04273 0)
(-11.4153 -0.189913 0)
(-6.5641 -0.602538 0)
(-13.2771 -3.13911 0)
(-2.06519 -8.52877 0)
(44.127 0.155078 0)
(44.4383 0.0919876 0)
(43.6698 0.0624005 0)
(42.3395 0.0475053 0)
(40.819 0.0373883 0)
(39.3039 0.0311299 0)
(37.89 0.0260239 0)
(36.5823 0.0229282 0)
(35.4175 0.0196608 0)
(34.3648 0.0177956 0)
(33.4409 0.0156189 0)
(32.6046 0.014475 0)
(31.8718 0.012983 0)
(31.2032 0.0122276 0)
(30.6167 0.0111673 0)
(30.077 0.0106416 0)
(29.6015 0.00987725 0)
(29.1609 0.00949642 0)
(28.7697 0.00894274 0)
(28.4051 0.00865697 0)
(28.078 0.00825431 0)
(27.772 0.00803082 0)
(27.4941 0.00773722 0)
(27.2334 0.00755634 0)
(26.9936 0.00734411 0)
(26.7681 0.00719393 0)
(26.558 0.00704032 0)
(26.36 0.00690886 0)
(26.1736 0.00678882 0)
(25.9976 0.00666301 0)
(25.8304 0.006554 0)
(25.6722 0.00642731 0)
(25.5208 0.00632001 0)
(25.3767 0.0061995 0)
(25.2375 0.0061024 0)
(25.104 0.00600953 0)
(24.9738 0.00594847 0)
(24.8474 0.00592086 0)
(24.7225 0.00594402 0)
(24.5993 0.00604587 0)
(24.4755 0.00623815 0)
(24.3504 0.0065741 0)
(24.2217 0.00706267 0)
(24.0875 0.00778638 0)
(23.9452 0.00872876 0)
(23.7922 0.0100514 0)
(23.6234 0.0116465 0)
(23.4388 0.0137896 0)
(23.2244 0.0164977 0)
(22.9869 0.0195342 0)
(22.7091 0.0243985 0)
(22.3757 0.0287089 0)
(22.0369 0.0363356 0)
(21.5309 0.044173 0)
(21.1759 0.0487932 0)
(20.3702 0.0778079 0)
(19.958 0.0397631 0)
(19.2493 0.129989 0)
(17.5638 0.0721389 0)
(18.0809 0.0839084 0)
(15.5683 0.133085 0)
(13.6495 0.138999 0)
(14.7815 0.628214 0)
(8.26427 1.2058 0)
(9.28943 0.1796 0)
(15.5877 -1.89469 0)
(21.4388 -3.34683 0)
(29.2182 -4.19183 0)
(26.1059 0.552855 0)
(1.1769 6.92596 0)
(-1.75326 4.97422 0)
(5.80672 0.152346 0)
(9.87415 -2.69101 0)
(14.3458 -2.4571 0)
(18.2011 -2.10305 0)
(20.8206 -2.23368 0)
(24.0588 -3.87625 0)
(28.3319 -4.93541 0)
(27.8363 -0.92245 0)
(7.47428 7.54904 0)
(-4.90129 10.306 0)
(-5.33417 6.76748 0)
(-7.98022 3.92943 0)
(-8.8834 1.14197 0)
(-9.96673 -0.441477 0)
(0.0115214 -0.518924 0)
(-3.74024 -1.76145 0)
(-1.56748 -9.41461 0)
(43.6299 0.151317 0)
(44.1124 0.0906512 0)
(44.1592 0.0641153 0)
(43.8095 0.051609 0)
(43.1887 0.0428651 0)
(42.4119 0.0373248 0)
(41.5639 0.0324331 0)
(40.683 0.0293231 0)
(39.8261 0.0258326 0)
(38.9985 0.0236996 0)
(38.2307 0.0212105 0)
(37.507 0.0197653 0)
(36.8478 0.0179885 0)
(36.2309 0.0169614 0)
(35.673 0.015667 0)
(35.1512 0.0149137 0)
(34.6795 0.0139646 0)
(34.2375 0.0133993 0)
(33.8362 0.0127022 0)
(33.4593 0.0122695 0)
(33.1144 0.0117558 0)
(32.7898 0.0114166 0)
(32.4899 0.0110368 0)
(32.2072 0.0107656 0)
(31.9436 0.0104866 0)
(31.6945 0.0102662 0)
(31.46 0.0100605 0)
(31.2381 0.00987338 0)
(31.0276 0.00971086 0)
(30.8281 0.00953943 0)
(30.6378 0.00939424 0)
(30.4569 0.00922999 0)
(30.2835 0.00909281 0)
(30.1181 0.00894405 0)
(29.9585 0.00882632 0)
(29.8053 0.00871856 0)
(29.6564 0.00865249 0)
(29.5122 0.0086326 0)
(29.3707 0.0086803 0)
(29.2319 0.00883159 0)
(29.0935 0.00910424 0)
(28.9548 0.00956314 0)
(28.8135 0.0102265 0)
(28.6676 0.0111926 0)
(28.5148 0.0124507 0)
(28.3522 0.0142049 0)
(28.1749 0.0163145 0)
(27.9831 0.0191724 0)
(27.7622 0.0227379 0)
(27.5209 0.0268269 0)
(27.2386 0.0332971 0)
(26.9042 0.0389869 0)
(26.5645 0.0495773 0)
(26.0504 0.0590004 0)
(25.7115 0.0685787 0)
(24.84 0.100582 0)
(24.558 0.062893 0)
(23.5348 0.173608 0)
(22.1131 0.100387 0)
(22.4661 0.127368 0)
(19.3011 0.230027 0)
(17.8047 0.184123 0)
(18.34 0.741581 0)
(9.96574 1.33859 0)
(14.5145 -0.152205 0)
(20.3719 -2.37879 0)
(25.0478 -3.76588 0)
(30.2935 -4.19879 0)
(22.5216 1.72479 0)
(2.2881 7.92494 0)
(1.60565 4.86646 0)
(9.81658 -0.393334 0)
(13.6821 -3.22123 0)
(17.5917 -2.93699 0)
(20.9062 -2.45976 0)
(22.7826 -2.50514 0)
(24.9531 -4.19534 0)
(27.7371 -5.10902 0)
(22.7331 0.707999 0)
(4.54777 9.67801 0)
(-2.62057 10.9878 0)
(-3.69903 6.91864 0)
(-6.21407 4.23268 0)
(-6.75865 1.0545 0)
(-9.17002 -1.34033 0)
(-0.378049 -2.10653 0)
(-4.65835 -2.74696 0)
(0.389687 -9.84107 0)
(43.7563 0.149995 0)
(43.9368 0.0891285 0)
(44.0782 0.0633356 0)
(44.107 0.052175 0)
(44.0108 0.0446997 0)
(43.8025 0.0402645 0)
(43.5003 0.0361954 0)
(43.1184 0.0336824 0)
(42.6927 0.0305534 0)
(42.2354 0.0286178 0)