/*--------------------------------*- C++ -*----------------------------------*\
| =========                 |                                                 |
| \\      /  F ield         | OpenFOAM: The Open Source CFD Toolbox           |
|  \\    /   O peration     | Version:  2306                                  |
|   \\  /    A nd           | Website:  www.openfoam.com                      |
|    \\/     M anipulation  |                                                 |
\*---------------------------------------------------------------------------*/
FoamFile
{
    version     2.0;
    format      ascii;
    arch        "LSB;label=32;scalar=64";
    class       volVectorField;
    location    "2000";
    object      wallShearStress;
}
// * * * * * * * * * * * * * * * * * * * * * * * * * * * * * * * * * * * * * //

dimensions      [0 2 -2 0 0 0 0];

internalField   uniform (0 0 0);

boundaryField
{
    inlet
    {
        type            calculated;
        value           uniform (0 0 0);
    }
    outlet
    {
        type            calculated;
        value           uniform (0 0 0);
    }
    lowerWallStartup
    {
        type            symmetryPlane;
    }
    upperWallStartup
    {
        type            symmetryPlane;
    }
    upperWall
    {
        type            calculated;
        value           nonuniform List<vector> 
218
(
(-3.5903 0.0160809 0)
(-1.44015 0.000349476 0)
(-1.084 6.02716e-05 0)
(-0.92101 4.37711e-05 0)
(-0.821624 1.50525e-05 0)
(-0.755332 2.8653e-05 0)
(-0.703926 5.92492e-06 0)
(-0.663813 2.46477e-05 0)
(-0.631681 3.50993e-06 0)
(-0.605508 2.20379e-05 0)
(-0.584538 5.14856e-06 0)
(-0.566226 1.96719e-05 0)
(-0.55212 9.22495e-06 0)
(-0.538601 1.69401e-05 0)
(-0.529332 1.44718e-05 0)
(-0.518968 1.37374e-05 0)
(-0.513347 2.03574e-05 0)
(-0.505096 9.94128e-06 0)
(-0.502332 2.66142e-05 0)
(-0.495442 5.44139e-06 0)
(-0.49497 3.30782e-05 0)
(-0.488901 2.17573e-07 0)
(-0.490341 3.97226e-05 0)
(-0.48472 -5.7795e-06 0)
(-0.487802 4.67076e-05 0)
(-0.482331 -1.2774e-05 0)
(-0.486827 5.44204e-05 0)
(-0.481249 -2.11365e-05 0)
(-0.486963 6.34557e-05 0)
(-0.481116 -3.12805e-05 0)
(-0.487954 7.4414e-05 0)
(-0.481788 -4.3602e-05 0)
(-0.489778 8.7553e-05 0)
(-0.48329 -5.83395e-05 0)
(-0.49251 0.000102575 0)
(-0.48569 -7.52991e-05 0)
(-0.496222 0.000118795 0)
(-0.489102 -9.37322e-05 0)
(-0.501028 0.00013561 0)
(-0.493771 -0.000112486 0)
(-0.507219 0.000152882 0)
(-0.500171 -0.000130146 0)
(-0.515366 0.000170796 0)
(-0.509064 -0.000145068 0)
(-0.526389 0.000189079 0)
(-0.521484 -0.000155754 0)
(-0.541517 0.00020564 0)
(-0.538567 -0.000161588 0)
(-0.562059 0.00021713 0)
(-0.561411 -0.000162656 0)
(-0.589392 0.000223489 0)
(-0.591388 -0.000161053 0)
(-0.625496 0.000233029 0)
(-0.631395 -0.000166641 0)
(-0.672853 0.000236031 0)
(-0.685517 -0.000168552 0)
(-0.730557 0.000137735 0)
(-0.750115 -9.1074e-05 0)
(-0.790935 -1.98606e-05 0)
(-0.819167 3.26547e-06 0)
(-0.854975 -8.93659e-05 0)
(-0.901094 1.3568e-05 0)
(-0.962023 -0.00039832 0)
(-1.05423 5.14454e-05 0)
(-1.12381 -0.000325383 0)
(-1.18115 -6.86812e-05 0)
(-1.21842 8.40944e-05 0)
(-1.24471 -0.000266708 0)
(-1.29812 0.000293649 0)
(-1.30858 -0.00075625 0)
(-1.38896 0.000637074 0)
(-1.403 -0.00116149 0)
(-1.4803 0.000192339 0)
(-1.49699 -0.000723856 0)
(-1.52524 -0.000721492 0)
(-1.56314 0.000448316 0)
(-1.5557 -0.00147939 0)
(-1.63933 0.00151082 0)
(-1.64632 -0.00186655 0)
(-1.73222 0.00104464 0)
(-1.74616 -0.00105436 0)
(-1.79742 4.19231e-05 0)
(-1.78715 -0.000393803 0)
(-1.85322 0.000957754 0)
(-1.82637 -0.0012916 0)
(-1.95309 0.00232782 0)
(-1.92118 -0.00193276 0)
(-2.07879 0.00245428 0)
(-2.01896 -0.00100865 9.65031e-20)
(-2.17216 0.00228615 0)
(-2.07324 -0.00100368 -9.37117e-20)
(-2.22756 0.00188488 9.2584e-20)
(-2.10954 -0.00184549 0)
(-2.24869 0.0015815 8.98878e-20)
(-2.11413 -0.00276541 0)
(-2.23022 0.00151571 0)
(-2.09631 -0.0032114 0)
(-2.19978 0.00163331 0)
(-2.08586 -0.00308083 -8.42304e-20)
(-2.19398 0.00186073 0)
(-2.10299 -0.002622 8.24548e-20)
(-2.22426 0.0020898 0)
(-2.14259 -0.00224578 8.04963e-20)
(-2.27219 0.00220909 -7.99193e-20)
(-2.18108 -0.00223073 0)
(-2.30724 0.00222894 -7.77302e-20)
(-2.20174 -0.00238868 0)
(-2.32133 0.00222367 7.56581e-20)
(-2.21657 -0.00228639 0)
(-2.34115 0.00221068 0)
(-2.25071 -0.00190143 0)
(-2.39205 0.00214231 0)
(-2.30654 -0.00175892 0)
(-2.45873 0.00196494 0)
(-2.35376 -0.00228951 0)
(-2.49601 0.00173816 -6.61595e-20)
(-2.36332 -0.00317149 6.44383e-20)
(-2.48473 0.00157867 -6.38894e-20)
(-2.34636 -0.0036908 6.22763e-20)
(-2.45875 0.00153268 0)
(-2.33948 -0.00358426 6.04276e-20)
(-2.45951 0.00157613 0)
(-2.35615 -0.00328129 5.85615e-20)
(-2.4849 0.00161318 0)
(-2.37514 -0.00327838 0)
(-2.50252 0.00159109 5.6113e-20)
(-2.37916 -0.00344641 0)
(-2.50314 0.00148145 5.4187e-20)
(-2.38053 -0.00343637 0)
(-2.50786 0.0012659 5.22856e-20)
(-2.38807 -0.00351074 0)
(-2.51328 0.000986252 5.03253e-20)
(-2.37415 -0.00420615 0)
(-2.47761 0.000794823 0)
(-2.31237 -0.00526523 4.7294e-20)
(-2.38819 0.000866314 0)
(-2.22788 -0.00575199 4.65393e-20)
(-2.29415 0.00125371 0)
(-2.16542 -0.00527909 4.63591e-20)
(-2.24096 0.00188566 0)
(-2.13397 -0.00426921 4.63095e-20)
(-2.22754 0.00258049 0)
(-2.12516 -0.00307978 0)
(-2.24514 0.00311722 4.67652e-20)
(-2.136 -0.00205824 0)
(-2.2848 0.00343092 4.59236e-20)
(-2.14597 -0.00179324 0)
(-2.31113 0.00363353 4.48162e-20)
(-2.12268 -0.00250876 0)
(-2.28504 0.00385029 0)
(-2.04641 -0.00406567 4.26938e-20)
(-2.19268 0.00427837 4.34925e-20)
(-1.91928 -0.00583634 0)
(-2.05754 0.00492307 4.40047e-20)
(-1.78355 -0.00700351 0)
(-1.94082 0.00657169 4.51487e-20)
(-1.68433 -0.00390958 0)
(-1.76646 0.00434122 4.63616e-20)
(-1.58014 -0.010883 0)
(-1.78333 0.00624945 4.81093e-20)
(-1.42595 -0.00758999 4.75546e-20)
(-1.61878 0.0107362 0)
(-1.37644 -0.00976572 4.96906e-20)
(-1.8965 -0.000962821 0)
(-1.53737 -0.00283475 5.13921e-20)
(-1.34666 0.0233079 0)
(-0.437068 -0.0144236 0)
(-1.7652 -0.0151839 5.68152e-20)
(-2.06499 -0.0147605 -5.76428e-20)
(-1.98559 0.0119259 5.77798e-20)
(0.2005 0.00840848 -5.5716e-20)
(0.29118 0.126651 0)
(-0.671461 -0.0473767 0)
(-2.83433 -0.0561152 0)
(-2.45691 0.00189491 -7.2337e-20)
(-0.568316 0.0387769 0)
(2.10089 0.00758968 0)
(0.7903 0.0673899 0)
(0.296004 -0.0943133 0)
(-2.37189 -0.0498629 0)
(-2.98447 -0.0151401 0)
(-0.479797 0.0261423 0)
(2.77021 0.0826239 9.67192e-20)
(1.03663 -0.00510856 -1.1072e-19)
(-4.04511 -0.0818395 0)
(-9.65123 -0.0867358 0)
(-13.228 -0.0530929 3.12411e-20)
(-15.6959 -0.0232143 -2.16881e-20)
(-18.487 -0.0230945 -2.59747e-20)
(-19.9669 0.00858778 -8.65848e-21)
(-11.2409 0.138876 2.18436e-20)
(6.45266 0.179327 3.63986e-20)
(11.0943 0.023124 2.34813e-20)
(9.4737 -0.0102326 0)
(5.71703 -0.0201885 -5.24276e-20)
(2.96286 -0.0093414 0)
(1.33344 -0.0109952 1.37967e-19)
(0.519457 -0.00390197 0)
(0.122504 -0.00254546 0)
(-0.0959611 -0.00841906 0)
(-0.650206 -0.00955415 0)
(1.24613 0.00222948 0)
(2.84151 0.00738351 0)
(2.75457 0.00664051 -5.62122e-19)
(2.9584 0.0107226 0)
(0.957909 0.00286785 1.21276e-18)
(-4.72335 -0.0186871 -1.14213e-18)
(-4.30298 -0.0271543 5.89286e-19)
(1.73343 -0.000695549 0)
(5.32308 0.0525764 2.86918e-19)
(5.30024 0.114013 0)
(-3.71171 -0.0837651 0)
(-10.9075 -0.275772 0)
(-6.18193 -0.0667963 0)
(-0.167227 0.129122 0)
(0.989856 0.229057 0)
(-0.554257 0.191628 3.27316e-19)
(-1.43437 0.0584284 0)
)
;
    }
    lowerWall
    {
        type            calculated;
        value           nonuniform List<vector> 
266
(
(-3.58979 -0.0160793 0)
(-1.43932 -0.000355326 0)
(-1.08402 -6.62496e-05 0)
(-0.920232 -3.69485e-05 0)
(-0.821602 -2.1386e-05 0)
(-0.754776 -1.96714e-05 0)
(-0.703743 -1.26953e-05 0)
(-0.66345 -1.40044e-05 0)
(-0.631439 -9.02431e-06 0)
(-0.605433 -1.0923e-05 0)
(-0.58435 -7.7144e-06 0)
(-0.566575 -9.59027e-06 0)
(-0.552026 -7.59101e-06 0)
(-0.539504 -9.03306e-06 0)
(-0.529386 -7.88118e-06 0)
(-0.52056 -8.92537e-06 0)
(-0.513612 -8.36179e-06 0)
(-0.507493 -9.1085e-06 0)
(-0.502847 -8.89604e-06 0)
(-0.498723 -9.40081e-06 0)
(-0.495751 -9.35832e-06 0)
(-0.493117 -9.67144e-06 0)
(-0.491382 -9.69427e-06 0)
(-0.489884 -9.88913e-06 0)
(-0.489071 -9.92161e-06 0)
(-0.488427 -1.00442e-05 0)
(-0.48827 -1.00301e-05 0)
(-0.488225 -1.00555e-05 0)
(-0.488506 -9.93186e-06 0)
(-0.488877 -9.81449e-06 0)
(-0.489476 -9.54162e-06 0)
(-0.490178 -9.27536e-06 0)
(-0.491052 -8.8255e-06 0)
(-0.492039 -8.41219e-06 0)
(-0.493141 -7.73589e-06 0)
(-0.494333 -7.14871e-06 0)
(-0.495575 -6.20663e-06 0)
(-0.496868 -5.4424e-06 0)
(-0.498155 -4.2765e-06 0)
(-0.499447 -3.42578e-06 0)
(-0.500672 -2.18274e-06 0)
(-0.501823 -1.42685e-06 0)
(-0.502806 -3.27323e-07 0)
(-0.503555 1.02451e-07 0)
(-0.50395 8.43374e-07 0)
(-0.50384 7.39698e-07 0)
(-0.502983 9.8784e-07 0)
(-0.501328 3.73334e-07 0)
(-0.498151 -3.49716e-07 0)
(-0.493838 -4.61725e-07 0)
(-0.487602 -3.30339e-06 0)
(-0.479017 -5.20831e-06 0)
(-0.471035 -9.54237e-06 0)
(-0.456283 -3.44731e-05 0)
(-0.450527 -2.17093e-05 0)
(-0.425624 -0.000143377 0)
(-0.412923 -0.00017254 0)
(-0.374183 -0.000343298 0)
(-0.306316 6.6463e-05 0)
(-0.352646 -0.0012101 0)
(-0.0361968 -0.0409296 0)
(-0.456714 0.00166082 0)
(-1.19173 0.00271322 0)
(-0.0604691 -0.0124075 0)
(2.05349 -0.0158349 0)
(2.81456 -0.0054107 0)
(2.43529 -0.00640329 0)
(-0.585858 0.0184017 0)
(-6.6921 0.0395702 0)
(-8.76699 -0.00395499 0)
(-2.79792 -0.0652846 0)
(4.10604 -0.0606326 0)
(3.61571 0.017089 0)
(2.24442 0.00941683 0)
(1.55586 0.00450887 0)
(1.51648 -0.0154904 0)
(0.522885 0.00436613 0)
(-1.97892 0.0369946 0)
(-5.20667 0.0370161 0)
(-8.55348 0.0336317 0)
(-10.575 0.0146712 0)
(-9.06985 -0.0618773 0)
(-1.87397 -0.138951 0)
(3.53087 -0.0897107 0)
(4.21259 -0.0222145 0)
(4.09048 -0.00949276 0)
(3.98558 0.0221851 0)
(2.05607 0.469796 0)
(-22.0383 -79.3168 0)
(0.286627 -0.853268 0)
(-0.216515 -0.492779 -3.15318e-21)
(-0.15203 -0.282839 3.40179e-21)
(-0.164042 -0.119807 0)
(-0.177043 -0.0264101 0)
(-0.180188 -0.00169158 0)
(-0.184961 0.0315569 0)
(-0.182448 0.0557549 0)
(-0.180375 0.0343059 3.59036e-20)
(-0.186056 0.0436654 -2.51896e-20)
(-0.188256 0.0762473 3.70886e-20)
(-0.189088 0.104082 -2.85633e-20)
(-0.206725 0.149661 0)
(-0.234046 0.226967 -4.4762e-20)
(-0.253809 0.3316 4.22687e-20)
(-0.259342 0.46704 0)
(-0.23322 0.636934 0)
(-0.151737 0.818126 0)
(-0.00241427 0.942682 -1.74372e-19)
(0.177547 0.882706 1.68681e-19)
(0.296089 0.649425 -4.06597e-19)
(0.313365 0.272907 3.67815e-19)
(0.390333 -0.0263493 0)
(0.77025 -0.722678 -4.79765e-19)
(1.12471 -2.08245 6.18856e-19)
(1.14574 -3.48903 0)
(0.939274 -4.62664 0)
(0.613384 -5.38729 0)
(0.246827 -5.79834 0)
(-0.112472 -5.92136 0)
(-0.428485 -5.83176 -0)
(-0.681535 -5.60779 2.98993e-19)
(-0.875038 -5.32266 -2.35186e-20)
(-1.01521 -5.0144 -2.1302e-19)
(-1.11454 -4.71626 -0)
(-1.18347 -4.44098 0)
(-1.23226 -4.19679 0)
(-1.26562 -3.98496 0)
(-1.29314 -3.80779 0)
(-1.31409 -3.66263 2.28058e-19)
(-1.33995 -3.54964 -3.07467e-19)
(-1.36068 -3.46427 0)
(-1.39572 -3.40403 0)
(-1.41699 -3.36236 -0)
(-1.46641 -3.33645 -2.46461e-19)
(-1.47515 -3.31558 2.93416e-19)
(-1.52876 -3.24968 -0)
(-0.863288 2.8006 0)
(-2.98847 0.0121898 6.13335e-22)
(-4.54057 -0.0134888 0)
(-5.70051 0.00538602 4.84743e-22)
(-4.47688 -0.0170079 0)
(-1.16173 -0.0353947 0)
(2.64477 -0.0152675 0)
(2.68336 -0.00237706 0)
(0.297214 -0.0098444 -0)
(1.3093 0.00726912 7.66957e-22)
(1.39734 0.0293488 0)
(0.727685 -0.0080029 0)
(1.83081 -0.012025 0)
(3.58388 -0.0142616 0)
(4.7852 -0.0124876 0)
(5.65797 -0.0123994 0)
(6.28781 -0.0122518 0)
(6.59836 -0.00952568 0)
(6.34053 -0.00385234 0)
(5.05394 0.00303943 0)
(3.0084 0.0108115 -1.39403e-21)
(-1639.48 866.056 0)
(-5.34192 0.0407353 -1.467e-21)
(-11.7467 0.0583777 0)
(-15.0999 0.0246657 -1.05012e-21)
(-15.5277 0.00917455 0)
(-13.8345 -0.0139493 -6.2474e-22)
(-8.451 -0.0186573 -0)
(-11.7715 0.0260069 0)
(-17.0357 0.0712146 0)
(-5.74416 -0.131427 -4.16192e-23)
(9.40313 -0.114297 9.53787e-24)
(7.65081 -0.013939 -2.46037e-22)
(2.731 0.0430965 -5.14096e-22)
(-0.95294 0.0274594 -6.39804e-22)
(-1.68556 0.020433 0)
(1.14785 -0.0162158 0)
(0.178637 -0.00440033 -6.82126e-23)
(-0.121334 0.000544181 -8.28022e-22)
(-1.69904 0.0125374 -8.61345e-22)
(-2.33569 0.0100397 -8.59733e-22)
(-2.68179 0.00909235 -8.399e-22)
(-1.66064 -0.00765688 -7.93199e-22)
(0.193066 -0.0207563 -0)
(1.92556 -0.0172933 -6.90137e-22)
(3.30746 -0.0130642 -6.7828e-22)
(4.75135 -0.0193002 -6.94189e-22)
(5.78256 -0.0263452 -7.63356e-22)
(3.76105 0.0134775 -9.10292e-22)
(-5.32617 0.0580739 -1.02364e-21)
(-18.1382 0.110219 -0)
(-26.1236 0.0616255 -2.38581e-22)
(-23.5156 -0.0273614 4.24229e-22)
(-12.4846 -0.0895465 7.21782e-22)
(-2.94283 -0.068637 7.12203e-22)
(0.659971 -0.0313675 6.93623e-22)
(0.525323 -0.011905 6.6001e-22)
(-1.35592 0.00728436 0)
(-2.55939 0.00288488 6.16228e-22)
(-2.23994 -0.00638485 0)
(-2.01859 0.00127571 -0)
(-2.48351 0.00766702 0)
(-3.26083 0.00708635 -5.70904e-22)
(-4.15827 0.00343315 -0)
(-4.87658 0.00539069 0)
(-5.00864 0.00278984 0)
(-4.81674 0.00311928 0)
(-4.80274 0.00722593 0)
(-3.92674 0.00865468 0)
(-2.99993 -0.00283378 -9.12529e-22)
(-0.872311 -0.0174511 0)
(1.05881 -0.0130826 0)
(2.52129 -0.00815826 0)
(3.65742 -0.00620002 -1.26073e-21)
(4.55053 -0.00452432 0)
(5.26316 -0.00413553 0)
(5.83107 -0.00313826 0)
(6.2731 -0.00338591 0)
(6.61334 -0.0025499 0)
(6.86121 -0.00317281 0)
(7.04053 -0.0023573 -1.21208e-21)
(7.16087 -0.00319417 -0)
(7.24275 -0.00227118 0)
(7.29828 -0.00291602 -1.04594e-21)
(7.33607 -0.00177609 -0)
(7.35637 -0.0020337 -9.0722e-22)
(7.35467 -0.000778655 -0)
(7.31806 -0.0010527 -0)
(7.24585 0.000153276 6.71524e-22)
(7.13379 -0.000280544 0)
(6.99483 0.00090907 -5.0676e-22)
(6.82879 0.000478714 -0)
(6.64822 0.00181544 -0)
(6.4505 0.0013565 0)
(6.24416 0.00271844 0)
(6.03945 0.00216988 0)
(5.8446 0.00352503 -3.06453e-23)
(5.67662 0.00465048 0)
(5.49978 0.00537619 0)
(5.23943 0.00379589 2.14494e-20)
(4.9195 0.00344718 5.39869e-20)
(4.56966 0.00245551 0)
(4.18076 0.00197325 0)
(3.75751 0.00161368 0)
(3.29565 0.00121915 -0)
(2.78876 0.000985873 0)
(2.24127 0.000630851 -2.8579e-19)
(1.67238 0.00183866 -0)
(0.180611 0.00311927 -4.64683e-20)
(0.985985 -0.00137659 4.74688e-19)
(0.921967 9.23995e-05 0)
(-0.196408 0.00123257 0)
(-0.470999 0.00125087 0)
(-0.686024 0.0009327 1.2339e-18)
(-0.740414 0.00106452 -1.09487e-18)
(-0.604297 4.05983e-05 -0)
(-1.2122 0.00366165 1.68793e-18)
(2.75229 -0.00374553 -0)
(-2.43555 -0.00267838 2.72435e-18)
(-1.99589 0.00342576 0)
(2.9084 -0.0126037 0)
(-2.73418 0.0141118 0)
(-4.53846 0.0261111 0)
(-3.18696 0.0184327 0)
(-5.62902 0.0208932 1.609e-19)
(-4.58679 5.2615e-05 3.66779e-18)
(-0.489645 -0.0240142 0)
(1.04741 -0.0277171 -7.03005e-18)
(0.621456 -0.0212333 -0)
(-0.985913 -0.00210194 0)
)
;
    }
    front
    {
        type            empty;
    }
    back
    {
        type            empty;
    }
}


// ************************************************************************* //
