/*--------------------------------*- C++ -*----------------------------------*\
| =========                 |                                                 |
| \\      /  F ield         | OpenFOAM: The Open Source CFD Toolbox           |
|  \\    /   O peration     | Version:  2306                                  |
|   \\  /    A nd           | Website:  www.openfoam.com                      |
|    \\/     M anipulation  |                                                 |
\*---------------------------------------------------------------------------*/
FoamFile
{
    version     2.0;
    format      ascii;
    arch        "LSB;label=32;scalar=64";
    class       volScalarField;
    location    "0.2";
    object      p;
}
// * * * * * * * * * * * * * * * * * * * * * * * * * * * * * * * * * * * * * //

dimensions      [0 2 -2 0 0 0 0];

internalField   nonuniform List<scalar> 
400
(
3.61201e-06
-0.0087294
-0.0194813
-0.0277261
-0.0307883
-0.0274742
-0.0176936
-0.00214014
0.0179537
0.0409889
0.0651317
0.088434
0.108963
0.124957
0.135018
0.138354
0.135068
0.126494
0.115518
0.106797
0.00866124
-0.000322445
-0.00874515
-0.0144113
-0.0160248
-0.0127517
-0.00448153
0.00829055
0.0246352
0.0433123
0.0628761
0.0817809
0.0984979
0.11165
0.120169
0.123472
0.121677
0.115728
0.10711
0.0981681
0.0200388
0.00760421
-0.00149639
-0.00670513
-0.00800855
-0.00496287
0.00242648
0.0136859
0.0280125
0.0443554
0.0614871
0.0780871
0.0928385
0.104541
0.112235
0.115344
0.113855
0.108318
0.0989665
0.0865628
0.030383
0.0132193
0.00192575
-0.00400174
-0.00560739
-0.00279417
0.00426252
0.0150114
0.0286611
0.0442301
0.0605856
0.076502
0.090735
0.102114
0.109642
0.112617
0.11083
0.104488
0.0928114
0.07559
0.0371969
0.015064
0.00115484
-0.00581395
-0.00779264
-0.00498803
0.00224399
0.0132353
0.0271526
0.0430226
0.0597421
0.0761099
0.0908787
0.102826
0.110838
0.114019
0.111928
0.104457
0.0899669
0.0675737
0.0386615
0.0115031
-0.00511861
-0.0131128
-0.0152522
-0.0120247
-0.00397506
0.00808553
0.0232456
0.0404993
0.0587278
0.0767052
0.0931259
0.106655
0.115993
0.11999
0.117928
0.109384
0.0919197
0.0641392
0.0332054
0.000929826
-0.0183428
-0.0271009
-0.0289429
-0.0246503
-0.0149774
-0.000903667
0.0165563
0.0363394
0.0572867
0.0781188
0.097436
0.113743
0.125496
0.131219
0.129848
0.120591
0.100164
0.066695
0.0191848
-0.0183824
-0.0401072
-0.0491139
-0.0499312
-0.0436941
-0.0314084
-0.0142486
0.00665346
0.0301735
0.0551119
0.0801342
0.103736
0.124234
0.139783
0.148501
0.148871
0.139608
0.116399
0.0768139
-0.00536612
-0.048489
-0.0722992
-0.0807268
-0.0794593
-0.0701057
-0.0539901
-0.0325139
-0.00692624
0.0216071
0.0518762
0.0825233
0.11196
0.138313
0.159398
0.172825
0.176479
0.168368
0.142801
0.0965564
-0.0429688
-0.0919803
-0.117227
-0.123785
-0.118907
-0.104871
-0.083418
-0.0562063
-0.0245832
0.010296
0.0472808
0.0850649
0.122043
0.156191
0.184969
0.205386
0.214532
0.209386
0.182297
0.128801
-0.0970163
-0.152253
-0.177754
-0.180403
-0.169686
-0.148851
-0.120176
-0.085593
-0.0464934
-0.00392459
0.0411436
0.087588
0.133916
0.178057
0.217158
0.247558
0.26533
0.265963
0.238935
0.17769
-0.172327
-0.233933
-0.257474
-0.252912
-0.233055
-0.202529
-0.164265
-0.120443
-0.0723808
-0.0208549
0.0335333
0.0900478
0.147521
0.204039
0.256582
0.300836
0.33165
0.34244
0.318411
0.249348
-0.276236
-0.343564
-0.360895
-0.343702
-0.309779
-0.265609
-0.214816
-0.159684
-0.10123
-0.0397053
0.0249288
0.0926113
0.162815
0.234117
0.303658
0.36667
0.416708
0.444466
0.428878
0.353202
-0.420917
-0.49075
-0.493535
-0.454778
-0.399511
-0.336405
-0.269563
-0.200989
-0.130986
-0.0588876
0.0163423
0.0956888
0.179687
0.267915
0.358253
0.446041
0.523838
0.579181
0.582215
0.504629
-0.628239
-0.689869
-0.661516
-0.586618
-0.499596
-0.410871
-0.324167
-0.240358
-0.158323
-0.0759355
0.00928369
0.0997869
0.197671
0.304194
0.418911
0.538429
0.65545
0.754834
0.795782
0.730199
-0.93837
-0.961762
-0.870131
-0.736269
-0.603501
-0.481575
-0.371708
-0.271996
-0.178778
-0.0877654
0.00542403
0.105107
0.215438
0.340142
0.481774
0.640282
0.811154
0.979253
1.09375
1.07616
-1.42519
-1.334
-1.12118
-0.895868
-0.700286
-0.537864
-0.403354
-0.289235
-0.187716
-0.0915787
0.0058296
0.11093
0.230288
0.370873
0.539943
0.744001
0.985959
1.25682
1.50675
1.62274
-2.25654
-1.84022
-1.39827
-1.0419
-0.768655
-0.563164
-0.407619
-0.284867
-0.181199
-0.0859865
0.00964338
0.114011
0.236003
0.386256
0.578471
0.829916
1.15781
1.5731
2.07289
2.5462
-3.8782
-2.4973
-1.59597
-1.07867
-0.741948
-0.514944
-0.359013
-0.244814
-0.152832
-0.0701897
0.0128141
0.104967
0.216015
0.358916
0.553416
0.83006
1.23011
1.82417
2.81454
4.29843
-6.63774
-3.13689
-1.50293
-0.865748
-0.542316
-0.353961
-0.239044
-0.161377
-0.100719
-0.0457664
0.0110727
0.0764114
0.157797
0.266358
0.422042
0.662499
1.05683
1.79115
3.53923
7.15537
)
;

boundaryField
{
    movingWall
    {
        type            zeroGradient;
    }
    fixedWalls
    {
        type            zeroGradient;
    }
    frontAndBack
    {
        type            empty;
    }
}


// ************************************************************************* //
