/*--------------------------------*- C++ -*----------------------------------*\
| =========                 |                                                 |
| \\      /  F ield         | OpenFOAM: The Open Source CFD Toolbox           |
|  \\    /   O peration     | Version:  2306                                  |
|   \\  /    A nd           | Website:  www.openfoam.com                      |
|    \\/     M anipulation  |                                                 |
\*---------------------------------------------------------------------------*/
FoamFile
{
    version     2.0;
    format      ascii;
    arch        "LSB;label=32;scalar=64";
    class       surfaceScalarField;
    location    "0.2";
    object      phi;
}
// * * * * * * * * * * * * * * * * * * * * * * * * * * * * * * * * * * * * * //

dimensions      [0 3 -1 0 0 0 0];

oriented        oriented;

internalField   nonuniform List<scalar> 
760
(
1.44421e-08
-1.44631e-08
-2.16667e-08
3.61089e-08
-1.1366e-07
9.19935e-08
-2.45196e-07
1.31537e-07
-3.96365e-07
1.5117e-07
-5.48195e-07
1.51831e-07
-6.84324e-07
1.36131e-07
-7.917e-07
1.07377e-07
-8.60764e-07
6.90637e-08
-8.85498e-07
2.47342e-08
-8.6351e-07
-2.19878e-08
-7.96193e-07
-6.73173e-08
-6.88933e-07
-1.07261e-07
-5.5128e-07
-1.37653e-07
-3.96944e-07
-1.54338e-07
-2.43379e-07
-1.53565e-07
-1.10644e-07
-1.32735e-07
-1.91409e-08
-9.15036e-08
1.54096e-08
-3.45512e-08
1.5409e-08
-3.3705e-08
1.92418e-08
-1.79262e-07
1.81666e-07
-4.32785e-07
3.45517e-07
-7.63831e-07
4.62584e-07
-1.13265e-06
5.19991e-07
-1.4987e-06
5.17876e-07
-1.82532e-06
4.62752e-07
-2.08231e-06
3.64366e-07
-2.24714e-06
2.33895e-07
-2.3056e-06
8.31993e-08
-2.25224e-06
-7.53572e-08
-2.09067e-06
-2.28879e-07
-1.83397e-06
-3.63968e-07
-1.5046e-06
-4.67022e-07
-1.13393e-06
-5.25002e-07
-7.60587e-07
-5.26912e-07
-4.27082e-07
-4.6624e-07
-1.74153e-07
-3.44431e-07
-3.14307e-08
-1.77272e-07
-1.60217e-08
-9.14977e-08
1.10739e-07
-3.55496e-07
4.45663e-07
-7.63071e-07
7.53093e-07
-1.26792e-06
9.67433e-07
-1.81556e-06
1.06763e-06
-2.3512e-06
1.05352e-06
-2.82517e-06
9.36725e-07
-3.19626e-06
7.35452e-07
-3.43357e-06
4.71211e-07
-3.51761e-06
1.67238e-07
-3.4409e-06
-1.52069e-07
-3.2085e-06
-4.6128e-07
-2.83833e-06
-7.3414e-07
-2.36108e-06
-9.44265e-07
-1.81935e-06
-1.06674e-06
-1.26529e-06
-1.08097e-06
-7.56411e-07
-9.75124e-07
-3.48829e-07
-7.52013e-07
-8.82426e-08
-4.37858e-07
-1.04263e-07
-1.44298e-07
2.55037e-07
-5.23845e-07
8.25209e-07
-1.08047e-06
1.30971e-06
-1.74791e-06
1.63488e-06
-2.45676e-06
1.77648e-06
-3.14043e-06
1.73719e-06
-3.73985e-06
1.53615e-06
-4.20654e-06
1.20214e-06
-4.50433e-06
7.69007e-07
-4.61041e-06
2.73319e-07
-4.51591e-06
-2.46569e-07
-4.22646e-06
-7.50731e-07
-3.76263e-06
-1.19798e-06
-3.16e-06
-1.54689e-06
-2.46852e-06
-1.75822e-06
-1.75034e-06
-1.79915e-06
-1.07576e-06
-1.6497e-06
-5.16987e-07
-1.31078e-06
-1.40376e-07
-8.14468e-07
-2.44638e-07
-1.92677e-07
4.47713e-07
-6.83893e-07
1.31643e-06
-1.38602e-06
2.01184e-06
-2.21046e-06
2.45931e-06
-3.07172e-06
2.63775e-06
-3.8921e-06
2.55756e-06
-4.60503e-06
2.24908e-06
-5.15713e-06
1.75424e-06
-5.50914e-06
1.12102e-06
-5.63631e-06
4.00486e-07
-5.52871e-06
-3.54172e-07
-5.19171e-06
-1.08773e-06
-4.64668e-06
-1.74301e-06
-3.93162e-06
-2.26195e-06
-3.10128e-06
-2.58856e-06
-2.22602e-06
-2.67441e-06
-1.38875e-06
-2.48698e-06
-6.79588e-07
-2.01994e-06
-1.88793e-07
-1.30526e-06
-4.3343e-07
-2.39312e-07
6.87024e-07
-8.40846e-07
1.91796e-06
-1.6873e-06
2.85829e-06
-2.66596e-06
3.43798e-06
-3.67432e-06
3.6461e-06
-4.62386e-06
3.5071e-06
-5.44199e-06
3.06721e-06
-6.07243e-06
2.38467e-06
-6.47465e-06
1.52324e-06
-6.6232e-06
5.49035e-07
-6.50733e-06
-4.70044e-07
-6.13131e-06
-1.46375e-06
-5.51553e-06
-2.35879e-06
-4.69804e-06
-3.07943e-06
-3.73615e-06
-3.55045e-06
-2.70698e-06
-3.70358e-06
-1.70619e-06
-3.48777e-06
-8.43758e-07
-2.88237e-06
-2.36818e-07
-1.9122e-06
-6.70247e-07
-2.86935e-07
9.73958e-07
-1.00082e-06
2.63184e-06
-1.99259e-06
3.85007e-06
-3.12347e-06
4.56886e-06
-4.27317e-06
4.7958e-06
-5.34319e-06
4.57713e-06
-6.25687e-06
3.98089e-06
-6.95738e-06
3.08519e-06
-7.40515e-06
1.971e-06
-7.57542e-06
7.19312e-07
-7.45698e-06
-5.8849e-07
-7.0521e-06
-1.86863e-06
-6.37815e-06
-3.03273e-06
-5.47047e-06
-3.98711e-06
-4.386e-06
-4.63493e-06
-3.20651e-06
-4.88307e-06
-2.03991e-06
-4.65437e-06
-1.01783e-06
-3.90445e-06
-2.87978e-07
-2.64206e-06
-9.58224e-07
-3.38064e-07
1.31202e-06
-1.16951e-06
3.46329e-06
-2.30873e-06
4.98928e-06
-3.58797e-06
5.84809e-06
-4.86888e-06
6.07671e-06
-6.0449e-06
5.75314e-06
-7.03839e-06
4.97439e-06
-7.79552e-06
3.84232e-06
-8.28063e-06
2.45611e-06
-8.47173e-06
9.10405e-07
-8.3577e-06
-7.02519e-07
-7.93791e-06
-2.28841e-06
-7.22426e-06
-3.74639e-06
-6.24565e-06
-4.96571e-06
-5.05439e-06
-5.82619e-06
-3.7331e-06
-6.20436e-06
-2.40006e-06
-5.98741e-06
-1.20982e-06
-5.09469e-06
-3.45673e-07
-3.50621e-06
-1.3039e-06
-3.95171e-07
1.70719e-06
-1.35211e-06
4.42024e-06
-2.6402e-06
6.27737e-06
-4.05868e-06
7.26657e-06
-5.45168e-06
7.46971e-06
-6.70818e-06
7.00965e-06
-7.75472e-06
6.02093e-06
-8.54557e-06
4.63316e-06
-9.0533e-06
2.96385e-06
-9.26149e-06
1.1186e-06
-9.16026e-06
-8.03754e-07
-8.74515e-06
-2.70352e-06
-8.01963e-06
-4.4719e-06
-7.00131e-06
-5.98403e-06
-5.73159e-06
-7.09591e-06
-4.28759e-06
-7.64836e-06
-2.79355e-06
-7.48145e-06
-1.427e-06
-6.46124e-06
-4.13299e-07
-4.51991e-06
-1.71719e-06
-4.61283e-07
2.16847e-06
-1.554e-06
5.51295e-06
-2.98909e-06
7.71246e-06
-4.52763e-06
8.80512e-06
-5.99848e-06
8.94056e-06
-7.2927e-06
8.30386e-06
-8.34882e-06
7.07705e-06
-9.13651e-06
5.42086e-06
-9.64235e-06
3.46968e-06
-9.85926e-06
1.33551e-06
-9.78027e-06
-8.82746e-07
-9.39646e-06
-3.08734e-06
-8.69962e-06
-5.16874e-06
-7.69e-06
-6.99366e-06
-6.3895e-06
-8.39641e-06
-4.85984e-06
-9.17801e-06
-3.22277e-06
-9.11852e-06
-1.67611e-06
-8.0079e-06
-4.94753e-07
-5.70126e-06
-2.21195e-06
-5.41061e-07
2.70953e-06
-1.78206e-06
6.75395e-06
-3.35493e-06
9.28534e-06
-4.97721e-06
1.04274e-05
-6.46843e-06
1.04318e-05
-7.73271e-06
9.56814e-06
-8.73204e-06
8.07638e-06
-9.4611e-06
6.14992e-06
-9.92748e-06
3.93606e-06
-1.01381e-05
1.54609e-06
-1.0091e-05
-9.29801e-07
-9.77281e-06
-3.40553e-06
-9.16059e-06
-5.78096e-06
-8.23055e-06
-7.9237e-06
-6.97428e-06
-9.65268e-06
-5.42379e-06
-1.07285e-05
-3.68374e-06
-1.08586e-05
-1.96389e-06
-9.72775e-06
-5.95358e-07
-7.06979e-06
-2.8073e-06
-6.42598e-07
3.35213e-06
-2.04621e-06
8.15756e-06
-3.73327e-06
1.09724e-05
-5.37496e-06
1.20691e-05
-6.79488e-06
1.18517e-05
-7.92792e-06
1.07012e-05
-8.77519e-06
8.92365e-06
-9.36779e-06
6.74252e-06
-9.7418e-06
4.31006e-06
-9.92258e-06
1.72688e-06
-9.91602e-06
-9.36359e-07
-9.7048e-06
-3.61675e-06
-9.24955e-06
-6.23621e-06
-8.49659e-06
-8.67666e-06
-7.39523e-06
-1.0754e-05
-5.92893e-06
-1.21948e-05
-4.16203e-06
-1.26255e-05
-2.29729e-06
-1.15925e-05
-7.23416e-07
-8.64366e-06
-3.53072e-06
-7.80342e-07
4.13248e-06
-2.36022e-06
9.73744e-06
-4.11003e-06
1.27222e-05
-5.66189e-06
1.36209e-05
-6.87059e-06
1.30604e-05
-7.72884e-06
1.15594e-05
-8.2962e-06
9.49102e-06
-8.65156e-06
7.09788e-06
-8.86519e-06
4.52369e-06
-8.98389e-06
1.84558e-06
-9.02339e-06
-8.96863e-07
-8.96453e-06
-3.67561e-06
-8.75253e-06
-6.4482e-06
-8.30125e-06
-9.12794e-06
-7.50771e-06
-1.15476e-05
-6.28512e-06
-1.34174e-05
-4.62366e-06
-1.42869e-05
-2.68216e-06
-1.3534e-05
-8.92667e-07
-1.04332e-05
-4.42339e-06
-9.79308e-07
5.11178e-06
-2.73838e-06
1.14965e-05
-4.44515e-06
1.4429e-05
-5.72709e-06
1.49029e-05
-6.52064e-06
1.38539e-05
-6.91358e-06
1.19524e-05
-7.04371e-06
9.62114e-06
-7.04442e-06
7.09859e-06
-7.02036e-06
4.49963e-06
-7.03841e-06
1.86363e-06
-7.12452e-06
-8.1076e-07
-7.26108e-06
-3.53905e-06
-7.38358e-06
-6.32571e-06
-7.37822e-06
-9.13329e-06
-7.08729e-06
-1.18385e-05
-6.33506e-06
-1.41696e-05
-4.99457e-06
-1.56274e-05
-3.11652e-06
-1.5412e-05
-1.12551e-06
-1.24242e-05
-5.5489e-06
-1.2781e-06
6.38988e-06
-3.17727e-06
1.33957e-05
-4.63026e-06
1.5882e-05
-5.35568e-06
1.56283e-05
-5.45505e-06
1.39533e-05
-5.15338e-06
1.16507e-05
-4.67727e-06
9.14504e-06
-4.20864e-06
6.62996e-06
-3.87544e-06
4.16643e-06
-3.75571e-06
1.74391e-06
-3.88251e-06
-6.83965e-07
-4.2442e-06
-3.17736e-06
-4.77842e-06
-5.79149e-06
-5.36049e-06
-8.55121e-06
-5.79209e-06
-1.14069e-05
-5.80547e-06
-1.41562e-05
-5.11504e-06
-1.63179e-05
-3.56657e-06
-1.69605e-05
-1.45334e-06
-1.45374e-05
-7.00224e-06
-1.71581e-06
8.1057e-06
-3.58916e-06
1.5269e-05
-4.38696e-06
1.66798e-05
-4.12861e-06
1.537e-05
-3.19317e-06
1.30179e-05
-1.96769e-06
1.04252e-05
-7.49741e-07
7.92708e-06
2.60745e-07
5.61948e-06
9.40291e-07
3.48688e-06
1.21862e-06
1.46557e-06
1.06349e-06
-5.28831e-07
4.76253e-07
-2.59012e-06
-5.00638e-07
-4.8146e-06
-1.76316e-06
-7.28869e-06
-3.11315e-06
-1.00569e-05
-4.22434e-06
-1.30451e-05
-4.64175e-06
-1.59005e-05
-3.89242e-06
-1.77098e-05
-1.89662e-06
-1.65332e-05
-8.89887e-06
-2.25796e-06
1.03637e-05
-3.60728e-06
1.66183e-05
-3.04422e-06
1.61167e-05
-1.24847e-06
1.35742e-05
1.03991e-06
1.07295e-05
3.31835e-06
8.1468e-06
5.29326e-06
5.95217e-06
6.81116e-06
4.10157e-06
7.79788e-06
2.50017e-06
8.21767e-06
1.04578e-06
8.05095e-06
-3.62104e-07
7.28659e-06
-1.82577e-06
5.92805e-06
-3.45606e-06
4.01664e-06
-5.37728e-06
1.67943e-06
-7.71971e-06
-7.93252e-07
-1.05724e-05
-2.85411e-06
-1.38396e-05
-3.6555e-06
-1.69084e-05
-2.37846e-06
-1.78102e-05
-1.12773e-05
-2.54911e-06
1.29128e-05
-2.08849e-06
1.61577e-05
9.03375e-07
1.31249e-05
4.72457e-06
9.75302e-06
8.41921e-06
7.03484e-06
1.15794e-05
4.98663e-06
1.4068e-05
3.46357e-06
1.5867e-05
2.30253e-06
1.69978e-05
1.36935e-06
1.74816e-05
5.6196e-07
1.73218e-05
-2.02257e-07
1.6497e-05
-1.00097e-06
1.49626e-05
-1.92166e-06
1.26638e-05
-3.07849e-06
9.57465e-06
-4.63055e-06
5.78862e-06
-6.78633e-06
1.70097e-06
-9.75195e-06
-1.67199e-06
-1.35355e-05
-2.47165e-06
-1.70106e-05
-1.3749e-05
-6.98102e-07
1.36109e-05
4.30231e-06
1.11573e-05
1.06069e-05
6.82029e-06
1.61379e-05
4.22202e-06
2.0491e-05
2.68171e-06
2.37484e-05
1.72924e-06
2.60916e-05
1.1204e-06
2.76855e-05
7.08574e-07
2.86493e-05
4.05526e-07
2.90534e-05
1.57929e-07
2.89214e-05
-7.03278e-08
2.82306e-05
-3.10152e-07
2.69066e-05
-5.97646e-07
2.48152e-05
-9.87052e-07
2.17566e-05
-1.57195e-06
1.74893e-05
-2.51902e-06
1.18596e-05
-4.12231e-06
5.23497e-06
-6.91083e-06
-2.6153e-07
-1.15141e-05
-1.40105e-05
1.36109e-05
2.47682e-05
3.15885e-05
3.58105e-05
3.84922e-05
4.02214e-05
4.13418e-05
4.20504e-05
4.24559e-05
4.26139e-05
4.25435e-05
4.22334e-05
4.16357e-05
4.06487e-05
3.90767e-05
3.65577e-05
3.24354e-05
2.55246e-05
1.40105e-05
)
;

boundaryField
{
    movingWall
    {
        type            calculated;
        value           uniform 0;
    }
    fixedWalls
    {
        type            calculated;
        value           uniform 0;
    }
    frontAndBack
    {
        type            empty;
        value           nonuniform List<scalar> 0();
    }
}


// ************************************************************************* //
