/*--------------------------------*- C++ -*----------------------------------*\
| =========                 |                                                 |
| \\      /  F ield         | OpenFOAM: The Open Source CFD Toolbox           |
|  \\    /   O peration     | Version:  2306                                  |
|   \\  /    A nd           | Website:  www.openfoam.com                      |
|    \\/     M anipulation  |                                                 |
\*---------------------------------------------------------------------------*/
FoamFile
{
    version     2.0;
    format      ascii;
    arch        "LSB;label=32;scalar=64";
    class       volVectorField;
    location    "0.2";
    object      U;
}
// * * * * * * * * * * * * * * * * * * * * * * * * * * * * * * * * * * * * * //

dimensions      [0 1 -1 0 0 0 0];

internalField   nonuniform List<vector> 
400
(
(0.000255241 -0.000251916 0)
(0.000148723 0.000108857 0)
(-0.00116455 0.000564386 0)
(-0.0034709 0.000888155 0)
(-0.00637671 0.00105113 0)
(-0.0094809 0.00106712 0)
(-0.0124238 0.000960871 0)
(-0.0149081 0.00075978 0)
(-0.0167066 0.00049038 0)
(-0.0176628 0.00017808 0)
(-0.0176922 -0.000151797 0)
(-0.0167838 -0.000472785 0)
(-0.0150052 -0.000756373 0)
(-0.0125056 -0.00097178 0)
(-0.00951921 -0.00108674 0)
(-0.00636203 -0.00107001 0)
(-0.0034175 -0.000896944 0)
(-0.00110435 -0.000558934 0)
(0.000185492 -9.47851e-05 0)
(0.000264909 0.000259922 0)
(-7.27779e-05 -0.000177399 0)
(-0.00159472 0.00163316 0)
(-0.00566716 0.0036151 0)
(-0.0116982 0.00504602 0)
(-0.0188898 0.00576326 0)
(-0.0264209 0.00577994 0)
(-0.0335063 0.00518211 0)
(-0.0394677 0.00408851 0)
(-0.043773 0.00262974 0)
(-0.0460524 0.000940993 0)
(-0.0461074 -0.000838266 0)
(-0.0439183 -0.00256247 0)
(-0.0396513 -0.00407909 0)
(-0.0336628 -0.00523097 0)
(-0.0264968 -0.00586419 0)
(-0.0188654 -0.00584444 0)
(-0.0115974 -0.00508614 0)
(-0.0055478 -0.00359668 0)
(-0.00151586 -0.00157611 0)
(-4.9505e-05 0.000216118 0)
(-0.000521554 0.00107085 0)
(-0.00368771 0.00570971 0)
(-0.0105554 0.0102197 0)
(-0.019968 0.0134321 0)
(-0.0307672 0.0149892 0)
(-0.0418548 0.0148804 0)
(-0.0521733 0.0132767 0)
(-0.0608 0.0104459 0)
(-0.0670065 0.00670208 0)
(-0.0702853 0.00238231 0)
(-0.0703641 -0.00216024 0)
(-0.067217 -0.00655728 0)
(-0.061073 -0.0104276 0)
(-0.0524202 -0.0133868 0)
(-0.0419991 -0.0150702 0)
(-0.0307743 -0.0151757 0)
(-0.0198604 -0.0135313 0)
(-0.0104056 -0.0101898 0)
(-0.00357935 -0.00558656 0)
(-0.000487076 -0.000975795 0)
(-0.000918968 0.00344186 0)
(-0.00566366 0.0121776 0)
(-0.0152691 0.0199193 0)
(-0.027906 0.0252449 0)
(-0.0420145 0.027673 0)
(-0.0562487 0.0272079 0)
(-0.0693456 0.0241416 0)
(-0.0802156 0.0189319 0)
(-0.088005 0.0121226 0)
(-0.0921211 0.00430361 0)
(-0.0922444 -0.00390462 0)
(-0.0883403 -0.0118558 0)
(-0.0806694 -0.0188835 0)
(-0.0697941 -0.0243196 0)
(-0.0565767 -0.0275347 0)
(-0.0421553 -0.0280099 0)
(-0.0278668 -0.0254454 0)
(-0.015131 -0.0199 0)
(-0.00553966 -0.0119828 0)
(-0.000874611 -0.00327213 0)
(-0.00126847 0.00682024 0)
(-0.00751089 0.0208989 0)
(-0.0197914 0.0325239 0)
(-0.0355683 0.0401907 0)
(-0.0528413 0.0434148 0)
(-0.0700128 0.0422996 0)
(-0.0856434 0.0373186 0)
(-0.0985231 0.0291649 0)
(-0.107722 0.0186478 0)
(-0.112598 0.00663888 0)
(-0.112804 -0.00594861 0)
(-0.108292 -0.0181649 0)
(-0.0993254 -0.0290296 0)
(-0.0864953 -0.037555 0)
(-0.0707323 -0.0428011 0)
(-0.0533005 -0.0439743 0)
(-0.0357359 -0.0405752 0)
(-0.0197457 -0.0325796 0)
(-0.00740098 -0.0206578 0)
(-0.0012184 -0.00656756 0)
(-0.00159819 0.0111407 0)
(-0.00930828 0.031825 0)
(-0.0242461 0.0480102 0)
(-0.0431303 0.0582319 0)
(-0.0634879 0.0621349 0)
(-0.0834622 0.0600341 0)
(-0.101458 0.0526687 0)
(-0.116183 0.041024 0)
(-0.126672 0.0262088 0)
(-0.132268 0.00939392 0)
(-0.132609 -0.0082076 0)
(-0.127629 -0.0253372 0)
(-0.117567 -0.0406889 0)
(-0.103 -0.0529289 0)
(-0.0848743 -0.0607575 0)
(-0.0645416 -0.0630308 0)
(-0.04372 -0.0589463 0)
(-0.0244259 -0.0482733 0)
(-0.00926631 -0.0316149 0)
(-0.00155182 -0.0108166 0)
(-0.0019358 0.0163951 0)
(-0.0111466 0.0449653 0)
(-0.0287825 0.0663878 0)
(-0.0507713 0.0793428 0)
(-0.074135 0.0837536 0)
(-0.0967602 0.0802846 0)
(-0.116927 0.0700466 0)
(-0.133306 0.0543845 0)
(-0.144945 0.0347385 0)
(-0.151212 0.0125829 0)
(-0.151751 -0.0105814 0)
(-0.146469 -0.0332036 0)
(-0.135552 -0.0536596 0)
(-0.11951 -0.0702543 0)
(-0.099248 -0.0812788 0)
(-0.0761476 -0.0851453 0)
(-0.0520796 -0.0806137 0)
(-0.0293799 -0.0670853 0)
(-0.0112555 -0.044944 0)
(-0.0019094 -0.0160457 0)
(-0.00230676 0.0226287 0)
(-0.0131128 0.0603941 0)
(-0.0335377 0.0876936 0)
(-0.0586229 0.103477 0)
(-0.0848485 0.10813 0)
(-0.109865 0.10284 0)
(-0.131882 0.089219 0)
(-0.149607 0.0690466 0)
(-0.162167 0.0441207 0)
(-0.169008 0.016206 0)
(-0.169806 -0.0129446 0)
(-0.16444 -0.0415319 0)
(-0.153007 -0.0676471 0)
(-0.135887 -0.0892378 0)
(-0.113861 -0.104141 0)
(-0.0882518 -0.110219 0)
(-0.0610188 -0.105623 0)
(-0.0348041 -0.0891732 0)
(-0.0134876 -0.0608289 0)
(-0.0023247 -0.0223519 0)
(-0.00273743 0.0299361 0)
(-0.015293 0.0782457 0)
(-0.0386279 0.111974 0)
(-0.0667433 0.130524 0)
(-0.095537 0.134996 0)
(-0.122475 0.127327 0)
(-0.145794 0.109785 0)
(-0.164343 0.0846671 0)
(-0.177431 0.0541404 0)
(-0.184651 0.0202245 0)
(-0.185753 -0.0151437 0)
(-0.180592 -0.0499954 0)
(-0.169136 -0.0822056 0)
(-0.151558 -0.109399 0)
(-0.128395 -0.128933 0)
(-0.10078 -0.138005 0)
(-0.0706403 -0.133951 0)
(-0.0408646 -0.114719 0)
(-0.0160811 -0.0795414 0)
(-0.00283343 -0.0298999 0)
(-0.00326292 0.0384646 0)
(-0.0177899 0.0987054 0)
(-0.0441586 0.13924 0)
(-0.075103 0.160227 0)
(-0.105907 0.163851 0)
(-0.133959 0.153095 0)
(-0.157679 0.131072 0)
(-0.176217 0.10067 0)
(-0.189195 0.0644207 0)
(-0.196451 0.0245262 0)
(-0.197865 -0.0169988 0)
(-0.193279 -0.0581384 0)
(-0.182495 -0.0966676 0)
(-0.165384 -0.12997 0)
(-0.142091 -0.154931 0)
(-0.113367 -0.167986 0)
(-0.0809006 -0.165403 0)
(-0.0476915 -0.143868 0)
(-0.0191668 -0.101423 0)
(-0.00348112 -0.0389259 0)
(-0.00394149 0.0484349 0)
(-0.0207536 0.122005 0)
(-0.0502419 0.169408 0)
(-0.0835604 0.192074 0)
(-0.115392 0.193823 0)
(-0.14325 0.17908 0)
(-0.165978 0.15201 0)
(-0.183246 0.116154 0)
(-0.195155 0.0743549 0)
(-0.201904 0.0288859 0)
(-0.203572 -0.0183139 0)
(-0.200006 -0.0653531 0)
(-0.19082 -0.11008 0)
(-0.175485 -0.149782 0)
(-0.153584 -0.180951 0)
(-0.125223 -0.199197 0)
(-0.0915406 -0.199454 0)
(-0.0553705 -0.176629 0)
(-0.022912 -0.126864 0)
(-0.00433715 -0.0497561 0)
(-0.00488015 0.0601909 0)
(-0.0244291 0.148425 0)
(-0.0570043 0.202194 0)
(-0.0917933 0.225121 0)
(-0.123012 0.223479 0)
(-0.148661 0.203634 0)
(-0.168366 0.171009 0)
(-0.182587 0.129798 0)
(-0.192092 0.0830451 0)
(-0.197555 0.0329249 0)
(-0.199318 -0.0188981 0)
(-0.197274 -0.0708749 0)
(-0.190838 -0.121157 0)
(-0.179019 -0.167165 0)
(-0.160665 -0.205174 0)
(-0.13493 -0.230004 0)
(-0.101953 -0.235023 0)
(-0.0639115 -0.212717 0)
(-0.0275546 -0.156267 0)
(-0.00551953 -0.0628503 0)
(-0.00628001 0.0743 0)
(-0.0292183 0.178277 0)
(-0.064546 0.236932 0)
(-0.0991141 0.257726 0)
(-0.127091 0.250573 0)
(-0.147581 0.224343 0)
(-0.161477 0.185843 0)
(-0.170329 0.139806 0)
(-0.175723 0.0892716 0)
(-0.178886 0.036084 0)
(-0.180467 -0.0185984 0)
(-0.180446 -0.0738124 0)
(-0.178076 -0.128287 0)
(-0.171906 -0.179885 0)
(-0.159945 -0.224982 0)
(-0.140095 -0.257829 0)
(-0.110923 -0.270135 0)
(-0.0731463 -0.25128 0)
(-0.0334429 -0.189974 0)
(-0.00723821 -0.0788909 0)
(-0.00850947 0.0917277 0)
(-0.0357315 0.211819 0)
(-0.0727417 0.272211 0)
(-0.104022 0.287132 0)
(-0.124701 0.271731 0)
(-0.135954 0.237865 0)
(-0.140506 0.193617 0)
(-0.14123 0.143942 0)
(-0.140575 0.0915374 0)
(-0.140283 0.0376364 0)
(-0.141295 -0.017339 0)
(-0.143708 -0.0732333 0)
(-0.146717 -0.129622 0)
(-0.148537 -0.185181 0)
(-0.146398 -0.23686 0)
(-0.136784 -0.278845 0)
(-0.116099 -0.301443 0)
(-0.0824403 -0.290423 0)
(-0.0410419 -0.228075 0)
(-0.00986032 -0.0989301 0)
(-0.0121789 0.114082 0)
(-0.0446871 0.248909 0)
(-0.0805959 0.305169 0)
(-0.103181 0.308861 0)
(-0.110612 0.282154 0)
(-0.107435 0.23992 0)
(-0.0986638 0.19094 0)
(-0.0884738 0.13976 0)
(-0.0799605 0.0882616 0)
(-0.0751604 0.0367804 0)
(-0.0751704 -0.015161 0)
(-0.0802173 -0.0683371 0)
(-0.0896031 -0.123351 0)
(-0.101515 -0.180034 0)
(-0.112763 -0.23652 0)
(-0.118616 -0.287792 0)
(-0.112972 -0.323638 0)
(-0.0899305 -0.326385 0)
(-0.0507308 -0.269899 0)
(-0.013955 -0.124567 0)
(-0.0180177 0.143974 0)
(-0.056123 0.288066 0)
(-0.0844159 0.330185 0)
(-0.089259 0.315944 0)
(-0.0754794 0.275522 0)
(-0.0521968 0.225665 0)
(-0.0265903 0.174493 0)
(-0.00355172 0.125161 0)
(0.013803 0.0782024 0)
(0.0236261 0.0328592 0)
(0.024939 -0.012242 0)
(0.0174276 -0.0587273 0)
(0.00146737 -0.108196 0)
(-0.0215993 -0.161811 0)
(-0.0489251 -0.219469 0)
(-0.075413 -0.278141 0)
(-0.0929301 -0.328868 0)
(-0.0906242 -0.352218 0)
(-0.0618076 -0.312873 0)
(-0.0200738 -0.158196 0)
(-0.0258021 0.185842 0)
(-0.066479 0.324095 0)
(-0.0732763 0.336322 0)
(-0.0467352 0.297875 0)
(-0.00306068 0.244304 0)
(0.0444387 0.190654 0)
(0.0879818 0.142112 0)
(0.123424 0.099318 0)
(0.148722 0.0611087 0)
(0.162916 0.0257059 0)
(0.165523 -0.00887549 0)
(0.156241 -0.0447425 0)
(0.134932 -0.0841286 0)
(0.101888 -0.129314 0)
(0.058507 -0.182185 0)
(0.00854904 -0.242841 0)
(-0.0399047 -0.306231 0)
(-0.0721867 -0.355574 0)
(-0.0693367 -0.350043 0)
(-0.0274413 -0.203628 0)
(-0.0293427 0.243529 0)
(-0.0598166 0.341343 0)
(-0.0191103 0.303957 0)
(0.0551426 0.241109 0)
(0.1332 0.182099 0)
(0.202826 0.133446 0)
(0.259634 0.0949131 0)
(0.302513 0.0641586 0)
(0.331724 0.0386315 0)
(0.347819 0.016092 0)
(0.3511 -0.00544004 0)
(0.341402 -0.0278974 0)
(0.318036 -0.0534239 0)
(0.279898 -0.0846372 0)
(0.225935 -0.124773 0)
(0.156333 -0.177223 0)
(0.0747548 -0.243331 0)
(-0.00659469 -0.316436 0)
(-0.0556869 -0.363299 0)
(-0.0285378 -0.262495 0)
(0.010128 0.28455 0)
(0.0235459 0.297957 0)
(0.144573 0.212242 0)
(0.271239 0.143168 0)
(0.371324 0.0960542 0)
(0.446705 0.0643851 0)
(0.502008 0.0428596 0)
(0.540841 0.027622 0)
(0.566043 0.0160634 0)
(0.579527 0.00645213 0)
(0.582242 -0.00247271 0)
(0.57421 -0.0118337 0)
(0.554475 -0.0229207 0)
(0.520966 -0.0375657 0)
(0.470368 -0.0586693 0)
(0.398176 -0.0908201 0)
(0.298454 -0.14067 0)
(0.167515 -0.215877 0)
(0.0378403 -0.309112 0)
(0.0170514 -0.296651 0)
(0.301472 0.14654 0)
(0.39986 0.127646 0)
(0.561921 0.0756533 0)
(0.678878 0.0430552 0)
(0.747588 0.024938 0)
(0.790046 0.0147466 0)
(0.817605 0.00885724 0)
(0.835394 0.00526293 0)
(0.846246 0.00285623 0)
(0.851739 0.0010261 0)
(0.852596 -0.000600184 0)
(0.848894 -0.00231986 0)
(0.84007 -0.00448296 0)
(0.824695 -0.00765927 0)
(0.799998 -0.012927 0)
(0.760768 -0.0223877 0)
(0.695339 -0.0400816 0)
(0.579645 -0.0733665 0)
(0.412915 -0.127899 0)
(0.307627 -0.148804 0)
)
;

boundaryField
{
    movingWall
    {
        type            fixedValue;
        value           uniform (1 0 0);
    }
    fixedWalls
    {
        type            noSlip;
    }
    frontAndBack
    {
        type            empty;
    }
}


// ************************************************************************* //
