# y+ ()       
# Time        	patch         	min           	max           	average       
2000          	upperWall	5.191341e-01	2.721479e+00	1.417568e+00
2000          	lowerWall	1.227693e-02	5.675683e+00	1.329226e+00
