# y+ ()       
# Time        	patch         	min           	max           	average       
2000          	upperWall	6.141751e-01	2.717583e+00	1.632542e+00
2000          	lowerWall	7.274264e-04	8.681934e+00	1.725501e+00
