/*--------------------------------*- C++ -*----------------------------------*\
| =========                 |                                                 |
| \\      /  F ield         | OpenFOAM: The Open Source CFD Toolbox           |
|  \\    /   O peration     | Version:  2306                                  |
|   \\  /    A nd           | Website:  www.openfoam.com                      |
|    \\/     M anipulation  |                                                 |
\*---------------------------------------------------------------------------*/
FoamFile
{
    version     2.0;
    format      ascii;
    arch        "LSB;label=32;scalar=64";
    class       volScalarField;
    location    "1800";
    object      cp;
}
// * * * * * * * * * * * * * * * * * * * * * * * * * * * * * * * * * * * * * //

dimensions      [0 0 0 0 0 0 0];

internalField   nonuniform List<scalar> 
20540
(
0.231593
-0.0188783
0.230051
-0.0313554
0.228986
-0.0390115
0.228596
-0.0418379
0.228422
-0.0430036
0.22829
-0.0437645
0.228183
-0.0443408
0.228105
-0.044765
0.228052
-0.0450733
0.228016
-0.045297
0.227994
-0.0454534
0.22798
-0.045551
0.22797
-0.0455931
0.227958
-0.0455803
0.22794
-0.0455111
0.227907
-0.0453825
0.227856
-0.0451906
0.227779
-0.044931
0.227675
-0.0445996
0.227543
-0.0441938
0.227386
-0.0437127
0.22721
-0.0431571
0.227028
-0.0425343
0.226841
-0.0418617
0.226581
-0.0411228
0.226106
-0.0401658
0.225444
-0.0388165
0.224753
-0.0372772
0.224017
-0.0358901
0.223207
-0.034691
0.222557
-0.0338383
0.222234
-0.0334514
0.222225
-0.0334854
0.222526
-0.0339419
0.223141
-0.0348579
0.223907
-0.0360671
0.224612
-0.0374317
0.225281
-0.0389634
0.225943
-0.0403464
0.226446
-0.0413428
0.226735
-0.0421022
0.226938
-0.0427847
0.227133
-0.0434157
0.227326
-0.0439803
0.227503
-0.0444715
0.227654
-0.0448892
0.227777
-0.045235
0.22787
-0.0455119
0.227936
-0.0457243
0.227979
-0.0458769
0.228005
-0.0459737
0.228021
-0.0460181
0.228032
-0.0460122
0.228043
-0.0459567
0.22806
-0.0458505
0.228086
-0.0456897
0.228126
-0.0454653
0.228185
-0.0451596
0.228269
-0.0447418
0.228383
-0.0441751
0.228523
-0.0434226
0.228708
-0.0422588
0.22911
-0.0394654
0.230193
-0.0320427
0.231752
-0.0200994
-0.0986906
-0.0599176
-0.0662564
-0.0686746
-0.0703155
-0.0728794
-0.0756931
-0.0784717
-0.0812576
-0.0840281
-0.0867492
-0.0894075
-0.0919982
-0.0945157
-0.0969578
-0.0993234
-0.101613
-0.103826
-0.105965
-0.108031
-0.110026
-0.111952
-0.11381
-0.115603
-0.117333
-0.119001
-0.12061
-0.122162
-0.123659
-0.125102
-0.126494
-0.127836
-0.12913
-0.130379
-0.131584
-0.132746
-0.133869
-0.134953
-0.136001
-0.137016
-0.137998
-0.138952
-0.139879
-0.140783
-0.141668
-0.142536
-0.143391
-0.144239
-0.145084
-0.145931
-0.146786
-0.147655
-0.148546
-0.149465
-0.150421
-0.151424
-0.152481
-0.153605
-0.154805
-0.156094
-0.157483
-0.15899
-0.160623
-0.162118
-0.16337
-0.164659
-0.16599
-0.167365
-0.168784
-0.170246
-0.171753
-0.173305
-0.174901
-0.176548
-0.178239
-0.179994
-0.18179
-0.183672
-0.185577
-0.187613
-0.189623
-0.191869
-0.193983
-0.196589
-0.198848
-0.202145
-0.205046
-0.209689
-0.0986956
-0.0599176
-0.0662562
-0.0686745
-0.0703154
-0.0728793
-0.0756931
-0.0784717
-0.0812576
-0.0840281
-0.0867492
-0.0894075
-0.0919982
-0.0945156
-0.0969578
-0.0993233
-0.101613
-0.103826
-0.105965
-0.108031
-0.110026
-0.111952
-0.11381
-0.115603
-0.117333
-0.119001
-0.12061
-0.122162
-0.123659
-0.125102
-0.126494
-0.127836
-0.12913
-0.130379
-0.131584
-0.132746
-0.133869
-0.134953
-0.136001
-0.137016
-0.137998
-0.138952
-0.139879
-0.140783
-0.141668
-0.142536
-0.143391
-0.144239
-0.145084
-0.145931
-0.146786
-0.147655
-0.148546
-0.149465
-0.150421
-0.151424
-0.152481
-0.153605
-0.154805
-0.156094
-0.157483
-0.15899
-0.160623
-0.162118
-0.16337
-0.164659
-0.16599
-0.167365
-0.168784
-0.170246
-0.171753
-0.173305
-0.174901
-0.176548
-0.17824
-0.179994
-0.18179
-0.183672
-0.185577
-0.187614
-0.189624
-0.19187
-0.193984
-0.19659
-0.19885
-0.202146
-0.205048
-0.20967
-0.0987122
-0.0599181
-0.0662559
-0.0686742
-0.0703152
-0.0728792
-0.0756929
-0.0784716
-0.0812575
-0.084028
-0.0867492
-0.0894075
-0.0919982
-0.0945156
-0.0969578
-0.0993233
-0.101613
-0.103826
-0.105965
-0.108031
-0.110026
-0.111952
-0.11381
-0.115603
-0.117333
-0.119001
-0.12061
-0.122162
-0.123659
-0.125102
-0.126494
-0.127836
-0.12913
-0.130379
-0.131584
-0.132746
-0.133869
-0.134953
-0.136001
-0.137015
-0.137998
-0.138952
-0.139879
-0.140783
-0.141668
-0.142536
-0.143391
-0.144239
-0.145084
-0.145931
-0.146786
-0.147655
-0.148546
-0.149465
-0.150421
-0.151424
-0.152481
-0.153605
-0.154805
-0.156094
-0.157483
-0.15899
-0.160623
-0.162118
-0.16337
-0.164659
-0.165991
-0.167365
-0.168784
-0.170247
-0.171753
-0.173306
-0.174902
-0.176549
-0.17824
-0.179995
-0.181791
-0.183673
-0.185578
-0.187615
-0.189625
-0.191872
-0.193986
-0.196593
-0.198852
-0.202151
-0.205044
-0.209593
-0.0987412
-0.0599189
-0.0662553
-0.0686736
-0.0703147
-0.0728788
-0.0756927
-0.0784714
-0.0812573
-0.0840279
-0.086749
-0.0894074
-0.0919981
-0.0945155
-0.0969577
-0.0993233
-0.101613
-0.103826
-0.105965
-0.108031
-0.110026
-0.111952
-0.11381
-0.115603
-0.117333
-0.119001
-0.12061
-0.122162
-0.123659
-0.125102
-0.126494
-0.127836
-0.12913
-0.130379
-0.131584
-0.132746
-0.133869
-0.134953
-0.136001
-0.137015
-0.137998
-0.138952
-0.139879
-0.140783
-0.141668
-0.142536
-0.143391
-0.144239
-0.145084
-0.145931
-0.146786
-0.147655
-0.148546
-0.149465
-0.150421
-0.151424
-0.152481
-0.153605
-0.154805
-0.156095
-0.157483
-0.158991
-0.160623
-0.162119
-0.163371
-0.16466
-0.165991
-0.167366
-0.168785
-0.170248
-0.171754
-0.173307
-0.174903
-0.17655
-0.178242
-0.179996
-0.181793
-0.183675
-0.18558
-0.187618
-0.189627
-0.191875
-0.193989
-0.196598
-0.198856
-0.202161
-0.205028
-0.209543
-0.0987895
-0.0599209
-0.0662549
-0.0686728
-0.070314
-0.0728783
-0.0756922
-0.078471
-0.081257
-0.0840276
-0.0867488
-0.0894072
-0.0919979
-0.0945154
-0.0969576
-0.0993232
-0.101612
-0.103826
-0.105965
-0.108031
-0.110026
-0.111952
-0.11381
-0.115603
-0.117333
-0.119001
-0.12061
-0.122162
-0.123659
-0.125102
-0.126494
-0.127836
-0.12913
-0.130379
-0.131584
-0.132746
-0.133869
-0.134953
-0.136001
-0.137015
-0.137998
-0.138952
-0.139879
-0.140783
-0.141668
-0.142536
-0.143391
-0.144239
-0.145084
-0.145931
-0.146786
-0.147655
-0.148546
-0.149465
-0.150421
-0.151424
-0.152482
-0.153606
-0.154805
-0.156095
-0.157484
-0.158991
-0.160624
-0.162119
-0.163371
-0.16466
-0.165992
-0.167367
-0.168786
-0.170249
-0.171756
-0.173308
-0.174904
-0.176552
-0.178244
-0.179999
-0.181795
-0.183678
-0.185583
-0.187621
-0.189631
-0.19188
-0.193993
-0.196604
-0.198861
-0.202171
-0.204996
-0.209514
-0.0988645
-0.0599255
-0.0662552
-0.0686721
-0.0703132
-0.0728776
-0.0756917
-0.0784705
-0.0812566
-0.0840273
-0.0867486
-0.089407
-0.0919977
-0.0945152
-0.0969575
-0.099323
-0.101612
-0.103826
-0.105965
-0.108031
-0.110026
-0.111952
-0.11381
-0.115603
-0.117333
-0.119001
-0.12061
-0.122162
-0.123659
-0.125102
-0.126494
-0.127836
-0.12913
-0.130379
-0.131584
-0.132746
-0.133869
-0.134953
-0.136001
-0.137015
-0.137998
-0.138952
-0.139879
-0.140783
-0.141668
-0.142536
-0.143391
-0.144239
-0.145084
-0.145931
-0.146786
-0.147655
-0.148546
-0.149465
-0.150422
-0.151424
-0.152482
-0.153606
-0.154806
-0.156095
-0.157484
-0.158992
-0.160625
-0.16212
-0.163372
-0.164662
-0.165993
-0.167368
-0.168787
-0.17025
-0.171757
-0.17331
-0.174906
-0.176554
-0.178246
-0.180001
-0.181798
-0.183681
-0.185587
-0.187625
-0.189635
-0.191885
-0.193997
-0.196611
-0.198864
-0.202179
-0.204944
-0.20948
-0.0989715
-0.0599339
-0.0662569
-0.0686718
-0.0703124
-0.0728768
-0.075691
-0.07847
-0.0812561
-0.0840269
-0.0867482
-0.0894066
-0.0919975
-0.094515
-0.0969573
-0.0993229
-0.101612
-0.103826
-0.105965
-0.108031
-0.110026
-0.111952
-0.11381
-0.115603
-0.117333
-0.119001
-0.12061
-0.122162
-0.123659
-0.125102
-0.126494
-0.127836
-0.12913
-0.130379
-0.131584
-0.132746
-0.133869
-0.134953
-0.136001
-0.137015
-0.137998
-0.138952
-0.139879
-0.140783
-0.141668
-0.142536
-0.143391
-0.144239
-0.145084
-0.145931
-0.146786
-0.147655
-0.148546
-0.149465
-0.150422
-0.151424
-0.152482
-0.153606
-0.154806
-0.156096
-0.157485
-0.158992
-0.160626
-0.162121
-0.163373
-0.164663
-0.165995
-0.16737
-0.168789
-0.170252
-0.171759
-0.173312
-0.174909
-0.176557
-0.178249
-0.180005
-0.181802
-0.183685
-0.18559
-0.18763
-0.189639
-0.191891
-0.194001
-0.196617
-0.198864
-0.202182
-0.204865
-0.209418
-0.099115
-0.0599479
-0.0662608
-0.0686721
-0.0703118
-0.072876
-0.0756902
-0.0784693
-0.0812555
-0.0840264
-0.0867478
-0.0894063
-0.0919971
-0.0945147
-0.096957
-0.0993226
-0.101612
-0.103826
-0.105965
-0.108031
-0.110026
-0.111952
-0.11381
-0.115603
-0.117333
-0.119001
-0.12061
-0.122162
-0.123659
-0.125102
-0.126493
-0.127836
-0.12913
-0.130379
-0.131584
-0.132746
-0.133869
-0.134953
-0.136001
-0.137015
-0.137998
-0.138952
-0.139879
-0.140783
-0.141668
-0.142536
-0.143391
-0.144239
-0.145084
-0.145931
-0.146786
-0.147656
-0.148546
-0.149466
-0.150422
-0.151425
-0.152483
-0.153607
-0.154807
-0.156097
-0.157486
-0.158993
-0.160627
-0.162123
-0.163375
-0.164664
-0.165996
-0.167372
-0.168791
-0.170255
-0.171762
-0.173315
-0.174912
-0.17656
-0.178252
-0.180008
-0.181805
-0.183689
-0.185594
-0.187634
-0.189643
-0.191895
-0.194003
-0.196621
-0.198858
-0.202177
-0.204755
-0.209313
-0.0993003
-0.0599692
-0.0662678
-0.0686738
-0.0703116
-0.0728753
-0.0756894
-0.0784685
-0.0812548
-0.0840257
-0.0867472
-0.0894058
-0.0919967
-0.0945144
-0.0969567
-0.0993224
-0.101612
-0.103825
-0.105965
-0.108031
-0.110026
-0.111952
-0.11381
-0.115603
-0.117333
-0.119001
-0.12061
-0.122162
-0.123658
-0.125102
-0.126493
-0.127836
-0.12913
-0.130379
-0.131583
-0.132746
-0.133869
-0.134953
-0.136001
-0.137015
-0.137998
-0.138952
-0.139879
-0.140783
-0.141668
-0.142536
-0.143391
-0.144239
-0.145084
-0.145931
-0.146786
-0.147656
-0.148546
-0.149466
-0.150422
-0.151425
-0.152483
-0.153607
-0.154807
-0.156097
-0.157487
-0.158994
-0.160628
-0.162124
-0.163376
-0.164666
-0.165998
-0.167374
-0.168793
-0.170257
-0.171765
-0.173318
-0.174915
-0.176563
-0.178256
-0.180012
-0.181809
-0.183693
-0.185598
-0.187638
-0.189645
-0.191898
-0.194003
-0.19662
-0.198844
-0.202159
-0.204608
-0.209148
-0.0995334
-0.0599996
-0.0662794
-0.0686776
-0.0703124
-0.072875
-0.0756887
-0.0784677
-0.081254
-0.084025
-0.0867466
-0.0894052
-0.0919962
-0.0945139
-0.0969563
-0.099322
-0.101611
-0.103825
-0.105964
-0.108031
-0.110026
-0.111951
-0.11381
-0.115603
-0.117332
-0.119001
-0.12061
-0.122162
-0.123658
-0.125102
-0.126493
-0.127836
-0.12913
-0.130379
-0.131583
-0.132746
-0.133868
-0.134953
-0.136001
-0.137015
-0.137998
-0.138952
-0.139879
-0.140783
-0.141668
-0.142536
-0.143391
-0.144239
-0.145084
-0.145931
-0.146786
-0.147656
-0.148547
-0.149466
-0.150423
-0.151426
-0.152483
-0.153608
-0.154808
-0.156098
-0.157488
-0.158996
-0.160629
-0.162126
-0.163378
-0.164668
-0.166
-0.167376
-0.168796
-0.17026
-0.171767
-0.173321
-0.174918
-0.176566
-0.178259
-0.180015
-0.181812
-0.183696
-0.1856
-0.18764
-0.189646
-0.191898
-0.193998
-0.196612
-0.198816
-0.202121
-0.20442
-0.208902
-0.0998201
-0.0600411
-0.0662968
-0.0686845
-0.0703146
-0.0728755
-0.0756883
-0.078467
-0.0812533
-0.0840242
-0.0867458
-0.0894045
-0.0919956
-0.0945133
-0.0969558
-0.0993215
-0.101611
-0.103825
-0.105964
-0.10803
-0.110025
-0.111951
-0.113809
-0.115602
-0.117332
-0.119001
-0.12061
-0.122162
-0.123658
-0.125101
-0.126493
-0.127835
-0.12913
-0.130379
-0.131583
-0.132746
-0.133868
-0.134953
-0.136001
-0.137015
-0.137998
-0.138952
-0.139879
-0.140783
-0.141668
-0.142536
-0.143391
-0.144239
-0.145084
-0.145931
-0.146786
-0.147656
-0.148547
-0.149466
-0.150423
-0.151426
-0.152484
-0.153609
-0.154809
-0.156099
-0.157489
-0.158997
-0.160631
-0.162127
-0.16338
-0.16467
-0.166002
-0.167378
-0.168798
-0.170262
-0.17177
-0.173323
-0.17492
-0.176569
-0.178261
-0.180017
-0.181814
-0.183698
-0.185601
-0.187639
-0.189642
-0.191892
-0.193984
-0.196592
-0.198769
-0.202051
-0.204185
-0.208556
-0.100165
-0.0600959
-0.0663215
-0.0686958
-0.0703193
-0.0728772
-0.0756887
-0.0784667
-0.0812526
-0.0840235
-0.0867451
-0.0894038
-0.0919949
-0.0945127
-0.0969552
-0.099321
-0.101611
-0.103824
-0.105964
-0.10803
-0.110025
-0.111951
-0.113809
-0.115602
-0.117332
-0.119
-0.12061
-0.122161
-0.123658
-0.125101
-0.126493
-0.127835
-0.12913
-0.130379
-0.131583
-0.132746
-0.133868
-0.134953
-0.136001
-0.137015
-0.137998
-0.138952
-0.139879
-0.140783
-0.141668
-0.142536
-0.143391
-0.144239
-0.145084
-0.145931
-0.146787
-0.147656
-0.148547
-0.149467
-0.150423
-0.151426
-0.152484
-0.153609
-0.15481
-0.1561
-0.15749
-0.158998
-0.160632
-0.162129
-0.163381
-0.164672
-0.166004
-0.16738
-0.1688
-0.170264
-0.171771
-0.173325
-0.174922
-0.17657
-0.178262
-0.180018
-0.181813
-0.183696
-0.185597
-0.187633
-0.189631
-0.191876
-0.193959
-0.196553
-0.198695
-0.201934
-0.203899
-0.20809
-0.100572
-0.0601666
-0.0663547
-0.0687127
-0.0703274
-0.0728811
-0.0756903
-0.0784671
-0.0812524
-0.084023
-0.0867444
-0.0894031
-0.0919942
-0.094512
-0.0969545
-0.0993204
-0.10161
-0.103824
-0.105963
-0.108029
-0.110025
-0.11195
-0.113809
-0.115602
-0.117332
-0.119
-0.120609
-0.122161
-0.123658
-0.125101
-0.126493
-0.127835
-0.12913
-0.130378
-0.131583
-0.132746
-0.133868
-0.134953
-0.136001
-0.137015
-0.137998
-0.138952
-0.139879
-0.140783
-0.141668
-0.142536
-0.143391
-0.144239
-0.145084
-0.145931
-0.146787
-0.147656
-0.148547
-0.149467
-0.150424
-0.151427
-0.152485
-0.15361
-0.15481
-0.156101
-0.15749
-0.158999
-0.160633
-0.16213
-0.163382
-0.164673
-0.166005
-0.167381
-0.168801
-0.170264
-0.171772
-0.173325
-0.174921
-0.176569
-0.17826
-0.180014
-0.181808
-0.183688
-0.185586
-0.187617
-0.18961
-0.191845
-0.193914
-0.196485
-0.198584
-0.201751
-0.203555
-0.207491
-0.101039
-0.0602562
-0.0663976
-0.0687364
-0.0703401
-0.0728881
-0.075694
-0.0784688
-0.0812531
-0.084023
-0.0867441
-0.0894025
-0.0919936
-0.0945113
-0.0969539
-0.0993197
-0.101609
-0.103823
-0.105963
-0.108029
-0.110024
-0.11195
-0.113808
-0.115602
-0.117331
-0.119
-0.120609
-0.122161
-0.123658
-0.125101
-0.126493
-0.127835
-0.129129
-0.130378
-0.131583
-0.132746
-0.133868
-0.134952
-0.136001
-0.137015
-0.137998
-0.138951
-0.139879
-0.140783
-0.141668
-0.142536
-0.143391
-0.144239
-0.145084
-0.145931
-0.146787
-0.147656
-0.148547
-0.149467
-0.150424
-0.151427
-0.152485
-0.15361
-0.15481
-0.156101
-0.157491
-0.158999
-0.160633
-0.16213
-0.163382
-0.164673
-0.166005
-0.16738
-0.168799
-0.170263
-0.17177
-0.173322
-0.174917
-0.176564
-0.178253
-0.180005
-0.181796
-0.183672
-0.185564
-0.187588
-0.189572
-0.191791
-0.193842
-0.196375
-0.198425
-0.20148
-0.203142
-0.206754
-0.101561
-0.0603684
-0.0664511
-0.0687682
-0.0703584
-0.0728991
-0.0757006
-0.0784726
-0.0812551
-0.084024
-0.0867444
-0.0894025
-0.0919932
-0.0945109
-0.0969533
-0.0993191
-0.101609
-0.103823
-0.105962
-0.108028
-0.110024
-0.111949
-0.113808
-0.115601
-0.117331
-0.118999
-0.120609
-0.122161
-0.123657
-0.125101
-0.126492
-0.127835
-0.129129
-0.130378
-0.131583
-0.132745
-0.133868
-0.134952
-0.136
-0.137015
-0.137998
-0.138951
-0.139879
-0.140783
-0.141667
-0.142536
-0.143391
-0.144239
-0.145084
-0.145931
-0.146786
-0.147656
-0.148547
-0.149467
-0.150424
-0.151427
-0.152485
-0.15361
-0.15481
-0.156101
-0.15749
-0.158998
-0.160632
-0.162128
-0.163381
-0.16467
-0.166002
-0.167377
-0.168795
-0.170258
-0.171763
-0.173314
-0.174907
-0.176551
-0.178238
-0.179986
-0.181772
-0.183642
-0.185527
-0.187537
-0.189508
-0.191703
-0.19373
-0.196204
-0.1982
-0.201097
-0.202644
-0.205882
-0.102122
-0.0605078
-0.066516
-0.068809
-0.0703834
-0.0729153
-0.0757111
-0.0784793
-0.0812594
-0.0840266
-0.0867459
-0.0894032
-0.0919935
-0.0945109
-0.0969531
-0.0993188
-0.101608
-0.103822
-0.105961
-0.108028
-0.110023
-0.111949
-0.113807
-0.115601
-0.11733
-0.118999
-0.120608
-0.12216
-0.123657
-0.1251
-0.126492
-0.127834
-0.129129
-0.130378
-0.131582
-0.132745
-0.133868
-0.134952
-0.136
-0.137015
-0.137997
-0.138951
-0.139879
-0.140783
-0.141667
-0.142535
-0.143391
-0.144239
-0.145084
-0.145931
-0.146786
-0.147656
-0.148547
-0.149466
-0.150423
-0.151426
-0.152484
-0.153608
-0.154809
-0.156099
-0.157488
-0.158996
-0.160629
-0.162124
-0.163376
-0.164665
-0.165995
-0.167369
-0.168786
-0.170246
-0.17175
-0.173298
-0.174888
-0.176528
-0.17821
-0.179953
-0.181732
-0.18359
-0.185464
-0.187455
-0.189408
-0.191565
-0.193562
-0.195952
-0.197887
-0.200582
-0.202036
-0.204881
-0.102696
-0.0606795
-0.0665931
-0.0688595
-0.0704157
-0.0729375
-0.0757265
-0.07849
-0.0812667
-0.0840316
-0.0867493
-0.0894055
-0.091995
-0.0945117
-0.0969535
-0.0993189
-0.101608
-0.103822
-0.105961
-0.108027
-0.110023
-0.111949
-0.113807
-0.1156
-0.11733
-0.118999
-0.120608
-0.12216
-0.123657
-0.1251
-0.126492
-0.127834
-0.129129
-0.130377
-0.131582
-0.132745
-0.133867
-0.134952
-0.136
-0.137014
-0.137997
-0.138951
-0.139878
-0.140783
-0.141667
-0.142535
-0.143391
-0.144239
-0.145083
-0.14593
-0.146786
-0.147655
-0.148546
-0.149465
-0.150422
-0.151424
-0.152482
-0.153606
-0.154806
-0.156095
-0.157484
-0.158991
-0.160623
-0.162117
-0.163367
-0.164654
-0.165983
-0.167354
-0.168768
-0.170226
-0.171725
-0.17327
-0.174855
-0.176489
-0.178164
-0.179897
-0.181665
-0.183507
-0.185364
-0.187327
-0.189255
-0.191358
-0.193315
-0.195592
-0.197457
-0.199917
-0.201288
-0.203758
-0.103246
-0.0608888
-0.0666831
-0.0689203
-0.0704558
-0.0729661
-0.0757475
-0.0785053
-0.0812779
-0.0840398
-0.0867553
-0.0894099
-0.0919982
-0.094514
-0.0969552
-0.0993201
-0.101609
-0.103822
-0.105961
-0.108028
-0.110023
-0.111948
-0.113807
-0.1156
-0.11733
-0.118998
-0.120608
-0.12216
-0.123656
-0.1251
-0.126491
-0.127834
-0.129128
-0.130377
-0.131582
-0.132745
-0.133867
-0.134951
-0.136
-0.137014
-0.137997
-0.138951
-0.139878
-0.140782
-0.141667
-0.142535
-0.14339
-0.144238
-0.145083
-0.14593
-0.146784
-0.147654
-0.148544
-0.149463
-0.150419
-0.151421
-0.152478
-0.153602
-0.154801
-0.156089
-0.157476
-0.158981
-0.160611
-0.162102
-0.16335
-0.164635
-0.165961
-0.167329
-0.168739
-0.170192
-0.171685
-0.173223
-0.174801
-0.176426
-0.178089
-0.179808
-0.18156
-0.183378
-0.185211
-0.187134
-0.189026
-0.191056
-0.192958
-0.195097
-0.196878
-0.199085
-0.200372
-0.202511
-0.103721
-0.0611393
-0.0667867
-0.0689919
-0.0705037
-0.0730014
-0.0757744
-0.0785258
-0.0812937
-0.0840521
-0.0867648
-0.0894172
-0.0920039
-0.0945184
-0.0969586
-0.0993227
-0.101611
-0.103824
-0.105963
-0.108028
-0.110023
-0.111949
-0.113807
-0.1156
-0.11733
-0.118998
-0.120608
-0.12216
-0.123656
-0.125099
-0.126491
-0.127834
-0.129128
-0.130377
-0.131582
-0.132744
-0.133867
-0.134951
-0.135999
-0.137014
-0.137997
-0.13895
-0.139878
-0.140782
-0.141666
-0.142534
-0.143389
-0.144237
-0.145081
-0.145928
-0.146783
-0.147651
-0.148541
-0.14946
-0.150415
-0.151416
-0.152472
-0.153594
-0.154792
-0.156078
-0.157463
-0.158965
-0.160591
-0.162079
-0.163323
-0.164604
-0.165925
-0.167287
-0.168691
-0.170136
-0.171621
-0.173149
-0.174715
-0.176326
-0.177973
-0.17967
-0.181398
-0.183183
-0.184982
-0.186849
-0.188691
-0.190628
-0.192455
-0.194435
-0.196111
-0.198067
-0.199258
-0.201124
-0.104065
-0.0614318
-0.0669039
-0.0690748
-0.0705592
-0.073043
-0.0758071
-0.0785517
-0.0813143
-0.0840687
-0.0867783
-0.0894282
-0.0920127
-0.0945257
-0.0969645
-0.0993276
-0.101615
-0.103827
-0.105965
-0.108031
-0.110025
-0.11195
-0.113808
-0.115601
-0.117331
-0.118999
-0.120608
-0.12216
-0.123657
-0.1251
-0.126492
-0.127834
-0.129128
-0.130377
-0.131582
-0.132744
-0.133867
-0.134951
-0.135999
-0.137014
-0.137996
-0.13895
-0.139877
-0.140781
-0.141666
-0.142533
-0.143388
-0.144236
-0.14508
-0.145926
-0.14678
-0.147648
-0.148537
-0.149455
-0.150409
-0.151409
-0.152463
-0.153583
-0.154777
-0.156061
-0.157441
-0.158939
-0.16056
-0.162041
-0.16328
-0.164555
-0.165867
-0.167222
-0.168615
-0.170049
-0.171522
-0.173034
-0.174583
-0.176173
-0.177796
-0.179463
-0.181157
-0.182895
-0.184644
-0.18644
-0.188211
-0.190035
-0.191764
-0.193569
-0.195119
-0.196837
-0.197923
-0.199565
-0.104217
-0.0617636
-0.0670337
-0.0691697
-0.070622
-0.0730904
-0.0758452
-0.0785825
-0.0813396
-0.0840897
-0.0867959
-0.089443
-0.0920252
-0.0945362
-0.0969734
-0.0993351
-0.101621
-0.103833
-0.10597
-0.108035
-0.110029
-0.111953
-0.113811
-0.115603
-0.117333
-0.119001
-0.12061
-0.122161
-0.123658
-0.125101
-0.126493
-0.127835
-0.129129
-0.130378
-0.131582
-0.132745
-0.133867
-0.134952
-0.136
-0.137014
-0.137997
-0.13895
-0.139877
-0.140781
-0.141665
-0.142532
-0.143387
-0.144234
-0.145077
-0.145923
-0.146776
-0.147643
-0.148531
-0.149447
-0.150399
-0.151396
-0.152448
-0.153564
-0.154755
-0.156033
-0.157408
-0.158898
-0.16051
-0.161983
-0.163213
-0.164478
-0.165779
-0.167121
-0.1685
-0.169917
-0.171371
-0.172861
-0.174384
-0.175943
-0.177533
-0.179156
-0.180801
-0.182477
-0.184158
-0.185862
-0.187539
-0.189232
-0.190836
-0.192459
-0.193865
-0.195364
-0.196339
-0.197792
-0.10412
-0.0621281
-0.067173
-0.0692776
-0.0706917
-0.0731427
-0.0758878
-0.0786176
-0.0813689
-0.0841147
-0.0868173
-0.0894614
-0.0920412
-0.0945502
-0.0969856
-0.0993458
-0.101631
-0.103841
-0.105977
-0.108041
-0.110034
-0.111958
-0.113816
-0.115608
-0.117336
-0.119004
-0.120613
-0.122164
-0.12366
-0.125103
-0.126495
-0.127837
-0.129131
-0.130379
-0.131584
-0.132746
-0.133869
-0.134953
-0.136001
-0.137015
-0.137997
-0.13895
-0.139877
-0.140781
-0.141664
-0.142531
-0.143385
-0.144231
-0.145074
-0.145918
-0.14677
-0.147635
-0.148521
-0.149435
-0.150384
-0.151378
-0.152425
-0.153536
-0.15472
-0.155991
-0.157357
-0.158836
-0.160435
-0.161893
-0.163111
-0.164361
-0.165646
-0.166968
-0.168326
-0.169719
-0.171144
-0.172602
-0.174089
-0.175606
-0.177146
-0.17871
-0.180288
-0.181882
-0.183472
-0.185064
-0.186622
-0.188164
-0.189621
-0.191059
-0.192309
-0.193607
-0.19447
-0.195752
-0.103737
-0.0625141
-0.0673156
-0.0693995
-0.0707683
-0.0731994
-0.0759341
-0.0786559
-0.0814012
-0.0841426
-0.0868417
-0.0894829
-0.0920602
-0.0945671
-0.0970007
-0.0993593
-0.101643
-0.103852
-0.105987
-0.10805
-0.110042
-0.111966
-0.113822
-0.115614
-0.117342
-0.119009
-0.120617
-0.122168
-0.123664
-0.125107
-0.126498
-0.12784
-0.129134
-0.130382
-0.131587
-0.132749
-0.133871
-0.134955
-0.136003
-0.137016
-0.137999
-0.138952
-0.139878
-0.140781
-0.141664
-0.14253
-0.143383
-0.144228
-0.145069
-0.145912
-0.146761
-0.147624
-0.148507
-0.149416
-0.150361
-0.15135
-0.15239
-0.153494
-0.154669
-0.155928
-0.157281
-0.158743
-0.160322
-0.161759
-0.162957
-0.164187
-0.165447
-0.166742
-0.168068
-0.169426
-0.170811
-0.172224
-0.173659
-0.175116
-0.176588
-0.178073
-0.179562
-0.181051
-0.182525
-0.183982
-0.185396
-0.186773
-0.188066
-0.189316
-0.190407
-0.191515
-0.192269
-0.193387
-0.10306
-0.0629003
-0.0674517
-0.0695366
-0.0708517
-0.0732597
-0.0759835
-0.0786965
-0.0814355
-0.0841724
-0.086868
-0.0895063
-0.0920812
-0.0945861
-0.097018
-0.099375
-0.101657
-0.103865
-0.105999
-0.108061
-0.110053
-0.111975
-0.113831
-0.115622
-0.11735
-0.119016
-0.120624
-0.122175
-0.12367
-0.125112
-0.126503
-0.127845
-0.129139
-0.130387
-0.131591
-0.132753
-0.133875
-0.134958
-0.136006
-0.137019
-0.138001
-0.138953
-0.139879
-0.140782
-0.141663
-0.142528
-0.14338
-0.144223
-0.145062
-0.145902
-0.146748
-0.147607
-0.148485
-0.149389
-0.150327
-0.151308
-0.152338
-0.15343
-0.154591
-0.155834
-0.157166
-0.158603
-0.160153
-0.161559
-0.16273
-0.163928
-0.165153
-0.166408
-0.167691
-0.168998
-0.170328
-0.171676
-0.173041
-0.174416
-0.175797
-0.177179
-0.178553
-0.179912
-0.181246
-0.182546
-0.183795
-0.184995
-0.186112
-0.187175
-0.188104
-0.189033
-0.189676
-0.190633
-0.102103
-0.0632491
-0.0675675
-0.0696901
-0.070942
-0.0733233
-0.0760355
-0.0787389
-0.0814708
-0.0842029
-0.0868949
-0.0895303
-0.0921029
-0.0946058
-0.0970361
-0.0993918
-0.101673
-0.103879
-0.106013
-0.108074
-0.110065
-0.111987
-0.113842
-0.115632
-0.117359
-0.119025
-0.120633
-0.122183
-0.123678
-0.12512
-0.12651
-0.127851
-0.129145
-0.130393
-0.131596
-0.132758
-0.13388
-0.134963
-0.13601
-0.137023
-0.138004
-0.138956
-0.139881
-0.140782
-0.141663
-0.142526
-0.143376
-0.144216
-0.145052
-0.145888
-0.146729
-0.147582
-0.148453
-0.149349
-0.150277
-0.151245
-0.152262
-0.153336
-0.154476
-0.155694
-0.156996
-0.158397
-0.159903
-0.161266
-0.162396
-0.163549
-0.164725
-0.165924
-0.167144
-0.168382
-0.169635
-0.170897
-0.172166
-0.173435
-0.174698
-0.17595
-0.177181
-0.178386
-0.179554
-0.180678
-0.181747
-0.182759
-0.183694
-0.184572
-0.185338
-0.186095
-0.186623
-0.187417
-0.100881
-0.0635271
-0.0676349
-0.0698593
-0.0710393
-0.0733897
-0.0760899
-0.0787826
-0.0815066
-0.0842335
-0.0869216
-0.089554
-0.0921242
-0.0946252
-0.0970539
-0.0994083
-0.101688
-0.103894
-0.106026
-0.108087
-0.110077
-0.111998
-0.113853
-0.115642
-0.117369
-0.119035
-0.120642
-0.122192
-0.123686
-0.125128
-0.126518
-0.127859
-0.129152
-0.1304
-0.131603
-0.132764
-0.133886
-0.134968
-0.136015
-0.137027
-0.138008
-0.138958
-0.139882
-0.140782
-0.14166
-0.142521
-0.143368
-0.144205
-0.145036
-0.145866
-0.1467
-0.147545
-0.148406
-0.149289
-0.150202
-0.151152
-0.152148
-0.153197
-0.154307
-0.155488
-0.156747
-0.158096
-0.159539
-0.160839
-0.161912
-0.163002
-0.164108
-0.16523
-0.166365
-0.167509
-0.168658
-0.169807
-0.170951
-0.172084
-0.173201
-0.174294
-0.175357
-0.176384
-0.177366
-0.178299
-0.179175
-0.179993
-0.180743
-0.181436
-0.182039
-0.182626
-0.183035
-0.183664
-0.0994407
-0.063745
-0.0676023
-0.0700331
-0.0711411
-0.0734571
-0.0761462
-0.0788274
-0.0815424
-0.0842637
-0.0869476
-0.0895767
-0.0921443
-0.0946433
-0.0970704
-0.0994235
-0.101702
-0.103907
-0.106039
-0.108098
-0.110088
-0.112009
-0.113863
-0.115652
-0.117378
-0.119044
-0.120651
-0.1222
-0.123695
-0.125136
-0.126526
-0.127866
-0.129159
-0.130407
-0.13161
-0.132771
-0.133892
-0.134974
-0.13602
-0.137031
-0.138011
-0.13896
-0.139882
-0.14078
-0.141655
-0.142513
-0.143355
-0.144186
-0.14501
-0.145832
-0.146657
-0.147489
-0.148334
-0.1492
-0.150091
-0.151016
-0.15198
-0.152992
-0.154058
-0.155187
-0.156384
-0.157659
-0.159014
-0.160225
-0.161218
-0.162222
-0.163233
-0.164251
-0.165272
-0.166292
-0.167307
-0.168311
-0.1693
-0.170267
-0.171208
-0.172116
-0.172987
-0.173815
-0.174596
-0.175327
-0.176002
-0.176624
-0.177185
-0.177696
-0.178134
-0.178555
-0.178838
-0.179301
-0.0979486
-0.0639459
-0.0674408
-0.0701768
-0.0712344
-0.0735183
-0.0762012
-0.0788717
-0.0815775
-0.084293
-0.0869724
-0.0895979
-0.0921629
-0.0946597
-0.0970851
-0.0994368
-0.101715
-0.103918
-0.106049
-0.108108
-0.110097
-0.112018
-0.113871
-0.11566
-0.117386
-0.119052
-0.120658
-0.122207
-0.123702
-0.125143
-0.126532
-0.127873
-0.129166
-0.130413
-0.131615
-0.132776
-0.133896
-0.134978
-0.136023
-0.137034
-0.138012
-0.138959
-0.139879
-0.140773
-0.141645
-0.142497
-0.143333
-0.144157
-0.144971
-0.145781
-0.14659
-0.147404
-0.148228
-0.149068
-0.149928
-0.150815
-0.151735
-0.152694
-0.153698
-0.154753
-0.155863
-0.157034
-0.158267
-0.159356
-0.160242
-0.161129
-0.162014
-0.162896
-0.16377
-0.164634
-0.165481
-0.166307
-0.167109
-0.167881
-0.16862
-0.16932
-0.169979
-0.170594
-0.171163
-0.171683
-0.172154
-0.172576
-0.172948
-0.173277
-0.17355
-0.173806
-0.173958
-0.17425
-0.0965705
-0.0642066
-0.0672275
-0.070268
-0.0712917
-0.0735546
-0.0762437
-0.0789079
-0.0816066
-0.0843176
-0.0869934
-0.0896158
-0.0921783
-0.0946732
-0.097097
-0.0994474
-0.101724
-0.103927
-0.106057
-0.108116
-0.110104
-0.112024
-0.113877
-0.115666
-0.117392
-0.119057
-0.120663
-0.122212
-0.123706
-0.125147
-0.126537
-0.127877
-0.12917
-0.130416
-0.131619
-0.132779
-0.133899
-0.13498
-0.136024
-0.137033
-0.138009
-0.138954
-0.13987
-0.14076
-0.141626
-0.142471
-0.143298
-0.14411
-0.144911
-0.145703
-0.146492
-0.14728
-0.148073
-0.148876
-0.149692
-0.150526
-0.151384
-0.152269
-0.153185
-0.154137
-0.155127
-0.156156
-0.157225
-0.158153
-0.158898
-0.159634
-0.160358
-0.161068
-0.161761
-0.162432
-0.163079
-0.163698
-0.164285
-0.164837
-0.165352
-0.165828
-0.166262
-0.166655
-0.167005
-0.167312
-0.167578
-0.167803
-0.167988
-0.168138
-0.168247
-0.16834
-0.168361
-0.168479
-0.0952458
-0.0644334
-0.067101
-0.0703716
-0.0713321
-0.0735648
-0.0762609
-0.0789211
-0.0816169
-0.0843269
-0.0870016
-0.0896228
-0.0921842
-0.0946783
-0.0971013
-0.099451
-0.101727
-0.10393
-0.106059
-0.108118
-0.110106
-0.112025
-0.113879
-0.115667
-0.117393
-0.119058
-0.120664
-0.122213
-0.123707
-0.125148
-0.126538
-0.127878
-0.12917
-0.130416
-0.131619
-0.132778
-0.133897
-0.134977
-0.13602
-0.137027
-0.138
-0.138941
-0.139853
-0.140737
-0.141595
-0.14243
-0.143244
-0.144041
-0.144821
-0.14559
-0.146349
-0.147101
-0.147851
-0.148602
-0.149356
-0.150117
-0.150889
-0.151672
-0.15247
-0.153284
-0.154112
-0.154955
-0.155809
-0.156531
-0.157098
-0.157646
-0.158172
-0.158676
-0.159153
-0.159603
-0.160021
-0.160407
-0.160757
-0.161072
-0.161349
-0.16159
-0.161792
-0.161957
-0.162086
-0.162179
-0.162238
-0.162266
-0.162262
-0.162232
-0.162172
-0.162097
-0.161981
-0.161911
-0.0943141
-0.064465
-0.0670051
-0.0704285
-0.0713574
-0.0735734
-0.0762699
-0.078924
-0.0816155
-0.084323
-0.0869957
-0.0896154
-0.0921757
-0.094669
-0.0970915
-0.0994408
-0.101717
-0.103919
-0.106049
-0.108107
-0.110095
-0.112015
-0.113869
-0.115657
-0.117383
-0.119048
-0.120655
-0.122204
-0.123698
-0.125139
-0.126529
-0.127869
-0.129161
-0.130408
-0.13161
-0.132769
-0.133887
-0.134966
-0.136007
-0.137011
-0.137981
-0.138919
-0.139825
-0.140701
-0.14155
-0.142373
-0.143172
-0.143949
-0.144707
-0.145446
-0.146169
-0.146879
-0.147578
-0.148267
-0.148948
-0.149623
-0.150293
-0.150959
-0.15162
-0.152275
-0.152922
-0.153558
-0.154177
-0.154677
-0.155055
-0.155408
-0.155732
-0.156027
-0.156292
-0.156525
-0.156725
-0.156891
-0.157023
-0.157122
-0.157188
-0.15722
-0.157222
-0.157192
-0.157135
-0.15705
-0.15694
-0.156807
-0.156653
-0.15648
-0.15629
-0.156087
-0.155866
-0.155655
-0.0938742
-0.0644588
-0.0669593
-0.0704381
-0.0713543
-0.0735647
-0.0762606
-0.078912
-0.0816012
-0.0843076
-0.0869791
-0.0895982
-0.0921584
-0.0946516
-0.0970742
-0.0994238
-0.1017
-0.103903
-0.106033
-0.108092
-0.11008
-0.112001
-0.113854
-0.115643
-0.11737
-0.119035
-0.120642
-0.122191
-0.123686
-0.125127
-0.126517
-0.127857
-0.12915
-0.130396