/*--------------------------------*- C++ -*----------------------------------*\
| =========                 |                                                 |
| \\      /  F ield         | OpenFOAM: The Open Source CFD Toolbox           |
|  \\    /   O peration     | Version:  2306                                  |
|   \\  /    A nd           | Website:  www.openfoam.com                      |
|    \\/     M anipulation  |                                                 |
\*---------------------------------------------------------------------------*/
FoamFile
{
    version     2.0;
    format      ascii;
    arch        "LSB;label=32;scalar=64";
    class       volScalarField;
    location    "1800";
    object      epsilon;
}
// * * * * * * * * * * * * * * * * * * * * * * * * * * * * * * * * * * * * * //

dimensions      [0 2 -3 0 0 0 0];

internalField   nonuniform List<scalar> 
20540
(
45069
76612.6
45058.7
76605.8
45002.4
76574.6
44897.4
76517.8
44734.5
76430
44501.3
76304.4
44182.6
76132.6
43760
75905
43212
75610.4
42512.6
75235.6
41631.6
74765.3
40533.9
74181.2
39179.7
73461.6
37525.8
72581.2
35527.1
71504.6
33140.6
70182.9
30330.7
68548.8
27078.3
66509.4
23395.6
63945.3
19354.2
60684.9
15131.6
56472.2
11022.5
50975.8
7264.47
43989.4
4169.28
35465.9
2121.02
25731.6
1207.38
15576
754.694
6699.57
478.265
2064.68
357.371
720.273
306.891
382.147
285.072
295.901
278.196
270.132
278.323
269.756
285.347
294.674
307.067
375.726
355.717
673.78
469.932
1815.02
728.675
5858.6
1156.46
14116.2
2010.31
23916.2
3916.65
33550
6891.71
42187.7
10586.1
49414.1
14694.2
55198.7
18985.7
59698.1
23168
63223.8
27043.3
66029.9
30521.6
68287.5
33574.5
70116.7
36207.4
71605.5
38445.4
72826
40324.4
73831
41885
74660.5
43168.3
75342.6
44213.7
75899.5
45056.9
76350.5
45729.8
76711.5
46259.7
76996.6
46670.2
77217.8
46981.2
77385.4
47209.7
77508.5
47369.8
77594.7
47473.3
77650.6
47528.9
77681.4
47543.2
77690.3
6.37288e+06
2.44301e+06
1.93116e+06
1.66807e+06
1.51416e+06
1.41777e+06
1.35226e+06
1.30514e+06
1.27012e+06
1.24334e+06
1.22239e+06
1.20572e+06
1.19225e+06
1.18129e+06
1.17221e+06
1.16471e+06
1.1584e+06
1.15313e+06
1.14864e+06
1.14483e+06
1.14158e+06
1.13877e+06
1.13637e+06
1.13428e+06
1.13248e+06
1.1309e+06
1.12953e+06
1.12832e+06
1.12726e+06
1.12632e+06
1.1255e+06
1.12476e+06
1.12411e+06
1.12351e+06
1.12299e+06
1.12253e+06
1.12211e+06
1.12175e+06
1.12141e+06
1.12113e+06
1.1209e+06
1.12071e+06
1.12057e+06
1.12047e+06
1.12043e+06
1.12045e+06
1.12055e+06
1.12073e+06
1.121e+06
1.12137e+06
1.12187e+06
1.1225e+06
1.1233e+06
1.12428e+06
1.12546e+06
1.12687e+06
1.12853e+06
1.13051e+06
1.13279e+06
1.13547e+06
1.13854e+06
1.1421e+06
1.14617e+06
1.15012e+06
1.15352e+06
1.15717e+06
1.16098e+06
1.16511e+06
1.16941e+06
1.17402e+06
1.17883e+06
1.18396e+06
1.18931e+06
1.19502e+06
1.20103e+06
1.20743e+06
1.21435e+06
1.22151e+06
1.22971e+06
1.2376e+06
1.24794e+06
1.25607e+06
1.27138e+06
1.27688e+06
1.30417e+06
1.31097e+06
1.36348e+06
1.27687e+06
2.26331e+06
899476
705331
606624
548958
512893
488482
470976
457980
448060
440308
434147
429174
425128
421778
419013
416688
414745
413090
411687
410491
409459
408573
407806
407143
406562
406057
405611
405224
404878
404575
404302
404064
403845
403651
403482
403327
403192
403068
402962
402874
402801
402743
402702
402680
402677
402703
402751
402832
402946
403101
403298
403551
403861
404234
404684
405213
405843
406568
407421
408393
409527
410813
412059
413128
414280
415473
416766
418098
419532
421014
422592
424223
425968
427772
429709
431739
433879
436213
438545
441373
443736
447829
449143
456236
457505
468145
462719
1.13761e+06
521505
424907
371615
338524
317185
302477
291801
283813
277684
272876
269043
265942
263415
261320
259588
258131
256911
255872
254990
254238
253588
253030
252547
252130
251763
251445
251164
250919
250701
250509
250337
250186
250049
249926
249820
249721
249636
249558
249492
249436
249390
249353
249327
249313
249311
249327
249357
249408
249479
249577
249701
249859
250054
250288
250570
250901
251295
251749
252282
252890
253597
254399
255171
255832
256546
257284
258080
258901
259780
260690
261653
262649
263702
264796
265946
267167
268408
269803
271111
272793
274039
276417
277081
280739
280993
285775
282633
696069
333034
280947
251096
231263
217984
208626
201730
196518
192491
189317
186778
184717
183034
181636
180478
179503
178685
177988
177396
176890
176454
176078
175753
175471
175224
175010
174820
174654
174507
174378
174262
174160
174067
173984
173912
173845
173788
173735
173690
173652
173621
173596
173578
173568
173566
173575
173595
173628
173674
173738
173819
173923
174051
174205
174390
174607
174865
175163
175512
175910
176371
176894
177394
177822
178284
178761
179272
179799
180361
180941
181552
182183
182843
183530
184237
184994
185739
186591
187347
188362
189033
190407
190769
192585
192577
194672
189338
484551
225981
193208
175728
163429
154848
148650
144004
140450
137684
135490
133728
132293
131118
130140
129328
128643
128069
127578
127161
126805
126497
126231
126001
125802
125628
125476
125341
125224
125119
125028
124945
124873
124807
124748
124697
124650
124608
124571
124539
124511
124488
124470
124456
124447
124444
124449
124459
124479
124507
124548
124599
124665
124746
124843
124962
125100
125265
125455
125677
125930
126223
126554
126870
127139
127430
127727
128047
128374
128721
129077
129451
129834
130233
130642
131063
131504
131938
132418
132843
133395
133747
134451
134637
135387
135353
135952
131933
364915
162105
137355
126604
118873
113252
109071
105870
103385
101429
99866.7
98604.3
97572
96723.7
96015.7
95426.8
94929.1
94510.4
94152.7
93848.2
93587.3
93361.9
93167.6
92998.9
92852.8
92724.4
92612.7
92513.8
92427.5
92350.6
92283
92222.3
92168.7
92120.1
92076.7
92038.7
92003.8
91973.2
91945.3
91921
91900.3
91882.6
91868.1
91856.7
91849
91845
91846
91851.1
91862
91878.6
91902.9
91934.1
91975.1
92025.6
92086.9
92161.2
92248.4
92352.2
92471.5
92611.5
92769.8
92953.7
93160.4
93357.5
93523.2
93704.1
93887.2
94083.9
94282.5
94494
94708.1
94932.8
95158.9
95395.7
95631.8
95877.9
96123
96371.6
96626.3
96861
97137.7
97316
97638.2
97726.5
97951.7
97911.3
97948
96269.6
288486
122157
100429
93211.1
88310.1
84644.4
81832.8
79624
77874
76477.3
75349.9
74431.7
73676.1
73052.2
72529.4
72093.2
71723.5
71411.8
71144.9
70917.3
70722
70553
70407.1
70280.4
70170.4
70073.7
69989.5
69914.8
69849.7
69791.5
69740.4
69694.4
69653.8
69617
69584.1
69555.2
69528.6
69505.2
69483.8
69465
69448.9
69435
69423.2
69413.6
69406.6
69401.9
69400.7
69402.3
69407.5
69416.4
69430.3
69448.5
69473.1
69503.6
69540.9
69586.3
69639.7
69703.7
69776.7
69862.9
69959.5
70072.3
70197.6
70317.9
70417.3
70527.1
70636.4
70754.5
70871.4
70996.7
71120.6
71251.8
71379.4
71515.7
71644.3
71783.3
71910.2
72047.1
72170
72292.4
72413.6
72497.5
72610.4
72645.3
72639.2
72578.3
72302.3
72380.5
235414
96072.3
75378.1
69801.8
66586.4
64219.3
62362.2
60861.2
59641.9
58650.2
57838.3
57169.8
56614.8
56153.4
55764.7
55438.8
55161.5
54927
54725.6
54553.5
54405.4
54277
54166.1
54069.4
53985.5
53911.5
53847.1
53789.9
53739.9
53695.2
53656
53620.6
53589.3
53560.8
53535.4
53513.1
53492.4
53474.3
53457.6
53442.8
53430
53418.8
53409.1
53400.9
53394.5
53389.6
53387.1
53386.4
53388
53391.9
53399
53408.7
53422.3
53439.7
53461.1
53487.5
53518.5
53556
53598.5
53649.2
53705.2
53771.2
53843.3
53913.4
53969.8
54033.3
54094.9
54162.3
54227
54297.2
54364
54436.2
54502.2
54575.5
54638.5
54710.8
54768.3
54835.8
54884.7
54939
54976.5
55005.5
55014.7
55008.3
54935.7
54841.9
54500.4
55276.9
196390
78339.4
58088.9
53094.6
50776.5
49231.2
48031.8
47041
46213.5
45524.3
44949.5
44469.1
44065.6
43726.8
43439.1
43196.6
42988.9
42812.6
42660.5
42530.1
42417.5
42319.7
42234.9
42160.9
42096.6
42039.7
41990.1
41946
41907.4
41872.8
41842.4
41815
41790.6
41768.5
41748.8
41731.3
41715.2
41700.9
41687.7
41676
41665.8
41656.7
41648.7
41641.6
41635.9
41631
41627.8
41625.7
41625.1
41625.8
41628.5
41632.7
41639.2
41647.9
41658.8
41672.6
41688.9
41709
41731.4
41758.7
41788.1
41823.5
41860.8
41898.3
41927
41960.5
41991.5
42026.2
42057.9
42092.8
42124.1
42158.8
42187.3
42221
42245.3
42275.6
42294.1
42318.3
42327.9
42340.3
42336.9
42329.9
42301.8
42268.7
42177.3
42074.5
41747.3
42668.5
166515
65825.5
45984.7
41065.2
39121.4
38038
37265.5
36633.1
36093.3
35632.2
35238.6
34903.3
34617.1
34373.7
34164.7
33987.1
33833.8
33702.8
33589.1
33491.3
33406.5
33332.5
33268.1
33211.8
33162.7
33119.2
33081.1
33047.2
33017.5
32990.8
32967.4
32946.1
32927.2
32910
32894.6
32881
32868.4
32857.2
32846.8
32837.5
32829.3
32821.9
32815.3
32809.3
32804.2
32799.7
32796.2
32793.3
32791.5
32790.3
32790.3
32790.9
32792.9
32796
32800.2
32805.9
32812.6
32821.4
32830.8
32843
32855.3
32871
32886.1
32902.6
32913.9
32928.3
32940.1
32953.9
32965.3
32978.1
32987.9
32999.5
33005.8
33015.4
33017.5
33022.1
33019.9
33017.9
33008.2
32998.3
32974.2
32952.2
32905.2
32862.8
32772
32675.5
32389.5
33218.9
142961
56691.5
37385.2
32365.8
30488.3
29604.3
29073.6
28674.3
28337.5
28044.7
27788.9
27566
27371.7
27203.8
27057.3
26931.4
26821.5
26727
26644.1
26572.4
26509.9
26455
26407.2
26365.1
26328.3
26295.5
26266.8
26241.1
26218.6
26198.3
26180.4
26164.1
26149.6
26136.4
26124.6
26114.1
26104.3
26095.6
26087.5
26080.2
26073.7
26067.8
26062.4
26057.4
26053
26048.9
26045.5
26042.3
26039.9
26037.6
26036.1
26034.7
26033.9
26033.6
26033.7
26034.3
26035.1
26036.9
26038.2
26041
26042.6
26046.1
26047.6
26051
26051.7
26054.4
26054.5
26055.7
26055.2
26054.7
26052.2
26050
26044.1
26039.7
26029.7
26021.9
26006.3
25994.3
25971
25953.3
25918.6
25891.7
25839.4
25795.8
25712.2
25629.1
25393.4
26057.1
123974
49822.7
31178.3
26050.9
24094.5
23237.9
22805.8
22535
22327.5
22151.6
21996.7
21858.9
21735.9
21627.4
21530.8
21446.6
21371.9
21306.9
21249.3
21199.1
21154.9
21115.8
21081.6
21051.2
21024.6
21000.8
20979.8
20961
20944.4
20929.4
20916.2
20904.1
20893.3
20883.5
20874.5
20866.7
20859.3
20852.7
20846.5
20840.9
20835.9
20831.3
20827
20823
20819.3
20815.8
20812.7
20809.6
20807
20804.3
20802
20799.5
20797.3
20795.1
20792.8
20790.6
20787.8
20785.6
20782.1
20779.5
20774.8
20771.4
20764.8
20761
20755.5
20751.7
20745.1
20739.9
20731.8
20725.1
20714.8
20706.6
20693.1
20682.8
20665.6
20652.8
20630.7
20614.7
20586
20565.9
20528.3
20500.6
20450.6
20408.9
20336.2
20266.9
20080.9
20580.6
108407
44519.5
26626.8
21442.9
19367.6
18445.8
18013.2
17786.9
17645.3
17540.1
17452.4
17375.1
17305.1
17242.1
17184.6
17133.4
17087.1
17046.3
17009.4
16976.8
16948
16922.1
16899.2
16878.8
16860.8
16844.5
16830.1
16817.1
16805.6
16795.2
16786
16777.4
16769.8
16762.9
16756.5
16750.9
16745.6
16740.9
16736.4
16732.2
16728.6
16725.2
16721.9
16718.8
16715.9
16713.1
16710.4
16707.7
16705.2
16702.5
16700
16697.1
16694.2
16691.2
16687.6
16684.1
16679.5
16675.2
16669.3
16663.9
16656
16649.1
16638.4
16631
16622.2
16615.4
16605.3
16597.2
16585.4
16576
16562.1
16551.3
16534.6
16522.2
16502.3
16487.9
16463.9
16447.2
16418
16397.9
16362.1
16335.9
16291.2
16254.2
16191.9
16135.2
15992.7
16357.8
95467
40325.1
23240.6
18057.6
15876.6
14856.8
14367
14125.5
13998
13922.8
13871.6
13831.6
13797.1
13766.4
13737.8
13711.9
13687.7
13666
13645.8
13627.8
13611.5
13596.5
13583.2
13571.2
13560.5
13550.6
13541.9
13533.9
13526.9
13520.4
13514.6
13509.2
13504.4
13500
13495.9
13492.3
13488.8
13485.7
13482.8
13480
13477.6
13475.2
13473
13470.8
13468.6
13466.5
13464.4
13462.2
13460.1
13457.6
13455.2
13452.5
13449.5
13446.3
13442.4
13438.4
13433.2
13428.2
13421.3
13414.9
13405.7
13397.5
13385.2
13376.5
13366.7
13358.8
13347.5
13338.5
13325.6
13315.5
13300.6
13289.4
13272.2
13259.6
13239.9
13225.7
13202.7
13186.8
13159.7
13141.2
13109.1
13085.9
13046.9
13016
12963.5
12917.3
12810.3
13075.6
84607.6
36928.2
20691.8
15553
13297.1
12181.9
11613.1
11321.7
11171.6
11093.4
11051.3
11027.1
11011.4
11000
10990.2
10981.6
10973.4
10965.9
10958.6
10951.8
10945.5
10939.5
10934
10928.9
10924.3
10919.9
10916
10912.3
10909.1
10906
10903.3
10900.6
10898.3
10896.1
10894
10892.2
10890.3
10888.8
10887.2
10885.6
10884.3
10883
10881.7
10880.3
10878.9
10877.5
10876
10874.4
10872.7
10870.8
10868.8
10866.4
10863.6
10860.7
10856.9
10853.1
10848
10843.1
10836.3
10829.9
10820.8
10812.6
10800.5
10791.8
10782.1
10774.3
10763.2
10754.6
10742
10732.4
10718.2
10707.6
10691.6
10679.9
10661.8
10648.9
10628.2
10613.9
10590.1
10573.8
10546.1
10526.4
10493.2
10468
10424.8
10387.1
10308.1
10501.6
75438.3
34104.4
18757.7
13690.2
11388.1
10195.5
9548.67
9194.11
9000.45
8896.37
8842.02
8815.01
8802.49
8797.85
8796.85
8797.54
8798.89
8800.56
8801.93
8803.1
8804.13
8804.76
8805.27
8805.55
8805.83
8805.83
8805.86
8805.75
8805.67
8805.46
8805.33
8805.05
8804.81
8804.57
8804.21
8804
8803.62
8803.34
8802.97
8802.56
8802.21
8801.82
8801.38
8800.82
8800.16
8799.41
8798.63
8797.6
8796.5
8795.11
8793.56
8791.71
8789.42
8786.97
8783.69
8780.42
8775.84
8771.51
8765.25
8759.59
8751.18
8743.83
8732.74
8724.89
8715.99
8708.95
8698.91
8691.1
8679.79
8671.19
8658.54
8649.11
8635.02
8624.7
8608.95
8597.67
8579.95
8567.58
8547.39
8533.5
8510.21
8493.88
8466.15
8445.88
8410.9
8380.69
8323.01
8463.4
67670.4
31678.7
17284.3
12302.8
9974.73
8724.25
8011.12
7594.78
7350.42
7208.34
7127.63
7083.82
7061.74
7052.71
7051
7053.13
7057.52
7062.92
7068.59
7074.07
7079.45
7084.26
7088.72
7092.7
7096.41
7099.61
7102.57
7105.14
7107.52
7109.56
7111.49
7113.1
7114.58
7115.93
7117.04
7118.13
7118.99
7119.83
7120.5
7121.07
7121.6
7122.02
7122.34
7122.51
7122.49
7122.41
7122.27
7121.82
7121.26
7120.46
7119.46
7118.18
7116.45
7114.61
7111.95
7109.36
7105.51
7101.96
7096.6
7091.86
7084.62
7078.36
7068.83
7062.06
7054.4
7048.32
7039.71
7032.97
7023.32
7015.9
7005.18
6997.06
6985.19
6976.34
6963.18
6953.56
6938.86
6928.35
6911.73
6900.08
6880.96
6867.57
6844.91
6828.72
6800.74
6777.66
6735.02
6836.69
61075.4
29519.6
16162.4
11274.8
8931.75
7638.5
6872.7
6402.96
6110.05
5926.93
5813.37
5744.46
5703.98
5681.97
5671.45
5668.26
5669.42
5673.24
5678.71
5684.68
5691.19
5697.45
5703.54
5709.27
5714.76
5719.73
5724.41
5728.63
5732.58
5736.12
5739.44
5742.37
5745.07
5747.58
5749.76
5751.85
5753.65
5755.34
5756.84
5758.17
5759.4
5760.48
5761.42
5762.2
5762.8
5763.25
5763.62
5763.65
5763.6
5763.35
5762.89
5762.12
5760.99
5759.74
5757.74
5755.85
5752.8
5750.06
5745.71
5741.92
5735.99
5730.86
5723.04
5717.41
5711.1
5706.01
5698.92
5693.26
5685.35
5679.1
5670.34
5663.5
5653.83
5646.38
5635.7
5627.61
5615.72
5606.92
5593.53
5583.84
5568.47
5557.54
5539.38
5526.53
5504.45
5487.27
5455.88
5529.09
55396.2
27610.8
15312.8
10523.8
8170.04
6843.24
6035.85
5522.39
5187.36
4965.97
4819.11
4722.23
4658.91
4618.7
4593.93
4579.85
4572.8
4570.64
4571.6
4574.36
4578.81
4583.68
4588.93
4594.29
4599.72
4604.85
4609.83
4614.49
4618.95
4623.05
4626.95
4630.48
4633.78
4636.88
4639.64
4642.28
4644.63
4646.85
4648.85
4650.67
4652.36
4653.89
4655.25
4656.44
4657.47
4658.32
4659.06
4659.56
4659.92
4660
4659.96
4659.6
4659.06
4658.29
4656.92
4655.63
4653.34
4651.32
4647.95
4645.02
4640.35
4636.26
4630.07
4625.49
4620.48
4616.29
4610.65
4605.96
4599.67
4594.49
4587.53
4581.84
4574.16
4567.96
4559.48
4552.74
4543.33
4536.01
4525.41
4517.4
4505.24
4496.35
4482.05
4471.92
4454.75
4442.17
4419.23
4471.56
50391.3
25938.8
14674.4
9989
7625.45
6269.48
5427.75
4878.56
4508.47
4254
4076.89
3953.06
3866.29
3806
3764.33
3736.2
3717.59
3705.97
3699.28
3695.92
3695.39
3696.22
3698.3
3701.2
3704.68
3708.27
3712.04
3715.81
3719.58
3723.19
3726.7
3730.01
3733.13
3736.15
3738.9
3741.55
3743.95
3746.25
3748.36
3750.29
3752.12
3753.79
3755.31
3756.67
3757.88
3758.93
3759.85
3760.6
3761.18
3761.61
3761.75
3761.66
3761.49
3761.02
3760.24
3759.38
3757.75
3756.29
3753.76
3751.52
3747.96
3744.72
3739.96
3736.26
3732.38
3728.97
3724.58
3720.74
3715.84
3711.58
3706.16
3701.47
3695.47
3690.35
3683.73
3678.15
3670.8
3664.75
3656.48
3649.89
3640.43
3633.22
3622.15
3614.21
3601.08
3591.98
3575.32
3612.36
45809.3
24486.3
14195.4
9622.01
7249.79
5866.49
4994.49
4415.06
4015.68
3733.39
3530.28
3382.53
3274.1
3194.42
3135.63
3092.51
3060.92
3038.08
3021.79
3010.27
3002.64
2997.61
2994.68
2993.26
2993.12
2993.59
2994.73
2996.33
2998.21
3000.24
3002.36
3004.53
3006.66
3008.84
3010.89
3012.92
3014.82
3016.66
3018.41
3020.03
3021.57
3023.02
3024.35
3025.57
3026.67
3027.66
3028.51
3029.27
3029.84
3030.34
3030.61
3030.58
3030.53
3030.23
3029.79
3029.18
3028.03
3026.93
3025.05
3023.29
3020.6
3018.01
3014.38
3011.39
3008.41
3005.64
3002.26
2999.14
2995.35
2991.87
2987.67
2983.83
2979.19
2974.98
2969.85
2965.27
2959.57
2954.6
2948.21
2942.83
2935.56
2929.76
2921.33
2915.15
2905.27
2898.75
2886.7
2912.57
41365.3
23217.6
13823.3
9378.54
7003.09
5594.69
4695.11
4089.07
3664.63
3358.83
3133.76
2965.56
2838.27
2741.25
2666.71
2609.32
2564.93
2530.62
2504.13
2483.61
2467.94
2455.89
2446.77
2439.88
2434.88
2431.18
2428.6
2426.89
2425.86
2425.34
2425.18
2425.34
2425.72
2426.33
2427.01
2427.79
2428.6
2429.44
2430.31
2431.15
2431.98
2432.79
2433.56
2434.28
2434.94
2435.54
2436.05
2436.52
2436.84
2437.14
2437.26
2437.13
2437.04
2436.76
2436.31
2435.8
2434.84
2433.9
2432.42
2430.94
2428.85
2426.7
2423.87
2421.41
2419.1
2416.83
2414.2
2411.64
2408.7
2405.85
2402.59
2399.45
2395.85
2392.4
2388.43
2384.69
2380.29
2376.24
2371.34
2366.98
2361.45
2356.82
2350.51
2345.72
2338.4
2333.76
2325.06
2342.82
36730.2
22044.8
13491.3
9209.19
6845.85
5418.77
4495.51
3866.3
3420.26
3094.48
2850.9
2665.51
2522.26
2410.42
2322.19
2252.15
2196.16
2151.21
2115.01
2085.68
2061.96
2042.65
2026.96
2014.14
2003.75
1995.23
1988.3
1982.64
1978.04
1974.32
1971.27
1968.82
1966.82
1965.24
1963.97
1962.97
1962.18
1961.55
1961.08
1960.7
1960.42
1960.21
1960.05
1959.93
1959.82
1959.73
1959.6
1959.49
1959.31
1959.13
1958.86
1958.53
1958.07
1957.59
1956.92
1956.23
1955.26
1954.27
1952.94
1951.54
1949.75
1947.84
1945.5
1943.41
1941.53
1939.62
1937.51
1935.38
1933.04
1930.69
1928.1
1925.52
1922.68
1919.87
1916.76
1913.71
1910.31
1907.02
1903.27
1899.76
1895.62
1891.92
1887.31
1883.54
1878.32
1874.77
1868.71
1880.59
31541.1
20772.7
13098.3
9047.47
6729.8
5300.12
4361.93
3715.28
3252.06
2910.1
2651.42
2451.97
2295.63
2171.54
2071.91
1991.22
1925.33
1871.15
1826.38
1789.13
1758.06
1731.97
1710.04
1691.47
1675.76
1662.37
1650.96
1641.19
1632.8
1625.59
1619.35
1613.96
1609.27
1605.19
1601.63
1598.51
1595.78
1593.36
1591.22
1589.32
1587.63
1586.11
1584.73
1583.49
1582.35
1581.3
1580.3
1579.38
1578.47
1577.6
1576.71
1575.85
1574.92
1574
1572.96
1571.92
1570.73
1569.5
1568.08
1566.58
1564.86
1563
1560.87
1558.97
1557.34
1555.67
1553.88
1552.05
1550.1
1548.11
1545.99
1543.83
1541.54
1539.22
1536.74
1534.25
1531.58
1528.92
1526.04
1523.24
1520.12
1517.21
1513.84
1510.91
1507.21
1504.48
1500.26
1507.98
25502.8
19008.5
12478.8
8792.71
6585.64
5187.04
4252.89
3600.56
3128.19
2775.97
2506.9
2297.29
2131.2
1997.81
1889.35
1800.29
1726.5
1664.87
1613.06
1569.22
1531.94
1500.04
1472.65
1449
1428.52
1410.69
1395.14
1381.5
1369.51
1358.94
1349.57
1341.27
1333.86
1327.26
1321.34
1316.02
1311.23
1306.9
1302.98
1299.42
1296.17
1293.21
1290.48
1287.98
1285.65
1283.5
1281.48
1279.61
1277.81
1276.12
1274.48
1272.92
1271.36
1269.85
1268.32
1266.8
1265.22
1263.63
1261.95
1260.21
1258.35
1256.39
1254.27
1252.43
1250.9
1249.34
1247.72
1246.06
1244.35
1242.6
1240.79
1238.93
1237.01
1235.06
1233.02
1230.96
1228.82
1226.66
1224.4
1222.17
1219.79
1217.52
1215.01
1212.77
1210.08
1208.04
1205
1209.87
18842.9
15986.7
11377.6
8288.96
6306.48
5001.97
4108.81
3473.98
3007.94
2656.41
2385.08
2171.58
2000.79
1862.24
1748.46
1654.02
1574.92
1508.1
1451.25
1402.56
1360.61
1324.25
1292.61
1264.92
1240.6
1219.13
1200.13
1183.24
1168.18
1154.7
1142.6
1131.72
1121.89
1112.99
1104.92
1097.57
1090.87
1084.74
1079.13
1073.97
1069.23
1064.85
1060.79
1057.04
1053.54
1050.28
1047.23
1044.37
1041.67
1039.12
1036.69
1034.37
1032.14
1029.99
1027.88
1025.83
1023.79
1021.77
1019.72
1017.67
1015.56
1013.4
1011.15
1009.25
1007.73
1006.19
1004.63
1003.06
1001.47
999.863
998.227
996.574
994.89
993.191
991.458
989.715
987.933
986.154
984.327
982.528
980.658
978.867
976.948
975.224
973.207
971.689
969.389
972.356
11591.6
11422.9
9534.36
7311.01
5730.32
4627.03
3840.02
3264.52
2833
2501.97
2242.86
2036.47
1869.5
1732.62
1619.06
1523.88
1443.36
1374.68
1315.67
1264.62
1220.21
1181.33
1147.15
1116.94
1090.13
1066.25
1044.89
1025.72
1008.45
992.864
978.74
965.911
954.227
943.56
933.797
924.843
916.612
909.032
902.034
895.565
889.568
884.004
878.826
874.004
869.497
865.284
861.327
857.613
854.106
850.797
847.652
844.665
841.806
839.069
836.425
833.871
831.375
828.94
826.53
824.151
821.763
819.373
816.944
814.95
813.373
811.81
810.257
808.712
807.172
805.637
804.102
802.571
801.037
799.507
797.973
796.447
794.915
793.398
791.87
790.375
788.852
787.401
785.874
784.513
782.929
781.787
779.939
781.703
4583.92
6417.01
6272.93
5588.37
4646.94
3903.06
3321.74
2871.92
2520.63
2242.75
2019.94
1838.89
1689.94
1565.99
1461.77
1373.33
1297.65
1232.39
1175.72
1126.21
1082.71
1044.28
1010.18
979.776
952.565
928.115
906.073
886.134
868.043
851.583
836.566
822.83
810.238
798.668
788.014
778.185
769.099
760.686
752.879
745.627
738.874
732.581
726.702
721.206
716.053
711.221
706.674
702.395
698.352
694.531
690.904
687.459
684.171
681.029
678.009
675.105
672.289
669.561
666.888
664.276
661.688
659.132
656.572
654.505
652.891
651.309
649.757
648.231
646.728
645.248
643.787
642.347
640.924
639.52
638.132
636.767
635.415
634.091
632.775
631.5
630.22
629.009
627.752
626.643
625.351
624.467
622.913
623.94
1229.34
2297.96
2938.86
3068.26
2963.96
2722.82
2443.14
2195.23
1980.98
1799.09
1645.46
1515.41
1404.78
1310.12
1228.63
1158.01
1096.46
1042.5
994.947
952.821
915.336
881.833
851.774
824.702
800.239
778.06
757.895
739.507
722.698
707.294
693.145
680.122
668.11
657.009
646.733
637.203
628.35
620.115
612.442
605.283
598.593
592.334
586.469
580.966
575.795
570.931
566.344
562.017
557.923
554.047
550.366
546.865
543.525
540.334
537.272
534.33
531.486
528.737
526.057
523.449
520.882
518.362
515.859
513.859
512.308
510.8
509.33
507.898
506.499
505.132
503.796
502.49
501.212
499.963
498.741
497.549
496.382
495.248
494.134
493.062
491.999
490.997
489.971
489.069
488.024
487.335
486.037
486.595
477.555
690.552
968.794
1178.07
1306.64
1344.21
1330.32
1293.75
1233.4
1169.51
1107.09
1047.77
992.801
942.465
896.672
855.136
817.504
783.4
752.464
724.36
698.787
675.472
654.176
634.685
616.813
600.394
585.282
571.348
558.479
546.574
535.543
525.306
515.793
506.94
498.691
490.994
483.804
477.08
470.785
464.883
459.345
454.143
449.25
444.643
440.3
436.201
432.327
428.662
425.187
421.888
418.751
415.762
412.908
410.176
407.555
405.034
402.6
400.246
397.956
395.729
393.545
391.404
389.29
387.614
386.322
385.071
383.859
382.683
381.542
380.434
379.358
378.313
377.298
376.313
375.358
374.432
373.533
372.665
371.822
371.012
370.221
369.472
368.724
368.053
367.306
366.799
365.844
366.086
317.92
366.326
442.128
521.541
589.949
641.968
670.958
689.637
689.44
685.55
675.729
660.514
643.762
626.053
608.097
590.354
573.118
556.565
540.798
525.86
511.768
498.507
486.054
474.373
463.426
453.17
443.563
434.562
426.128
418.223
410.809
403.854
397.324
391.192
385.428
380.008
374.909
370.107
365.583
361.319
357.296
353.498
349.91
346.517
343.307
340.267
337.385
334.65
332.052
329.58
327.226
324.98
322.835
320.78
318.811
316.917
315.095
313.334
311.631
309.978
308.372
306.803
305.272
304.08
303.171
302.298
301.461
300.657
299.885
299.143
298.432
297.749
297.095
296.468
295.868
295.294
294.746
294.222
293.721
293.244
292.788
292.354
291.938
291.549
291.161
290.836
290.395
290.389
274.469
289.657
319.876
358.42
395.468
430.757
456.824
478.167
490.527
498.278
499.874
498.651
495.456
489.315
481.767
473.301
464.297
455.032
445.713
436.489
427.464
418.71
410.272
402.18
394.446
387.077
380.07
373.417
367.109
361.132
355.474
350.118
345.05
340.257
335.722
331.432
327.374
323.533
319.899
316.459
313.202
310.117
307.194
304.424
301.797
299.305
296.941
294.696
292.564
290.537
288.61
286.775
285.03
283.366
281.781
280.266
278.822
277.439
276.12
274.851
273.642
272.472
271.36
270.515
269.881
269.283
268.718
268.186
267.685
267.216
266.777
266.369
265.99
265.639
265.313
265.012
264.733
264.475
264.235
264.012
263.806
263.613
263.433
263.266
263.108
262.962
262.817
262.709
273.759
288.385
316.69
354.608
390.801
426.084
452.479
473.906
487.001
495.036
497.256
496.24
493.448
487.72
480.462
472.239
463.44
454.349
445.177
436.077
427.157
418.49
410.127
402.097
394.418
387.093
380.124
373.504
367.223
361.27
355.631
350.292
345.239
340.457
335.933
331.652
327.601
323.768
320.14
316.705
313.453
310.374
307.458
304.694
302.077
299.595
297.244
295.015
292.904
290.903
289.008
287.211
285.51
283.899
282.376
280.933
279.573
278.285
277.075
275.931
274.86
273.848
272.908
272.224
271.725
271.267
270.846
270.459
270.104
269.78
269.484
269.214
268.969
268.746
268.546
268.365
268.202
268.056
267.925
267.808
267.703
267.609
267.524
267.449
267.38
267.325
267.239
267.142
314.651
360.983
426.711
504.866
570.107
623.698
654.14
674.15
677.399
674.502
666.843
653.239
637.832
621.303
604.322
587.383
570.81
554.806
539.492
524.931
511.15
498.149
485.912
474.412
463.616
453.486
443.984
435.072
426.712
418.868
411.506
404.593
398.099
391.996
386.257
380.858
375.776
370.99
366.481
362.231
358.222
354.441
350.872
347.504
344.323
341.321
338.484
335.805
333.275
330.887
328.634
326.51
324.511
322.629
320.862
319.204
317.654
316.207
314.86
313.612
312.459
311.399
310.431
309.756
309.279
308.851
308.473
308.135
307.842
307.581
307.359
307.164
307
306.861
306.747
306.654
306.577
306.512
306.463
306.423
306.378
306.321
306.27
306.2
306.155
306.13
306.065
305.956
462.308
662.088
905.368
1120.56
1247.01
1298.89
1289.57
1261.21
1207.86
1149.15
1090.87
1034.82
982.411
934.119
889.96
849.74
813.169
779.927
749.694
722.166
697.065
674.14
653.166
633.942
616.291
600.055
585.096
571.288
558.524
546.705
535.745
525.567
516.102
507.288
499.07
491.4
484.231
477.526
471.247
465.362
459.842
454.66
449.793
445.218
440.916
436.871
433.064
429.483
426.114
422.946
419.968
417.171
414.547
412.09
409.79
407.646
405.649
403.8
402.086
400.514
399.07
397.76
396.572
395.751
395.176
394.665
394.22
393.829
393.493
393.203
392.958
392.752
392.583
392.454
392.327
392.314
392.04
391.987
392.008
392.038
391.9
391.905
391.902
391.902
391.948
391.972
392.014
391.905
1117.3
2090.86
2693.46
2901.17
2822.17
2625.37
2372.14
2142.74
1941.37
1768.63
1621.65
1496.48
1389.5
1297.6
1218.22
1149.24
1088.96
1036
989.224
947.717
910.72
877.604
847.848
821.014
796.736
774.7
754.641
736.333
719.58
704.212
690.085
677.071
665.058
653.948
643.656
634.106
625.231
616.972
609.274
602.093
595.384
589.112
583.24
577.742
572.587
567.754
563.219
558.966
554.974
551.231
547.72
544.433
541.356
538.483
535.802
533.31
530.995
528.859
526.887
525.088
523.439
521.957
520.616
519.695
519.05
518.483
517.992
517.563
517.199
516.885
516.634
516.404
516.254
516.115
515.941
515.77
515.717
515.488
515.39
515.354
515.318
515.324
515.334
515.359
515.503
515.539
515.593
515.439
4042.98
5908.99
5869.21
5362.46
4501.08
3807.68
3256.89
2826.26
2487.47
2217.96
2000.92
1823.9
1677.82
1555.92
1453.19
1365.82
1290.89
1226.16
1169.86
1120.58
1077.22
1038.85
1004.75
974.307
947.021
922.472
900.311
880.239
862.007
845.396
830.225
816.333
803.585
791.858
781.05
771.07
761.838
753.283
745.342
737.963
731.095
724.695
718.725
713.152
707.944
703.076
698.521
694.261
690.275
686.549
683.066
679.815
676.783
673.963
671.344
668.922
666.684
664.636
662.756
661.064
659.522
658.165
656.947
656.142
655.592
655.117
654.722
654.386
654.117
653.898
653.728
653.6
653.526
653.453
653.416
653.384
653.286
653.206
653.184
653.258
653.351
653.477
653.603
653.79
653.925
654.198
654.237
654.043
10592.6
10723.9
9160.91
7112.99
5616.14
4557.27
3795.19
3234.26
2811.62
2486.12
2230.55
2026.38
1860.82
1724.76
1611.66
1516.66
1436.13
1367.32
1308.07
1256.73
1211.96
1172.71
1138.13
1107.52
1080.3
1056.01
1034.24
1014.67
997.018
981.043
966.549
953.359
941.327
930.323
920.239
910.975
902.45
894.588
887.326
880.606
874.38
868.603
863.236
858.246
853.602
849.277
845.248
841.496
838.001
834.749
831.727
828.921
826.325
823.925
821.723
819.701
817.867
816.207
814.716
813.411
812.24
811.284
810.411
809.942
809.625
809.396
809.204
809.165
808.877
808.848
808.941
808.888
808.981
809.114
809.276
809.463
809.674
809.908
810.157
810.429
810.707
811.006
811.295
811.616
811.894
812.247
812.471
812.256
17642.3
15308.1
11068
8139.54
6227.5
4956.65
4080.8
3455.13
2994.05
2645.08
2375.01
2161.92
1991.07
1852.12
1737.76
1642.61
1562.72
1495.08
1437.38
1387.84
1345.04
1307.86
1275.4
1246.92
1221.83
1199.64
1179.92
1162.35
1146.64
1132.53
1119.84
1108.38
1098.01
1088.59
1080.03
1072.21
1065.07
1058.53
1052.52
1047
1041.91
1037.22
1032.89
1028.88
1025.18
1021.75
1018.58
1015.64
1012.93
1010.42
1008.12
1006.01
1004.08
1002.33
1000.76
999.334
998.121
997.012
996.131
995.361
994.757
994.387
993.83
993.804
993.814
993.945
994.136
994.387
994.669
994.99
995.344
995.714
996.107
996.519
996.95
997.396
997.859
998.333
998.819
999.308
999.805
1000.3
1000.8
1001.28
1001.78
1002.24
1002.74
1002.49
24195
18417.9
12231.1
8681.51
6529.97
5155.22
4231.86
3584.22
3113.6
2761.53
2491.85
2281.09
2113.69
1978.79
1868.82
1778.2
1702.88
1639.75
1586.48
1541.24
1502.59
1469.4
1440.77
1415.94
1394.33
1375.43
1358.86
1344.26
1331.36
1319.92
1309.75
1300.67
1292.54
1285.25
1278.69
1272.76
1267.4
1262.53
1258.12
1254.09
1250.42
1247.07
1244
1241.19
1238.62
1236.27
1234.12
1232.15
1230.37
1228.75
1227.3
1225.99
1224.85
1223.84
1223.02
1222.29
1221.8
1221.32
1221.2
1220.95
1221.02
1221.24
1221.63
1222.16
1222.63
1223.16
1223.74
1224.36
1225.02
1225.7
1226.41
1227.14
1227.89
1228.65
1229.42
1230.19
1230.98
1231.75
1232.54
1233.29
1234.08
1234.81
1235.58
1236.26
1237.06
1237.64
1238.51
1238.2
30187.5
20231.7
12885.1
8954.57
6681.16
5268.17
4336.1
3690.93
3227.12
2883.46
2622.66
2420.76
2261.98
2135.35
2033.3
1950.2
1882.01
1825.64
1778.75
1739.52
1706.55
1678.69
1655.06
1634.93
1617.72
1602.95
1590.24
1579.25
1569.72
1561.43
1554.21
1547.88
1542.33
1537.44
1533.12
1529.29
1525.89
1522.87
1520.17
1517.76
1515.61
1513.68
1511.94
1510.39
1509
1507.77
1506.67
1505.71