/*--------------------------------*- C++ -*----------------------------------*\
| =========                 |                                                 |
| \\      /  F ield         | OpenFOAM: The Open Source CFD Toolbox           |
|  \\    /   O peration     | Version:  2306                                  |
|   \\  /    A nd           | Website:  www.openfoam.com                      |
|    \\/     M anipulation  |                                                 |
\*---------------------------------------------------------------------------*/
FoamFile
{
    version     2.0;
    format      ascii;
    arch        "LSB;label=32;scalar=64";
    class       volScalarField;
    location    "1800";
    object      k;
}
// * * * * * * * * * * * * * * * * * * * * * * * * * * * * * * * * * * * * * //

dimensions      [0 2 -2 0 0 0 0];

internalField   nonuniform List<scalar> 
20540
(
94.9834
213.716
94.9657
213.705
94.8778
213.653
94.7119
213.557
94.4526
213.407
94.0795
213.191
93.5674
212.891
92.8865
212.489
92.0008
211.962
90.868
211.28
89.4374
210.408
87.6498
209.299
85.4361
207.894
82.7176
206.119
79.4067
203.873
75.4105
201.023
70.6372
197.387
65.0095
192.717
58.4942
186.659
51.1667
178.697
43.1702
168.208
34.719
154.484
26.1913
136.795
18.3503
114.646
12.6051
88.3226
9.90461
59.244
8.54078
31.2293
7.74234
14.1782
7.30197
8.62639
6.95605
7.15528
6.80704
6.66134
6.76325
6.48865
6.76265
6.47998
6.8029
6.6312
6.93645
7.09039
7.252
8.35304
7.67876
12.9886
8.42819
27.8043
9.70548
54.0514
12.2178
82.1156
17.5598
107.887
25.118
129.944
33.5311
147.802
42.0046
161.801
50.1355
172.581
57.6873
180.806
64.4736
187.104
70.3987
191.989
75.479
195.816
79.7782
198.835
83.3788
201.231
86.3678
203.139
88.829
204.661
90.8402
205.875
92.4706
206.842
93.7805
207.607
94.8221
208.209
95.6396
208.677
96.2707
209.035
96.747
209.304
97.0953
209.5
97.338
209.636
97.4939
209.723
97.5767
209.77
97.5971
209.782
35.4148
18.6873
15.9763
14.4905
13.585
13.0023
12.5987
12.3044
12.0832
11.9128
11.7786
11.6713
11.5843
11.5132
11.4541
11.4052
11.364
11.3295
11.3
11.275
11.2537
11.2352
11.2194
11.2057
11.1938
11.1834
11.1743
11.1663
11.1594
11.1532
11.1477
11.1429
11.1386
11.1346
11.1312
11.1282
11.1254
11.123
11.1208
11.1189
11.1174
11.1161
11.1152
11.1145
11.1143
11.1144
11.1151
11.1163
11.1181
11.1205
11.1239
11.128
11.1334
11.1398
11.1476
11.157
11.168
11.1811
11.1961
11.2138
11.2341
11.2575
11.2843
11.3103
11.3327
11.3566
11.3814
11.4083
11.4363
11.4662
11.4973
11.5305
11.565
11.6017
11.6404
11.6814
11.7255
11.7708
11.8224
11.8716
11.9355
11.9856
12.0785
12.1122
12.2722
12.3242
12.5681
12.2721
30.4941
11.485
9.02002
7.82136
7.13872
6.71407
6.42908
6.22579
6.075
5.95998
5.87016
5.79881
5.7412
5.69436
5.65555
5.62355
5.59663
5.57415
5.55499
5.53877
5.52493
5.513
5.50276
5.49389
5.48624
5.47952
5.4737
5.46854
5.46407
5.46007
5.45657
5.45342
5.45065
5.44811
5.44586
5.4439
5.44207
5.44048
5.43899
5.4377
5.4366
5.43564
5.43482
5.43415
5.43366
5.43329
5.43322
5.43329
5.43361
5.43418
5.43508
5.43626
5.43788
5.43989
5.44234
5.44536
5.44888
5.45315
5.45799
5.46379
5.47022
5.47788
5.48634
5.49464
5.50159
5.50932
5.51689
5.5253
5.53352
5.54261
5.5515
5.56121
5.57052
5.58105
5.59063
5.60221
5.61179
5.62455
5.63333
5.64786
5.65474
5.67073
5.67848
5.67994
5.70138
5.70019
5.66331
5.7346
37.4264
15.6494
12.6456
11.1324
10.2435
9.6795
9.2958
9.01941
8.81295
8.65465
8.53054
8.43162
8.35155
8.28631
8.23216
8.18746
8.1498
8.11833
8.09146
8.06872
8.04929
8.03253
8.01814
8.00568
7.99492
7.98546
7.97727
7.97001
7.96371
7.95808
7.95316
7.94871
7.94481
7.94124
7.93807
7.93531
7.93273
7.93049
7.9284
7.92658
7.92504
7.92369
7.92255
7.9216
7.92092
7.92041
7.92031
7.92044
7.92092
7.92174
7.92304
7.92474
7.92706
7.92995
7.93345
7.93777
7.94281
7.94891
7.95583
7.9641
7.9733
7.98422
7.99627
8.00801
8.01783
8.02879
8.03955
8.05147
8.06313
8.07602
8.08863
8.10239
8.11562
8.13045
8.14405
8.16014
8.17377
8.19131
8.20411
8.22388
8.23453
8.25614
8.26846
8.27151
8.30084
8.29513
8.28446
8.12465
43.0132
18.4436
15.157
13.5616
12.6256
12.0292
11.6218
11.3272
11.1065
10.9369
10.8037
10.6973
10.6111
10.5408
10.4824
10.4342
10.3935
10.3595
10.3304
10.3058
10.2848
10.2666
10.251
10.2375
10.2259
10.2156
10.2068
10.1989
10.1921
10.1859
10.1806
10.1758
10.1715
10.1677
10.1642
10.1612
10.1584
10.156
10.1537
10.1518
10.1501
10.1487
10.1474
10.1464
10.1457
10.1451
10.145
10.1452
10.1458
10.1467
10.1481
10.15
10.1526
10.1558
10.1597
10.1645
10.17
10.1768
10.1844
10.1936
10.2037
10.2158
10.2291
10.2419
10.2527
10.2647
10.2766
10.2896
10.3024
10.3165
10.3304
10.3454
10.3599
10.3761
10.3911
10.4084
10.4235
10.4421
10.4567
10.4772
10.4903
10.5118
10.5274
10.5326
10.5626
10.5548
10.5922
10.2434
47.5589
20.109
16.4016
14.7192
13.756
13.1465
12.7316
12.4321
12.2077
12.0351
11.8996
11.7913
11.7036
11.632
11.5725
11.5234
11.4819
11.4473
11.4177
11.3926
11.3712
11.3527
11.3368
11.323
11.3111
11.3007
11.2916
11.2836
11.2766
11.2704
11.265
11.2601
11.2557
11.2518
11.2483
11.2452
11.2423
11.2399
11.2375
11.2355
11.2338
11.2322
11.2309
11.2298
11.229
11.2284
11.2281
11.2281
11.2285
11.2292
11.2304
11.232
11.2342
11.237
11.2404
11.2445
11.2494
11.2554
11.262
11.2701
11.2789
11.2895
11.301
11.3123
11.3215
11.332
11.3422
11.3535
11.3643
11.3764
11.388
11.4008
11.4128
11.4263
11.4384
11.4528
11.4644
11.4798
11.4902
11.5068
11.5151
11.5321
11.5399
11.5446
11.5586
11.5504
11.5888
11.2334
51.5727
21.4486
17.1649
15.343
14.3415
13.7186
13.2987
12.9972
12.7717
12.5986
12.4627
12.3543
12.2663
12.1947
12.1351
12.0859
12.0444
12.0097
11.98
11.9549
11.9335
11.915
11.8991
11.8853
11.8734
11.863
11.8539
11.8459
11.8389
11.8327
11.8272
11.8223
11.818
11.814
11.8105
11.8074
11.8045
11.802
11.7997
11.7976
11.7958
11.7943
11.7929
11.7917
11.7908
11.79
11.7896
11.7894
11.7895
11.7899
11.7907
11.7919
11.7935
11.7957
11.7982
11.8015
11.8053
11.81
11.8152
11.8216
11.8285
11.8368
11.8458
11.8546
11.8617
11.87
11.8777
11.8865
11.8946
11.9039
11.9124
11.9221
11.9306
11.9407
11.9489
11.9595
11.9668
11.9779
11.9835
11.995
11.9981
12.0093
12.0091
12.0134
12.0093
12.0082
12.0227
11.7068
55.3079
22.7659
17.7872
15.7566
14.6914
14.0473
13.6206
13.3173
13.0919
12.9193
12.784
12.6762
12.5889
12.5178
12.4587
12.4099
12.3688
12.3344
12.3051
12.2802
12.259
12.2407
12.2249
12.2113
12.1996
12.1892
12.1803
12.1723
12.1654
12.1593
12.1539
12.149
12.1447
12.1408
12.1373
12.1343
12.1314
12.1289
12.1265
12.1245
12.1227
12.1211
12.1197
12.1184
12.1174
12.1165
12.1159
12.1154
12.1153
12.1154
12.1158
12.1164
12.1175
12.1189
12.1207
12.1229
12.1255
12.1289
12.1325
12.1371
12.1419
12.1479
12.154
12.1603
12.1652
12.1711
12.1763
12.1825
12.1878
12.1942
12.1996
12.206
12.2112
12.2178
12.2223
12.2291
12.2324
12.2391
12.2407
12.2469
12.2457
12.2514
12.2455
12.2483
12.2326
12.2328
12.2304
11.9718
58.8936
24.1623
18.4149
16.1015
14.935
14.2545
13.8151
13.5083
13.2826
13.1109
12.977
12.8705
12.7844
12.7144
12.6562
12.6084
12.568
12.5343
12.5055
12.4811
12.4604
12.4424
12.427
12.4137
12.4022
12.3921
12.3834
12.3756
12.3689
12.3628
12.3576
12.3528
12.3486
12.3448
12.3414
12.3384
12.3356
12.3331
12.3308
12.3287
12.3269
12.3253
12.3239
12.3225
12.3214
12.3204
12.3196
12.319
12.3186
12.3183
12.3184
12.3185
12.319
12.3197
12.3206
12.3219
12.3234
12.3254
12.3275
12.3303
12.3329
12.3366
12.34
12.3439
12.3465
12.3502
12.3529
12.3567
12.3593
12.3629
12.3655
12.3689
12.3709
12.3742
12.3756
12.3787
12.3789
12.3811
12.3796
12.3814
12.3767
12.3783
12.3681
12.3687
12.3467
12.3444
12.3311
12.1278
62.4011
25.6714
19.1161
16.4546
15.1404
14.3997
13.9368
13.6218
13.394
13.2227
13.0902
12.9854
12.901
12.8325
12.7758
12.7292
12.6899
12.6572
12.6293
12.6058
12.5857
12.5683
12.5534
12.5406
12.5295
12.5197
12.5113
12.5038
12.4974
12.4916
12.4865
12.4819
12.4779
12.4742
12.4709
12.468
12.4653
12.4629
12.4606
12.4586
12.4569
12.4553
12.4538
12.4525
12.4513
12.4502
12.4492
12.4484
12.4478
12.4472
12.4469
12.4466
12.4465
12.4466
12.4467
12.4471
12.4474
12.4482
12.4488
12.4499
12.4507
12.4522
12.453
12.4546
12.4552
12.4567
12.4573
12.4587
12.459
12.4601
12.4601
12.4607
12.4602
12.4605
12.4593
12.4591
12.4566
12.4558
12.4512
12.4501
12.4421
12.4408
12.4274
12.4254
12.4011
12.3949
12.3741
12.2294
65.8724
27.306
19.9223
16.8645
15.3542
14.5221
14.0183
13.6864
13.4524
13.2796
13.1477
13.0444
12.9619
12.8954
12.8404
12.7955
12.7576
12.7263
12.6996
12.6771
12.6579
12.6414
12.6273
12.6151
12.6046
12.5953
12.5874
12.5803
12.5742
12.5687
12.564
12.5596
12.5558
12.5523
12.5492
12.5465
12.5439
12.5416
12.5394
12.5375
12.5358
12.5343
12.5328
12.5315
12.5302
12.5291
12.528
12.527
12.5263
12.5254
12.5248
12.524
12.5235
12.523
12.5224
12.522
12.5213
12.521
12.5202
12.5199
12.5189
12.5185
12.517
12.5166
12.5155
12.5151
12.5138
12.5132
12.5114
12.5104
12.5081
12.5068
12.5037
12.502
12.498
12.4958
12.4905
12.4878
12.4804
12.4773
12.4668
12.4633
12.448
12.4436
12.4192
12.4103
12.3841
12.28
69.3328
29.0748
20.8462
17.3623
15.6129
14.6538
14.0859
13.7233
13.4755
13.2972
13.1639
13.0612
12.9801
12.9154
12.8623
12.8193
12.7833
12.7536
12.7283
12.7072
12.6892
12.6738
12.6606
12.6493
12.6396
12.631
12.6237
12.6171
12.6116
12.6065
12.6022
12.5981
12.5946
12.5914
12.5885
12.5861
12.5836
12.5816
12.5795
12.5777
12.5762
12.5747
12.5733
12.572
12.5707
12.5696
12.5685
12.5674
12.5664
12.5654
12.5645
12.5634
12.5625
12.5615
12.5603
12.5592
12.5577
12.5564
12.5545
12.5529
12.5503
12.5485
12.5449
12.543
12.5402
12.5385
12.5353
12.5334
12.5296
12.5273
12.5229
12.5202
12.5149
12.5118
12.5055
12.502
12.4944
12.4903
12.4809
12.4764
12.4642
12.4591
12.4428
12.4364
12.4125
12.4019
12.3733
12.2924
72.7962
30.987
21.8927
17.9654
15.9451
14.8241
14.1645
13.7525
13.4792
13.2883
13.1493
13.0448
12.9639
12.9004
12.849
12.8079
12.7737
12.7459
12.7222
12.7027
12.6862
12.672
12.6601
12.6498
12.6411
12.6333
12.6268
12.621
12.616
12.6115
12.6077
12.6041
12.601
12.5982
12.5957
12.5935
12.5913
12.5895
12.5877
12.586
12.5847
12.5834
12.5821
12.5808
12.5796
12.5784
12.5774
12.5762
12.5752
12.574
12.573
12.5716
12.5704
12.569
12.5674
12.5657
12.5635
12.5615
12.5587
12.5562
12.5523
12.5493
12.5441
12.541
12.5368
12.5342
12.5295
12.5267
12.5212
12.518
12.5119
12.5083
12.5013
12.4973
12.4893
12.4848
12.4757
12.4706
12.4599
12.4543
12.4412
12.435
12.4182
12.4105
12.387
12.3751
12.3462
12.2774
76.2672
33.0526
23.0652
18.6824
16.3704
15.0587
14.2791
13.7951
13.4802
13.2661
13.1146
13.0039
12.9203
12.8564
12.8055
12.7657
12.7331
12.707
12.6851
12.6673
12.6524
12.6397
12.6291
12.6201
12.6125
12.6058
12.6003
12.5952
12.5911
12.5873
12.5842
12.5811
12.5785
12.5762
12.5741
12.5723
12.5704
12.5689
12.5674
12.566
12.5649
12.5637
12.5626
12.5615
12.5604
12.5593
12.5583
12.5571
12.5561
12.5548
12.5537
12.5523
12.5509
12.5492
12.5472
12.5452
12.5426
12.54
12.5365
12.5333
12.5286
12.5247
12.5183
12.5144
12.5093
12.506
12.5002
12.4967
12.4902
12.4863
12.479
12.4748
12.4667
12.462
12.453
12.4479
12.4378
12.4322
12.4206
12.4145
12.4008
12.3939
12.377
12.3684
12.3455
12.3319
12.3048
12.2434
79.7408
35.2819
24.3685
19.5172
16.9008
15.3775
14.4529
13.8734
13.4978
13.2462
13.072
12.948
12.857
12.7893
12.7369
12.697
12.665
12.6401
12.6195
12.6032
12.5898
12.5786
12.5695
12.5618
12.5555
12.55
12.5455
12.5415
12.5383
12.5353
12.5329
12.5305
12.5286
12.5268
12.5252
12.5239
12.5224
12.5213
12.5201
12.5191
12.5182
12.5174
12.5165
12.5155
12.5146
12.5136
12.5127
12.5116
12.5107
12.5095
12.5083
12.5068
12.5054
12.5035
12.5014
12.4992
12.4963
12.4934
12.4895
12.4859
12.4806
12.4762
12.4691
12.4647
12.459
12.4552
12.4489
12.4449
12.4377
12.4334
12.4255
12.4209
12.4122
12.4073
12.3977
12.3923
12.3817
12.3758
12.3639
12.3574
12.3436
12.3362
12.3194
12.3103
12.2882
12.2726
12.2478
12.1951
83.201
37.6834
25.8099
20.473
17.5426
15.7941
14.7054
14.0091
13.5529
13.2469
13.0369
12.8897
12.784
12.7071
12.6493
12.6065
12.5732
12.5481
12.5279
12.5124
12.5001
12.49
12.4822
12.4757
12.4707
12.4663
12.4629
12.4599
12.4577
12.4556
12.4541
12.4524
12.4512
12.4501
12.4491
12.4483
12.4473
12.4467
12.4459
12.4452
12.4447
12.4442
12.4436
12.4429
12.4422
12.4414
12.4407
12.4397
12.4389
12.4378
12.4368
12.4353
12.4339
12.432
12.4299
12.4276
12.4246
12.4216
12.4175
12.4138
12.4082
12.4035
12.3962
12.3915
12.3856
12.3816
12.375
12.3708
12.3635
12.359
12.3509
12.3461
12.3372
12.3321
12.3224
12.3168
12.3062
12.3001
12.2882
12.2816
12.2679
12.2603
12.2437
12.2342
12.2128
12.1966
12.1709
12.1311
86.6176
40.2622
27.3982
21.5539
18.2993
16.3164
15.0505
14.2206
13.6656
13.2882
13.0275
12.8447
12.7144
12.6208
12.5517
12.5015
12.4635
12.4355
12.4138
12.3976
12.3852
12.3756
12.3683
12.3626
12.3585
12.355
12.3526
12.3505
12.3492
12.3479
12.3472
12.3462
12.3458
12.3454
12.3449
12.3447
12.3442
12.3441
12.3437
12.3435
12.3434
12.3432
12.3429
12.3425
12.342
12.3415
12.341
12.3403
12.3396
12.3387
12.3378
12.3365
12.3352
12.3335
12.3315
12.3292
12.3262
12.3233
12.3192
12.3155
12.3099
12.3053
12.298
12.2932
12.2874
12.2834
12.2769
12.2726
12.2654
12.2608
12.2528
12.248
12.2393
12.2342
12.2246
12.2191
12.2086
12.2026
12.1909
12.1842
12.1708
12.1631
12.1467
12.137
12.1156
12.101
12.0714
12.0447
89.941
43.0152
29.1428
22.7659
19.1741
16.9485
15.4967
14.5214
13.8534
13.3893
13.0629
12.8312
12.6647
12.5447
12.4564
12.3923
12.3444
12.3095
12.283
12.2636
12.2491
12.2381
12.2302
12.2242
12.2201
12.2168
12.2148
12.2132
12.2125
12.2118
12.2116
12.2112
12.2114
12.2115
12.2115
12.2118
12.2118
12.2121
12.2122
12.2124
12.2127
12.2128
12.2128
12.2126
12.2125
12.2122
12.2119
12.2115
12.211
12.2103
12.2096
12.2085
12.2074
12.2058
12.2039
12.2018
12.1991
12.1963
12.1924
12.1888
12.1835
12.1789
12.1719
12.1673
12.1618
12.1577
12.1516
12.1473
12.1404
12.1358
12.1283
12.1234
12.1151
12.11
12.1008
12.0954
12.0851
12.0792
12.0678
12.0612
12.048
12.0402
12.0242
12.0143
11.9933
11.9794
11.9479
11.932
93.0924
45.9266
31.0514
24.116
20.1706
17.693
16.0482
14.9195
14.1284
13.5657
13.1609
12.8675
12.653
12.4958
12.3789
12.2929
12.2283
12.1807
12.1446
12.118
12.0981
12.0831
12.0722
12.0641
12.0585
12.0542
12.0515
12.0495
12.0485
12.0477
12.0476
12.0473
12.0476
12.0481
12.0482
12.0488
12.0491
12.0497
12.05
12.0504
12.051
12.0513
12.0514
12.0516
12.0514
12.0515
12.0514
12.0511
12.0507
12.0502
12.0498
12.0489
12.0479
12.0465
12.0448
12.0429
12.0403
12.0377
12.0341
12.0307
12.0257
12.0213
12.0148
12.0103
12.0052
12.0012
11.9955
11.9912
11.9849
11.9803
11.9732
11.9684
11.9605
11.9554
11.9467
11.9413
11.9315
11.9256
11.9145
11.9078
11.8949
11.8871
11.8714
11.8615
11.8411
11.8279
11.7957
11.7888
95.9467
48.9635
33.126
25.61
21.2927
18.552
16.707
15.4189
14.4977
13.828
13.3352
12.9698
12.6964
12.4916
12.3365
12.2196
12.1304
12.063
12.0113
11.9722
11.9422
11.9193
11.9022
11.889
11.8794
11.8719
11.8667
11.8627
11.86
11.858
11.8569
11.856
11.8556
11.8554
11.8553
11.8556
11.8556
11.8561
11.8563
11.8567
11.8572
11.8575
11.8576
11.8577
11.8575
11.8576
11.8575
11.8572
11.8569
11.8563
11.8561
11.8552
11.8543
11.853
11.8515
11.8496
11.8472
11.8447
11.8414
11.8381
11.8335
11.8292
11.8232
11.8188
11.8141
11.8102
11.8049
11.8006
11.7947
11.7902
11.7836
11.7787
11.7714
11.7661
11.758
11.7523
11.7431
11.7369
11.7263
11.7194
11.7068
11.6988
11.6835
11.6735
11.6542
11.642
11.6101
11.6101
98.3044
52.0714
35.3578
27.249
22.5418
19.5257
17.4727
16.0196
14.9634
14.1812
13.5939
13.1487
12.8083
12.5472
12.3451
12.1888
12.067
11.9723
11.8981
11.8402
11.7947
11.7589
11.731
11.7089
11.6918
11.6781
11.6676
11.6592
11.6529
11.6477
11.6439
11.6408
11.6384
11.6367
11.6352
11.6342
11.6332
11.6327
11.6322
11.6317
11.6315
11.6313
11.631
11.6306
11.6302
11.6298
11.6294
11.6289
11.6283
11.6276
11.6269
11.626
11.6249
11.6235
11.6218
11.6199
11.6176
11.615
11.6117
11.6084
11.604
11.5998
11.5941
11.5896
11.5852
11.5813
11.5764
11.5721
11.5666
11.5619
11.5557
11.5506
11.5438
11.5383
11.5306
11.5246
11.5159
11.5092
11.4992
11.4917
11.4798
11.4712
11.4567
11.4465
11.4283
11.4176
11.387
11.3903
99.8424
55.1606
37.7165
29.0218
23.9125
20.61
18.3416
16.7184
15.5232
14.6248
13.9387
13.4091
12.996
12.6723
12.4164
12.2139
12.0523
11.9235
11.82
11.7371
11.6702
11.6159
11.5722
11.5366
11.5077
11.4839
11.4647
11.4487
11.4358
11.4249
11.416
11.4086
11.4024
11.3972
11.3927
11.389
11.3857
11.383
11.3806
11.3784
11.3766
11.3749
11.3734
11.3719
11.3705
11.3691
11.3678
11.3665
11.3651
11.3637
11.3623
11.3608
11.3591
11.3573
11.3552
11.3529
11.3502
11.3473
11.3438
11.3402
11.3358
11.3312
11.3255
11.3209
11.3166
11.3125
11.3078
11.3033
11.298
11.293
11.2871
11.2817
11.2752
11.2693
11.2619
11.2554
11.2471
11.2399
11.2303
11.2222
11.2108
11.2017
11.1881
11.1777
11.161
11.1509
11.1243
11.129
100.084
58.0796
40.1324
30.8925
25.3829
21.7896
19.3013
17.5048
16.1682
15.1515
14.3647
13.748
13.2593
12.8693
12.5553
12.3016
12.0951
11.9268
11.7886
11.675
11.5813
11.5035
11.4389
11.3849
11.3399
11.3018
11.2699
11.2427
11.2198
11.2
11.1832
11.1687
11.1561
11.1452
11.1357
11.1273
11.1198
11.1132
11.1074
11.1021
11.0973
11.093
11.0891
11.0853
11.0819
11.0787
11.0756
11.0726
11.0698
11.067
11.0642
11.0615
11.0587
11.0558
11.0527
11.0495
11.046
11.0423
11.0381
11.0338
11.0288
11.0236
11.0175
11.0124
11.0079
11.0035
10.9986
10.9937
10.9883
10.983
10.9771
10.9713
10.9647
10.9584
10.9511
10.9441
10.9359
10.9281
10.9187
10.9101
10.8992
10.8897
10.8769
10.8667
10.8513
10.8419
10.8188
10.8241
98.2696
60.5673
42.4643
32.7785
26.8992
23.0259
20.3224
18.3549
16.8784
15.7443
14.8571
14.1534
13.5883
13.1308
12.7569
12.4497
12.1955
11.9842
11.8077
11.6597
11.535
11.4294
11.3399
11.2634
11.1982
11.1419
11.0935
11.0515
11.0151
10.9832
10.9554
10.9308
10.9091
10.8899
10.8728
10.8575
10.8437
10.8313
10.8201
10.8098
10.8005
10.7919
10.7841
10.7768
10.7701
10.7637
10.7578
10.7521
10.7467
10.7416
10.7366
10.7317
10.727
10.7222
10.7175
10.7126
10.7076
10.7025
10.697
10.6914
10.6853
10.6788
10.6717
10.6658
10.6608
10.6557
10.6503
10.6448
10.639
10.6331
10.6269
10.6205
10.6137
10.6068
10.5992
10.5917
10.5833
10.5751
10.5657
10.5567
10.5462
10.5365
10.5244
10.5144
10.5004
10.4916
10.4714
10.4767
93.2703
62.1635
44.4386
34.5123
28.3479
24.2365
21.3414
19.2177
17.6111
16.3668
15.3846
14.5978
13.9593
13.4362
13.0035
12.6432
12.3409
12.0859
11.8696
11.6853
11.5276
11.3917
11.2746
11.1729
11.0845
11.0071
10.9393
10.8795
10.8267
10.7799
10.7382
10.7009
10.6675
10.6375
10.6104
10.5858
10.5635
10.5431
10.5246
10.5075
10.4919
10.4774
10.464
10.4515
10.44
10.4291
10.419
10.4094
10.4004
10.3917
10.3835
10.3755
10.3678
10.3603
10.3529
10.3457
10.3383
10.331
10.3234
10.3158
10.3078
10.2995
10.2907
10.2834
10.2774
10.2713
10.2651
10.2588
10.2522
10.2455
10.2386
10.2315
10.224
10.2164
10.2084
10.2003
10.1916
10.1829
10.1734
10.1641
10.1537
10.144
10.1326
10.1228
10.11
10.1018
10.0838
10.0887
83.4915
62.2005
45.5397
35.7662
29.506
25.259
22.2331
19.9923
18.2828
16.948
15.8856
15.0272
14.3242
13.7425
13.2565
12.8472
12.4999
12.2035
11.949
11.7292
11.5387
11.3725
11.2272
11.0993
10.9866
10.8867
10.7979
10.7187
10.6478
10.5841
10.5267
10.4748
10.4277
10.385
10.346
10.3103
10.2777
10.2476
10.22
10.1944
10.1708
10.1489
10.1285
10.1095
10.0918
10.0751
10.0595
10.0447
10.0308
10.0176
10.0049
9.9929
9.98129
9.97011
9.9592
9.94858
9.93807
9.92771
9.91729
9.90688
9.89622
9.88542
9.87417
9.86499
9.85763
9.85023
9.84274
9.83519
9.82752
9.81974
9.8118
9.80373
9.79544
9.78701
9.7783
9.76947
9.76029
9.75104
9.74136
9.73175
9.72151
9.71173
9.70087
9.69137
9.67953
9.67127
9.65587
9.65982
68.6088
58.175
44.8739
35.982
29.9747
25.794
22.7628
20.4888
18.7357
17.3537
16.2441
15.3394
14.592
13.9678
13.4414
12.9938
12.6103
12.2795
11.9924
11.7419
11.5223
11.3287
11.1575
11.0052
10.8694
10.7477
10.6385
10.5399
10.4508
10.37
10.2965
10.2294
10.168
10.1117
10.0601
10.0124
9.96848
9.92779
9.89012
9.85508
9.82253
9.79214
9.76379
9.73722
9.71234
9.68894
9.66691
9.64611
9.62643
9.60776
9.58998
9.57302
9.55674
9.5411
9.52595
9.51127
9.49689
9.48282
9.46886
9.45504
9.44112
9.42715
9.41288
9.40136
9.39223
9.38315
9.37408
9.36502
9.35593
9.34681
9.33762
9.32837
9.31902
9.30959
9.30002
9.29039
9.28059
9.27077
9.26075
9.25082
9.24059
9.23074
9.22023
9.21089
9.19971
9.19192
9.17739
9.1808
48.587
47.5543
41.0909
34.1966
29.0736
25.339
22.538
20.3883
18.7025
17.355
16.2598
15.3569
14.6033
13.9676
13.4261
12.961
12.5586
12.2081
11.9009
11.6301
11.3903
11.1769
10.9862
10.815
10.6609
10.5215
10.3952
10.2803
10.1755
10.0796
9.99174
9.91092
9.83648
9.76773
9.70415
9.64519
9.59046
9.53953
9.49209
9.4478
9.40641
9.36764
9.33131
9.29716
9.26505
9.23478
9.20621
9.17919
9.15356
9.12923
9.10605
9.08393
9.06272
9.04236
9.02269
9.00367
8.98514
8.96707
8.94927
8.93172
8.91423
8.89679
8.87918
8.86505
8.85396
8.84301
8.83217
8.82144
8.81077
8.80017
8.78961
8.77908
8.76856
8.75806
8.74756
8.73709
8.72661
8.71621
8.70579
8.69553
8.68519
8.67523
8.66491
8.65563
8.64487
8.63741
8.62342
8.62644
24.7382
31.9583
31.4404
29.0613
25.7749
23.1109
20.9319
19.1746
17.7475
16.5755
15.6023
14.7854
14.0926
13.4995
12.9877
12.5424
12.1525
11.8089
11.5044
11.233
10.9901
10.7718
10.5747
10.3961
10.2338
10.0858
9.9505
9.82637
9.71227
9.60711
9.51
9.42012
9.33679
9.25936
9.18734
9.1202
9.05754
8.99896
8.94414
8.89274
8.84451
8.79918
8.75652
8.71633
8.6784
8.64256
8.60864
8.57648
8.54594
8.51688
8.48916
8.46267
8.43727
8.41286
8.38931
8.36653
8.34438
8.32279
8.3016
8.28076
8.26009
8.23954
8.21893
8.20246
8.18961
8.17699
8.16458
8.15236
8.1403
8.12841
8.11666
8.10505
8.09356
8.0822
8.07095
8.05986
8.04888
8.03808
8.02741
8.01697
8.00661
7.99666
7.98654
7.9774
7.96702
7.95994
7.94635
7.94913
10.939
15.8771
18.8002
19.5971
19.2345
18.3601
17.2527
16.2387
15.3323
14.5352
13.8395
13.2319
12.6996
12.2312
11.8171
11.4491
11.1206
10.826
10.5606
10.3206
10.1028
9.90445
9.72326
9.55724
9.40474
9.26429
9.13467
9.01475
8.90363
8.80043
8.70446
8.61503
8.53161
8.45365
8.38072
8.31239
8.24833
8.18816
8.13162
8.07841
8.0283
7.98104
7.93642
7.89426
7.85437
7.81657
7.78071
7.74664
7.71421
7.6833
7.65376
7.62549
7.59835
7.57222
7.54701
7.52259
7.49885
7.47569
7.453
7.43067
7.40858
7.38665
7.36473
7.3473
7.33375
7.32049
7.30751
7.29479
7.28233
7.27009
7.25809
7.24631
7.23474
7.2234
7.21227
7.20137
7.19069
7.18026
7.17005
7.16014
7.15041
7.14108
7.13174
7.12324
7.11382
7.1073
7.09498
7.09718
7.49824
8.42518
9.75472
10.8657
11.5193
11.8139
11.7784
11.6532
11.4041
11.1151
10.8204
10.53
10.2519
9.98948
9.74404
9.51546
9.30316
9.10615
8.9234
8.75378
8.5963
8.44992
8.31376
8.18695
8.06873
7.9584
7.85532
7.7589
7.66864
7.58404
7.50469
7.43018
7.36016
7.2943
7.23231
7.17391
7.11887
7.06693
7.0179
6.97157
6.92778
6.88633
6.84709
6.80988
6.77459
6.74106
6.70918
6.67881
6.64986
6.6222
6.59573
6.57034
6.54595
6.52244
6.49973
6.47771
6.45631
6.4354
6.41496
6.39482
6.37497
6.35526
6.33567
6.32024
6.30832
6.29672
6.28541
6.27439
6.26366
6.2532
6.243
6.23307
6.2234
6.214
6.20485
6.19596
6.18734
6.17898
6.17088
6.16305
6.15546
6.14819
6.14106
6.13444
6.12744
6.12229
6.11306
6.11423
6.67277
6.79361
7.06177
7.4285
7.73378
7.99589
8.13638
8.23026
8.23035
8.20825
8.15392
8.06983
7.974
7.87059
7.76348
7.65541
7.54832
7.44348
7.34177
7.2437
7.1496
7.05961
6.97379
6.89209
6.81444
6.74069
6.67072
6.60434
6.54142
6.48176
6.42521
6.3716
6.32079
6.27261
6.22694
6.18362
6.14254
6.10357
6.06659
6.03149
5.99817
5.96652
5.93644
5.90784
5.88064
5.85473
5.83006
5.80651
5.78405
5.76256
5.74201
5.72229
5.70338
5.68517
5.66765
5.65068
5.63431
5.61837
5.60293
5.58779
5.57309
5.55855
5.54442
5.53361
5.52541
5.51753
5.50996
5.50271
5.49575
5.48908
5.48269
5.47657
5.47071
5.46511
5.45976
5.45465
5.44976
5.4451
5.44066
5.43642
5.43237
5.4285
5.42481
5.42129
5.41788
5.41479
5.41112
5.41069
6.38444
6.39123
6.43144
6.53287
6.65724
6.79341
6.89665
6.97643
7.02508
7.03839
7.03322
7.01756
6.98304
6.93619
6.8812
6.82074
6.75685
6.69108
6.62462
6.55837
6.493
6.42899
6.36668
6.30632
6.24805
6.19195
6.13808
6.08643
6.03698
5.98969
5.94452
5.90139
5.86025
5.82102
5.78362
5.74799
5.71405
5.68172
5.65094
5.62164
5.59374
5.56718
5.5419
5.51781
5.49489
5.47305
5.45225
5.43243
5.41354
5.39553
5.37837
5.36198
5.34637
5.33144
5.31723
5.3036
5.29065
5.27819
5.26638
5.25497
5.24422
5.23372
5.22396
5.21678
5.2115
5.20655
5.20193
5.19761
5.19357
5.1898
5.18629
5.183
5.17994
5.17707
5.1744
5.1719
5.16957
5.16739
5.16533
5.1634
5.16158
5.15987
5.15825
5.1567
5.15523
5.15383
5.15244
5.15136
6.37277
6.37631
6.4088
6.50357
6.62503
6.76113
6.86816
6.94711
7.00034
7.01744
7.01388
7.00101
6.97022
6.92572
6.8728
6.81415
6.75183
6.68739
6.62208
6.55681
6.49228
6.42898
6.36728
6.30744
6.24961
6.1939
6.14035
6.08898
6.03977
5.99269
5.94769
5.9047
5.86369
5.82455
5.78725
5.75169
5.71781
5.68554
5.65481
5.62554
5.59769
5.57117
5.54593
5.5219
5.49904
5.47727
5.45657
5.43687
5.41815
5.40034
5.38343
5.36734
5.35208
5.33758
5.32386
5.31082
5.29854
5.28687
5.27595
5.26555
5.25593
5.24673
5.23837
5.23254
5.22839
5.22463
5.22122
5.21815
5.2154
5.21294
5.21076
5.20881
5.20709
5.20554
5.20418
5.20297
5.20187
5.20127
5.1988
5.19844
5.19754
5.19687
5.19645
5.1952
5.19506
5.19492
5.19493
5.19492
6.63347
6.73731
6.95873
7.31646
7.60563
7.87542
8.02912
8.12409
8.14868
8.13397
8.09334
8.0202
7.93422
7.83917
7.73912
7.63702
7.53498
7.43442
7.33632
7.2413
7.14979
7.062
6.97804
6.89792
6.82161
6.74901
6.68
6.61444
6.55221
6.49313
6.43707
6.38388
6.33341
6.28552
6.24009
6.19698
6.15607
6.11725
6.08042
6.04546
6.01228
5.9808
5.95092
5.92258
5.89568
5.87018
5.84599
5.82306
5.80135
5.78079
5.76136
5.74301
5.72573
5.70946
5.69421
5.67991
5.66662
5.65422
5.64282
5.63227
5.62272
5.61398
5.60622
5.60133
5.59798
5.59524
5.59279
5.59091
5.58936
5.58809
5.58741
5.58561
5.58496
5.58407
5.58317
5.58124
5.58053
5.5805
5.57929
5.5792
5.5804
5.5818
5.58319
5.58469
5.58617
5.58799
5.58883
5.58918
7.38281
8.23313
9.38087
10.5282
11.1743
11.5447
11.5346
11.4448
11.2488
10.9888
10.7187
10.4483
10.1867
9.9379
9.70368
9.48441
9.27981
9.08921
8.91179
8.74665
8.59289
8.44963
8.31608
8.19147
8.07509
7.96629
7.86449
7.76914
7.67977
7.5959
7.51715
7.44312
7.3735
7.30795
7.24621
7.188
7.13311
7.0813
7.03239
6.98619
6.94252
6.90125
6.86223
6.82534
6.79045
6.75747
6.7263
6.69685
6.66905
6.64283
6.61813
6.59489
6.57308
6.55265
6.5336
6.51584
6.49942
6.48424
6.47039
6.45771
6.44636
6.4361
6.42719
6.4215
6.4178
6.41469
6.41211
6.4101
6.40862
6.40745
6.40671
6.40593
6.40539
6.40476
6.40391
6.40318
6.4018
6.40198
6.40267
6.40384
6.40533
6.40707
6.40884
6.41076
6.41256
6.41463
6.41655
6.41611
10.3543
14.8543
17.6199
18.8033
18.5569
17.8847
16.8991
15.9667
15.1252
14.3751
13.7148
13.1341
12.6226
12.1705
11.7693
11.4116
11.0912
10.8031
10.543
10.3072
10.0927
9.89693
9.71778
9.55335
9.40205
9.26249
9.13349
9.01399
8.9031
8.8
8.70398
8.61443
8.53079
8.45256
8.37931
8.31063
8.24618
8.18564
8.12872
8.07516
8.02472
7.97721
7.93241
7.89018
7.85034
7.81276
7.77731
7.7439
7.7124
7.68274
7.65483
7.62863
7.60405
7.58106
7.55962
7.53967
7.52122
7.50419
7.48859
7.47438
7.46154
7.45005
7.43985
7.43327
7.4289
7.4251
7.42205
7.41942
7.41734
7.41602
7.41462
7.41338
7.41182
7.41092
7.4093
7.4084
7.40663
7.40626
7.40618
7.40701
7.40809
7.41048
7.41074
7.41221
7.4139
7.41628
7.41674
7.41647
22.4668
29.9093
29.8562
28.2076
25.2005
22.7264
20.6696
18.9901
17.618
16.4849
15.5401
14.7438
14.0664
13.4849
12.9816
12.5427
12.1574
11.8171
11.5148
11.2449
11.0028
10.7847
10.5875
10.4085
10.2455
10.0966
9.96013
9.83482
9.71943
9.61293
9.51443
9.42313
9.33837
9.25952
9.18607
9.11753
9.0535
8.99359
8.93749
8.88488
8.83551
8.78915
8.74555
8.70457
8.66599
8.62969
8.59551
8.56337
8.53311
8.50467
8.47795
8.4529
8.42944
8.40752
8.38709
8.36812
8.35057
8.3344
8.3196
8.30612
8.29394
8.28306
8.27337
8.26713
8.26293
8.25933
8.25639
8.25377
8.25212
8.25008
8.24744
8.24591
8.24493
8.24424
8.24417
8.24221
8.24179
8.24134
8.2413
8.2413
8.24243
8.2441
8.24599
8.24724
8.24784
8.24955
8.24977
8.24942
45.2008
45.1582
39.9799
33.6141
28.742
25.1486
22.4339
20.3366
18.6852
17.3604
16.2807
15.3881
14.6413
14.0097
13.4705
13.0063
12.6038
12.2524
11.9437
11.671
11.429
11.2131
11.0197
10.8457
10.6887
10.5465
10.4173
10.2995
10.1918
10.0931
10.0025
9.91893
9.84184
9.77052
9.70445
9.64308
9.58603
9.53288
9.48331
9.43701
9.39372
9.35319
9.31522
9.27962
9.24621
9.21487
9.18542
9.1578
9.13186
9.10755
9.08476
9.06345
9.04353
9.025
9.00775
8.99182
8.97709
8.96364
8.95132
8.94023
8.93021
8.92141
8.91356
8.90873
8.90548
8.9028
8.90063
8.89881
8.89738
8.8964
8.89574
8.89526
8.89504
8.89478
8.89469
8.89448
8.89462
8.89358
8.89372
8.89314
8.89316
8.89396
8.89513
8.89658
8.89765
8.8996
8.90013
8.89994
64.9617
56.4225
44.1936
35.7155
29.8836
25.7887
22.8049
20.5564
18.8173
17.4422
16.3355
15.4308
14.6819
14.0547
13.5247
13.0728
12.6847
12.349
12.057
11.8015
11.5767
11.3781
11.2019
11.0448
10.9042
10.778
10.6642
10.5613
10.4681
10.3832
10.3057
10.2349
10.1699
10.1102
10.0552
10.0044
9.95742
9.91385
9.87344
9.83582
9.80083
9.76818
9.73771
9.70925
9.68263
9.65774
9.63443
9.61264
9.59224
9.5732
9.55539
9.53885
9.5234
9.50916
9.49591
9.48386
9.47267
9.4627
9.4535
9.4455
9.43826
9.43214
9.42679
9.42376
9.42184
9.42009
9.41879
9.41641
9.41486
9.41439
9.41506
9.41414
9.41529
9.41513
9.41547
9.41664
9.41822
9.4197
9.42111
9.42256
9.42403
9.42559
9.42719
9.42889
9.4305
9.43235
9.43353
9.4336
79.9371
61.3013
45.2752
35.7616
29.6023
25.3948
22.3849
20.1475
18.4357
17.095
16.0254
15.1585
14.4471
13.8564
13.3617
12.9437
12.5881
12.2834
12.0209
11.7936
11.5956
11.4224
11.2702
11.1359
11.0169
10.9111
10.8167
10.732
10.656
10.5873
10.5253
10.4689
10.4177
10.3709
10.3281
10.2888
10.2528
10.2195
10.1888
10.1604
10.1341
10.1096
10.087
10.0658
10.0462
10.0278
10.0108
9.99488
9.98006
9.96631
9.9535
9.9417
9.93072
9.92074
9.91146
9.90325
9.89556
9.88908
9.88296
9.87808
9.87358
9.87019
9.86734
9.86535
9.86466
9.86287
9.86377
9.86305
9.86305
9.86398
9.86527
9.86644
9.86778
9.86925
9.8708
9.87247
9.87424
9.87608
9.87799
9.87994
9.88193
9.88392
9.88595
9.88793
9.88996
9.8919
9.89371
9.89397
90.4194
61.7178
44.4779
34.7023
28.5788
24.4708
21.5673
19.43
17.8083
16.5482
15.5509
14.749
14.0966
13.5598
13.1145
12.7419
12.4282
12.1623
11.9358
11.7419
11.5749
11.4305
11.3052
11.1959
11.1003
11.0161
10.9419
10.8761
10.8177
10.7655
10.7189
10.6769
10.6391
10.6048
10.5738
10.5455
10.5198
10.4961