/*--------------------------------*- C++ -*----------------------------------*\
| =========                 |                                                 |
| \\      /  F ield         | OpenFOAM: The Open Source CFD Toolbox           |
|  \\    /   O peration     | Version:  2306                                  |
|   \\  /    A nd           | Website:  www.openfoam.com                      |
|    \\/     M anipulation  |                                                 |
\*---------------------------------------------------------------------------*/
FoamFile
{
    version     2.0;
    format      ascii;
    arch        "LSB;label=32;scalar=64";
    class       volScalarField;
    location    "1800";
    object      nut;
}
// * * * * * * * * * * * * * * * * * * * * * * * * * * * * * * * * * * * * * //

dimensions      [0 2 -1 0 0 0 0];

internalField   nonuniform List<scalar> 
20540
(
0.0313941
0.0983607
0.0207606
0.071586
0.0178342
0.0645676
0.0164336
0.0607431
0.0155162
0.0577349
0.0148498
0.0552844
0.0143564
0.0532985
0.0139924
0.0516766
0.0137275
0.0503312
0.0135376
0.049192
0.0134018
0.0482005
0.0133008
0.0473063
0.0132149
0.0464645
0.0131226
0.0456331
0.0130001
0.0447721
0.0128199
0.0438416
0.0125515
0.0427975
0.0121654
0.041584
0.0116428
0.0401213
0.0109916
0.0383013
0.0102222
0.0360302
0.00935183
0.0332467
0.00855096
0.0298961
0.00839519
0.0259634
0.0105618
0.021462
0.0200047
0.0164509
0.0135845
0.0117171
0.0125128
0.0104393
0.0155708
0.0192917
0.021294
0.0239318
0.0265024
0.0250087
0.0285038
0.0267591
0.0284994
0.0267832
0.0265488
0.0250027
0.0216194
0.0238775
0.0161137
0.0199215
0.0129379
0.0102878
0.0136579
0.010861
0.0195558
0.0153309
0.01089
0.020224
0.0084215
0.024597
0.00845294
0.0284227
0.00922969
0.0316917
0.0101246
0.034408
0.0109389
0.0366156
0.0116407
0.0383706
0.0122078
0.0397721
0.0126298
0.0409289
0.0129249
0.0419191
0.0131224
0.0427967
0.0132525
0.0436008
0.0133426
0.0443651
0.0134164
0.045122
0.0134945
0.0459057
0.0135955
0.0467527
0.013737
0.0477031
0.0139371
0.0488028
0.0142154
0.0501055
0.0145958
0.0516772
0.0151092
0.0536018
0.0158005
0.0559793
0.0167502
0.0589075
0.0181866
0.0626279
0.0211319
0.0693118
0.031731
0.0945141
2.06918e-05
1.61503e-05
1.52692e-05
1.47634e-05
1.44439e-05
1.42318e-05
1.4082e-05
1.39712e-05
1.38869e-05
1.38213e-05
1.37692e-05
1.37273e-05
1.36931e-05
1.36651e-05
1.36417e-05
1.36223e-05
1.36059e-05
1.35922e-05
1.35804e-05
1.35704e-05
1.35619e-05
1.35545e-05
1.35481e-05
1.35426e-05
1.35379e-05
1.35337e-05
1.353e-05
1.35268e-05
1.3524e-05
1.35215e-05
1.35193e-05
1.35174e-05
1.35156e-05
1.35141e-05
1.35126e-05
1.35114e-05
1.35103e-05
1.35093e-05
1.35084e-05
1.35077e-05
1.3507e-05
1.35065e-05
1.35061e-05
1.35058e-05
1.35056e-05
1.35056e-05
1.35057e-05
1.35061e-05
1.35067e-05
1.35075e-05
1.35086e-05
1.351e-05
1.35118e-05
1.3514e-05
1.35167e-05
1.35199e-05
1.35237e-05
1.35282e-05
1.35333e-05
1.35394e-05
1.35463e-05
1.35544e-05
1.35635e-05
1.35724e-05
1.358e-05
1.35882e-05
1.35965e-05
1.36056e-05
1.36149e-05
1.36249e-05
1.36351e-05
1.36461e-05
1.36573e-05
1.36693e-05
1.36817e-05
1.3695e-05
1.37088e-05
1.37234e-05
1.37387e-05
1.37545e-05
1.37721e-05
1.37881e-05
1.38128e-05
1.38227e-05
1.38621e-05
1.38879e-05
1.39035e-05
1.38312e-05
4.63562e-05
1.71122e-05
1.37754e-05
1.2242e-05
1.13967e-05
1.08742e-05
1.05276e-05
1.02823e-05
1.01006e-05
9.96218e-06
9.8542e-06
9.76845e-06
9.69923e-06
9.64298e-06
9.59634e-06
9.55796e-06
9.52562e-06
9.49869e-06
9.47567e-06
9.45625e-06
9.43968e-06
9.42537e-06
9.41312e-06
9.40251e-06
9.39337e-06
9.38532e-06
9.37837e-06
9.3722e-06
9.36687e-06
9.36209e-06
9.3579e-06
9.35413e-06
9.35082e-06
9.34774e-06
9.34501e-06
9.34265e-06
9.3404e-06
9.33843e-06
9.33653e-06
9.33486e-06
9.33338e-06
9.332e-06
9.33072e-06
9.32953e-06
9.32846e-06
9.32736e-06
9.32654e-06
9.32566e-06
9.32483e-06
9.32404e-06
9.32333e-06
9.32256e-06
9.32192e-06
9.32124e-06
9.32049e-06
9.31979e-06
9.31891e-06
9.31815e-06
9.317e-06
9.31603e-06
9.3144e-06
9.31305e-06
9.31082e-06
9.30908e-06
9.30714e-06
9.3058e-06
9.30318e-06
9.30106e-06
9.29755e-06
9.2946e-06
9.29008e-06
9.28611e-06
9.27987e-06
9.27512e-06
9.26628e-06
9.26107e-06
9.2479e-06
9.2427e-06
9.22149e-06
9.21842e-06
9.18256e-06
9.18389e-06
9.12784e-06
9.10851e-06
9.03724e-06
9.01604e-06
8.74669e-06
8.8419e-06
0.000128323
4.26665e-05
3.40242e-05
3.02688e-05
2.8243e-05
2.69979e-05
2.61734e-05
2.559e-05
2.51575e-05
2.48274e-05
2.45697e-05
2.43647e-05
2.41991e-05
2.40644e-05
2.39526e-05
2.38606e-05
2.3783e-05
2.37184e-05
2.36631e-05
2.36164e-05
2.35766e-05
2.35423e-05
2.35128e-05
2.34873e-05
2.34654e-05
2.3446e-05
2.34294e-05
2.34145e-05
2.34017e-05
2.33902e-05
2.33802e-05
2.33711e-05
2.33631e-05
2.33557e-05
2.33492e-05
2.33435e-05
2.33381e-05
2.33334e-05
2.33288e-05
2.33247e-05
2.33211e-05
2.33178e-05
2.33147e-05
2.33117e-05
2.3309e-05
2.33063e-05
2.33042e-05
2.33019e-05
2.32997e-05
2.32975e-05
2.32955e-05
2.32933e-05
2.32913e-05
2.32891e-05
2.32866e-05
2.32842e-05
2.32812e-05
2.32783e-05
2.32743e-05
2.32707e-05
2.32651e-05
2.32602e-05
2.32527e-05
2.32466e-05
2.32401e-05
2.32351e-05
2.3227e-05
2.32201e-05
2.32096e-05
2.32007e-05
2.31878e-05
2.31765e-05
2.31595e-05
2.31465e-05
2.31231e-05
2.31093e-05
2.30754e-05
2.30624e-05
2.30096e-05
2.30036e-05
2.29165e-05
2.29252e-05
2.27945e-05
2.27596e-05
2.26019e-05
2.25809e-05
2.21183e-05
2.14531e-05
0.000299149
9.12001e-05
7.09885e-05
6.32518e-05
5.94136e-05
5.71653e-05
5.57222e-05
5.47238e-05
5.39943e-05
5.3443e-05
5.30156e-05
5.26777e-05
5.24057e-05
5.21853e-05
5.20027e-05
5.18531e-05
5.17269e-05
5.16223e-05
5.15327e-05
5.14574e-05
5.13932e-05
5.13378e-05
5.12904e-05
5.12494e-05
5.12142e-05
5.11831e-05
5.11564e-05
5.11326e-05
5.11122e-05
5.10937e-05
5.10778e-05
5.10632e-05
5.10504e-05
5.10385e-05
5.1028e-05
5.1019e-05
5.10102e-05
5.10026e-05
5.09951e-05
5.09885e-05
5.09826e-05
5.0977e-05
5.09717e-05
5.09666e-05
5.09619e-05
5.09568e-05
5.09526e-05
5.09481e-05
5.09435e-05
5.09386e-05
5.09337e-05
5.0928e-05
5.09224e-05
5.0916e-05
5.09086e-05
5.09007e-05
5.08911e-05
5.08812e-05
5.08683e-05
5.08553e-05
5.0838e-05
5.08208e-05
5.07978e-05
5.07784e-05
5.07592e-05
5.07425e-05
5.07199e-05
5.06997e-05
5.06724e-05
5.06484e-05
5.06165e-05
5.05883e-05
5.05491e-05
5.05185e-05
5.04684e-05
5.04372e-05
5.03698e-05
5.03419e-05
5.02438e-05
5.02315e-05
5.00789e-05
5.00957e-05
4.98809e-05
4.98445e-05
4.95955e-05
4.96415e-05
4.91442e-05
4.80222e-05
0.000577054
0.000167049
0.000123385
0.000108069
0.000101123
9.73172e-05
9.49905e-05
9.34417e-05
9.23406e-05
9.15249e-05
9.09022e-05
9.04157e-05
9.00278e-05
8.97161e-05
8.94592e-05
8.92502e-05
8.90746e-05
8.89299e-05
8.88061e-05
8.87028e-05
8.86149e-05
8.85391e-05
8.84746e-05
8.8419e-05
8.83714e-05
8.83293e-05
8.82934e-05
8.82613e-05
8.82339e-05
8.8209e-05
8.81877e-05
8.81681e-05
8.81509e-05
8.81348e-05
8.81208e-05
8.81087e-05
8.80967e-05
8.80864e-05
8.8076e-05
8.80667e-05
8.80586e-05
8.80506e-05
8.80429e-05
8.80351e-05
8.80277e-05
8.80195e-05
8.80121e-05
8.80041e-05
8.79955e-05
8.79857e-05
8.79753e-05
8.79631e-05
8.79502e-05
8.79351e-05
8.79175e-05
8.7898e-05
8.78744e-05
8.78492e-05
8.78177e-05
8.77847e-05
8.77425e-05
8.76993e-05
8.7644e-05
8.75969e-05
8.75519e-05
8.75106e-05
8.74593e-05
8.74122e-05
8.73528e-05
8.7299e-05
8.72321e-05
8.7172e-05
8.70936e-05
8.70302e-05
8.69361e-05
8.68733e-05
8.6755e-05
8.66993e-05
8.65412e-05
8.65088e-05
8.62856e-05
8.62937e-05
8.59943e-05
8.59541e-05
8.56477e-05
8.57412e-05
8.53809e-05
8.48836e-05
0.000969945
0.000280376
0.000195188
0.000165857
0.000153338
0.000146898
0.000143163
0.00014079
0.000139165
0.000137996
0.000137124
0.000136456
0.000135932
0.000135516
0.000135176
0.000134904
0.000134676
0.00013449
0.000134332
0.000134201
0.00013409
0.000133995
0.000133915
0.000133846
0.000133787
0.000133735
0.000133692
0.000133652
0.000133619
0.000133589
0.000133563
0.000133539
0.000133519
0.000133499
0.000133482
0.000133467
0.000133453
0.00013344
0.000133427
0.000133415
0.000133405
0.000133395
0.000133385
0.000133374
0.000133363
0.000133352
0.00013334
0.000133327
0.000133314
0.000133298
0.00013328
0.000133259
0.000133236
0.000133209
0.000133177
0.000133141
0.000133098
0.000133051
0.000132993
0.000132932
0.000132856
0.000132776
0.000132676
0.000132591
0.000132512
0.000132437
0.000132347
0.000132264
0.000132163
0.000132071
0.000131959
0.000131858
0.000131732
0.000131627
0.000131483
0.00013138
0.00013121
0.000131114
0.000130908
0.000130832
0.000130576
0.000130536
0.000130219
0.000130143
0.000129891
0.000129966
0.000129905
0.000129003
0.00148901
0.0004453
0.000295199
0.000241438
0.000218991
0.000207938
0.000201811
0.000198092
0.00019565
0.000193955
0.000192728
0.000191813
0.00019111
0.000190564
0.000190125
0.000189778
0.000189492
0.000189263
0.000189069
0.000188911
0.000188779
0.000188666
0.000188572
0.000188491
0.000188424
0.000188364
0.000188315
0.00018827
0.000188233
0.000188199
0.000188171
0.000188144
0.000188121
0.000188099
0.00018808
0.000188064
0.000188047
0.000188034
0.000188018
0.000188005
0.000187993
0.000187981
0.000187969
0.000187955
0.000187942
0.000187926
0.00018791
0.000187892
0.000187874
0.000187851
0.000187825
0.000187794
0.00018776
0.000187719
0.000187671
0.000187617
0.000187551
0.00018748
0.000187393
0.0001873
0.000187184
0.000187064
0.000186915
0.000186788
0.000186671
0.00018656
0.000186429
0.000186308
0.000186163
0.00018603
0.000185874
0.000185731
0.00018556
0.000185413
0.000185227
0.000185079
0.000184877
0.000184728
0.000184515
0.000184366
0.000184143
0.000184008
0.000183802
0.000183606
0.000183629
0.000183473
0.000184256
0.000181307
0.00215217
0.00067757
0.000436379
0.000342909
0.000303342
0.000284227
0.00027394
0.000267916
0.000264113
0.000261568
0.000259789
0.000258502
0.000257542
0.000256817
0.000256245
0.000255807
0.00025545
0.000255172
0.00025494
0.000254754
0.000254602
0.000254474
0.000254369
0.000254281
0.000254209
0.000254144
0.000254093
0.000254046
0.000254009
0.000253975
0.000253947
0.00025392
0.000253898
0.000253875
0.000253856
0.000253841
0.000253824
0.00025381
0.000253794
0.00025378
0.000253768
0.000253756
0.000253742
0.000253726
0.000253711
0.000253693
0.000253673
0.00025365
0.000253628
0.000253597
0.000253565
0.000253524
0.000253479
0.000253426
0.000253361
0.000253289
0.000253202
0.000253108
0.000252991
0.000252868
0.000252714
0.000252556
0.000252359
0.000252193
0.000252042
0.000251898
0.00025173
0.000251575
0.000251393
0.000251225
0.000251034
0.000250853
0.000250652
0.000250466
0.000250264
0.000250072
0.000249876
0.000249664
0.000249492
0.000249272
0.000249142
0.000248903
0.00024893
0.000248547
0.000249008
0.000248519
0.000250489
0.000244798
0.00298202
0.000993106
0.00063519
0.000481905
0.000414229
0.000381352
0.000363849
0.000353816
0.000347662
0.000343671
0.000340969
0.000339076
0.000337708
0.000336705
0.000335938
0.000335368
0.000334916
0.000334575
0.000334296
0.000334081
0.00033391
0.000333769
0.000333657
0.000333566
0.000333495
0.000333432
0.000333385
0.000333341
0.00033331
0.000333279
0.000333257
0.000333234
0.000333216
0.000333198
0.000333182
0.000333171
0.000333156
0.000333146
0.000333131
0.000333119
0.000333109
0.000333098
0.000333085
0.000333069
0.000333053
0.000333034
0.000333013
0.000332986
0.000332961
0.000332925
0.000332889
0.00033284
0.000332789
0.000332725
0.000332648
0.000332562
0.000332457
0.000332345
0.000332204
0.000332057
0.000331874
0.000331687
0.000331454
0.000331258
0.000331084
0.000330915
0.000330724
0.000330547
0.000330342
0.000330151
0.000329944
0.000329739
0.000329535
0.000329324
0.000329137
0.00032892
0.000328759
0.000328532
0.00032842
0.00032818
0.000328182
0.000327871
0.000328193
0.000327612
0.000328644
0.000327818
0.000331265
0.000323112
0.00400361
0.00140775
0.000910514
0.000673953
0.000562819
0.000507369
0.000477627
0.00046066
0.000450406
0.000443891
0.000439582
0.000436642
0.000434575
0.000433103
0.000432011
0.000431224
0.00043062
0.000430181
0.000429834
0.000429578
0.000429383
0.000429227
0.000429112
0.000429022
0.000428958
0.000428902
0.000428866
0.000428833
0.000428814
0.000428795
0.000428786
0.000428772
0.000428765
0.000428756
0.000428749
0.000428747
0.000428738
0.000428735
0.000428726
0.000428719
0.000428715
0.000428709
0.0004287
0.000428687
0.000428673
0.000428656
0.000428637
0.00042861
0.000428586
0.000428548
0.000428512
0.00042846
0.000428407
0.000428339
0.000428256
0.000428166
0.00042805
0.000427931
0.000427777
0.000427621
0.000427422
0.000427226
0.000426974
0.000426773
0.00042659
0.000426417
0.000426221
0.000426047
0.000425839
0.000425661
0.000425453
0.000425273
0.000425074
0.000424897
0.000424724
0.000424561
0.000424427
0.00042427
0.000424228
0.000424027
0.000424219
0.000423857
0.000424579
0.00042383
0.000425556
0.000424447
0.000429791
0.000419042
0.00524262
0.00193774
0.00128219
0.000938221
0.000764327
0.000673737
0.000623995
0.000595325
0.000578003
0.000567077
0.000559934
0.000555132
0.000551816
0.000549504
0.000547826
0.000546646
0.000545768
0.000545148
0.000544676
0.000544341
0.000544098
0.000543915
0.000543789
0.000543699
0.000543644
0.0005436
0.000543581
0.000543565
0.000543567
0.000543566
0.000543578
0.000543581
0.000543592
0.000543599
0.000543607
0.000543622
0.000543625
0.000543635
0.000543636
0.000543639
0.000543646
0.00054365
0.000543649
0.000543643
0.000543636
0.000543625
0.000543613
0.00054359
0.000543572
0.000543538
0.000543509
0.000543461
0.000543415
0.000543352
0.000543273
0.000543191
0.000543079
0.000542971
0.000542819
0.000542682
0.000542482
0.000542317
0.000542063
0.000541906
0.00054172
0.000541593
0.000541399
0.000541286
0.000541079
0.000540978
0.000540778
0.00054069
0.000540511
0.000540439
0.000540303
0.00054025
0.000540196
0.00054014
0.000540258
0.000540123
0.000540602
0.000540227
0.000541441
0.00054059
0.00054318
0.000541695
0.000549635
0.000535981
0.00672327
0.00260022
0.00176963
0.00129634
0.00103814
0.000896147
0.00081531
0.00076763
0.000738457
0.000719959
0.00070786
0.000699752
0.000694186
0.000690332
0.000687572
0.000685647
0.000684239
0.000683257
0.000682528
0.000682022
0.000681666
0.000681409
0.000681242
0.000681131
0.000681074
0.000681034
0.000681032
0.000681033
0.000681059
0.000681081
0.00068112
0.000681145
0.000681181
0.000681212
0.000681241
0.000681278
0.000681299
0.000681328
0.000681345
0.000681363
0.000681387
0.000681406
0.000681419
0.000681425
0.000681429
0.000681429
0.00068143
0.000681417
0.000681413
0.00068139
0.000681378
0.000681343
0.000681314
0.000681269
0.000681211
0.000681152
0.000681064
0.00068099
0.000680865
0.000680777
0.000680608
0.000680514
0.000680298
0.000680228
0.000680071
0.000680035
0.000679872
0.000679865
0.000679702
0.000679721
0.000679578
0.000679625
0.000679526
0.000679603
0.000679573
0.000679675
0.000679776
0.000679864
0.000680223
0.0006802
0.000681058
0.000680734
0.000682541
0.000681642
0.000685389
0.000683295
0.000694555
0.000677793
0.00846534
0.00341354
0.00239077
0.00177044
0.00140692
0.00119476
0.00106839
0.000991348
0.000943108
0.000912039
0.000891499
0.000877632
0.000868068
0.00086142
0.00085666
0.00085332
0.000850886
0.000849175
0.000847915
0.000847031
0.000846409
0.000845962
0.000845667
0.000845471
0.000845366
0.000845296
0.000845286
0.000845286
0.000845327
0.000845363
0.000845427
0.000845472
0.000845532
0.000845589
0.000845641
0.000845704
0.000845745
0.000845797
0.000845833
0.00084587
0.000845914
0.000845954
0.000845984
0.000846006
0.000846027
0.000846043
0.000846062
0.000846066
0.000846083
0.00084608
0.000846094
0.000846084
0.000846087
0.000846075
0.000846057
0.000846041
0.000846002
0.000845987
0.000845922
0.000845917
0.000845821
0.000845843
0.00084572
0.000845782
0.0008457
0.000845794
0.000845716
0.000845855
0.000845793
0.000845977
0.000845954
0.000846185
0.000846229
0.000846508
0.000846657
0.000846967
0.000847301
0.000847592
0.000848273
0.000848427
0.000849756
0.000849548
0.000852115
0.000851124
0.000856508
0.000853568
0.000868655
0.000848996
0.01048
0.00439717
0.00316138
0.00238089
0.00189447
0.00159328
0.0014047
0.00128497
0.00120764
0.00115663
0.00112227
0.00109872
0.00108226
0.00107068
0.00106232
0.00105636
0.00105199
0.00104885
0.00104652
0.00104484
0.00104363
0.00104274
0.00104213
0.00104169
0.00104142
0.00104122
0.00104113
0.00104107
0.00104108
0.00104109
0.00104115
0.00104119
0.00104126
0.00104133
0.00104139
0.00104147
0.00104152
0.00104159
0.00104164
0.0010417
0.00104176
0.00104182
0.00104187
0.0010419
0.00104194
0.00104198
0.00104202
0.00104204
0.00104209
0.00104211
0.00104216
0.00104219
0.00104224
0.00104227
0.00104232
0.00104236
0.0010424
0.00104247
0.0010425
0.00104262
0.00104264
0.00104283
0.00104286
0.0010431
0.00104315
0.00104341
0.00104348
0.00104381
0.00104391
0.00104431
0.00104447
0.00104494
0.00104519
0.00104573
0.00104613
0.00104671
0.00104736
0.00104792
0.00104901
0.00104941
0.00105133
0.00105127
0.00105486
0.0010537
0.00106124
0.00105737
0.00107652
0.00105453
0.012762
0.00557141
0.00409441
0.0031442
0.00252271
0.00211663
0.00184914
0.00167162
0.00155264
0.00147177
0.00141592
0.00137681
0.00134898
0.00132904
0.00131442
0.00130382
0.00129591
0.0012901
0.00128571
0.00128247
0.00128005
0.00127822
0.00127688
0.00127588
0.00127517
0.00127463
0.00127428
0.00127401
0.00127387
0.00127376
0.00127374
0.0012737
0.00127371
0.00127375
0.00127378
0.00127384
0.00127387
0.00127393
0.00127397
0.00127402
0.00127409
0.00127415
0.00127421
0.00127425
0.0012743
0.00127434
0.0012744
0.00127445
0.00127452
0.00127457
0.00127466
0.00127473
0.00127484
0.00127493
0.00127505
0.00127518
0.00127532
0.0012755
0.00127567
0.00127593
0.00127613
0.00127651
0.00127677
0.00127724
0.00127747
0.00127793
0.00127821
0.00127877
0.0012791
0.00127976
0.00128017
0.00128093
0.00128147
0.00128233
0.00128304
0.00128396
0.00128499
0.0012859
0.00128749
0.00128821
0.00129088
0.00129101
0.0012959
0.00129458
0.00130466
0.00130008
0.00132316
0.0012991
0.0152801
0.00695699
0.00519908
0.00407122
0.00330853
0.00278722
0.00242721
0.00217731
0.00200298
0.00188034
0.00179312
0.00173045
0.00168483
0.00165143
0.00162649
0.00160801
0.00159397
0.00158342
0.0015753
0.00156913
0.00156438
0.0015607
0.00155789
0.0015557
0.00155405
0.00155273
0.00155176
0.00155098
0.00155043
0.00154998
0.00154968
0.00154939
0.00154922
0.00154909
0.00154898
0.00154893
0.00154886
0.00154884
0.00154881
0.00154881
0.00154883
0.00154885
0.00154886
0.00154888
0.00154891
0.00154894
0.00154898
0.00154903
0.00154911
0.00154918
0.0015493
0.00154941
0.00154958
0.00154972
0.00154993
0.00155014
0.0015504
0.00155071
0.00155103
0.00155147
0.00155188
0.0015525
0.00155304
0.00155377
0.00155423
0.00155493
0.00155547
0.0015563
0.00155692
0.00155787
0.00155861
0.0015597
0.00156058
0.00156182
0.00156292
0.00156425
0.00156574
0.00156707
0.00156928
0.00157039
0.00157398
0.00157439
0.00158085
0.00157957
0.00159233
0.00158759
0.00161418
0.00158762
0.017966
0.00857427
0.00647944
0.0051656
0.00426085
0.00362078
0.00316046
0.00282721
0.0025852
0.00240863
0.00227891
0.00218297
0.00211132
0.00205756
0.00201657
0.0019855
0.00196143
0.00194293
0.0019284
0.0019171
0.00190819
0.00190111
0.00189554
0.00189107
0.00188755
0.00188466
0.0018824
0.00188053
0.00187907
0.00187784
0.00187689
0.00187602
0.00187538
0.00187485
0.00187436
0.00187401
0.00187365
0.0018734
0.00187315
0.00187298
0.00187285
0.00187271
0.0018726
0.00187249
0.00187242
0.00187237
0.00187234
0.00187233
0.00187236
0.00187241
0.00187254
0.00187264
0.00187285
0.00187302
0.0018733
0.00187358
0.00187395
0.00187438
0.00187487
0.00187548
0.00187613
0.00187698
0.00187785
0.00187885
0.00187958
0.00188054
0.00188139
0.00188251
0.00188347
0.00188476
0.00188586
0.00188734
0.00188862
0.00189029
0.00189184
0.00189366
0.00189568
0.00189754
0.00190046
0.00190213
0.00190677
0.00190772
0.0019159
0.00191505
0.00193066
0.00192569
0.001956
0.0019262
0.0207055
0.0104358
0.00793205
0.00642229
0.00537837
0.00462256
0.00406141
0.00364013
0.00332256
0.00308237
0.0028999
0.00276074
0.00265388
0.00257157
0.00250741
0.00245749
0.0024181
0.00238714
0.00236233
0.00234263
0.00232673
0.00231385
0.00230346
0.00229494
0.00228801
0.00228224
0.00227754
0.00227358
0.00227034
0.00226756
0.00226528
0.00226324
0.0022616
0.0022602
0.0022589
0.00225787
0.00225688
0.00225612
0.00225537
0.00225475
0.00225426
0.00225379
0.00225331
0.00225293
0.00225254
0.00225229
0.00225204
0.00225187
0.00225174
0.00225166
0.00225172
0.00225175
0.0022519
0.00225204
0.00225233
0.00225262
0.00225306
0.00225355
0.00225418
0.00225493
0.0022558
0.00225687
0.00225807
0.00225934
0.00226035
0.00226159
0.00226277
0.00226419
0.00226553
0.00226718
0.0022687
0.00227058
0.00227233
0.00227447
0.00227656
0.00227893
0.00228159
0.00228413
0.00228785
0.00229032
0.00229611
0.00229801
0.00230799
0.0023081
0.00232658
0.00232141
0.00235538
0.00232145
0.0233499
0.0125116
0.0095421
0.00782612
0.00664807
0.00578455
0.005129
0.0046226
0.00422844
0.00392036
0.00367866
0.00348855
0.00333833
0.00321943
0.00312453
0.0030488
0.00298778
0.00293866
0.00289863
0.00286616
0.00283938
0.00281732
0.00279915
0.00278396
0.00277132
0.00276063
0.00275171
0.00274407
0.00273764
0.00273207
0.00272734
0.00272318
0.00271961
0.00271649
0.00271369
0.00271133
0.00270912
0.0027073
0.00270557
0.00270406
0.00270278
0.0027016
0.00270046
0.00269946
0.00269849
0.00269774
0.00269706
0.00269646
0.00269595
0.00269555
0.00269536
0.00269515
0.00269508
0.00269504
0.0026952
0.00269537
0.00269577
0.00269622
0.00269691
0.0026977
0.00269873
0.00269995
0.00270142
0.00270294
0.00270422
0.00270571
0.00270722
0.00270896
0.00271069
0.0027127
0.00271469
0.002717
0.0027193
0.00272194
0.00272468
0.00272769
0.00273113
0.00273449
0.0027392
0.00274278
0.00274987
0.00275321
0.00276503
0.00276661
0.00278785
0.00278242
0.00282016
0.00278078
0.0257082
0.0147254
0.0112785
0.00935027
0.00804432
0.00708415
0.00634583
0.00576406
0.00529987
0.00492692
0.00462581
0.0043821
0.0041841
0.00402308
0.00389141
0.00378368
0.00369495
0.00362189
0.00356118
0.00351087
0.00346864
0.00343327
0.00340354
0.00337827
0.00335683
0.00333846
0.00332282
0.00330925
0.00329759
0.00328738
0.00327854
0.00327076
0.0032639
0.00325788
0.00325245
0.00324769
0.00324336
0.00323956
0.00323609
0.00323294
0.00323017
0.00322763
0.00322531
0.00322317
0.00322122
0.00321948
0.00321791
0.0032165
0.00321526
0.00321418
0.00321333
0.00321261
0.00321203
0.0032116
0.00321134
0.00321118
0.00321132
0.00321154
0.00321209
0.00321278
0.00321381
0.00321505
0.00321668
0.00321838
0.00321987
0.00322158
0.0032234
0.00322544
0.00322756
0.00322996
0.00323244
0.00323523
0.00323815
0.00324138
0.0032449
0.00324867
0.00325311
0.00325749
0.00326346
0.00326845
0.00327713
0.00328231
0.00329614
0.00329949
0.00332331
0.00331738
0.0033594
0.00331245
0.0275501
0.0169438
0.0130877
0.0109543
0.0095286
0.00848409
0.00767738
0.00703462
0.00651317
0.0060855
0.00573216
0.00543906
0.00519495
0.00499139
0.00482093
0.00467811
0.00455788
0.00445665
0.00437086
0.00429825
0.00423631
0.00418339
0.00413812
0.00409908
0.00406536
0.0040361
0.00401076
0.00398847
0.00396902
0.00395181
0.00393668
0.00392325
0.00391128
0.00390062
0.00389101
0.00388241
0.00387461
0.00386757
0.00386121
0.00385537
0.00385011
0.00384528
0.0038409
0.00383684
0.00383314
0.00382973
0.00382666
0.00382381
0.00382129
0.00381897
0.00381696
0.00381527
0.00381376
0.00381251
0.00381146
0.00381061
0.00381014
0.00380983
0.00380995
0.00381027
0.00381105
0.00381211
0.00381369
0.00381545
0.00381707
0.00381895
0.00382103
0.00382334
0.00382587
0.00382866
0.00383169
0.00383502
0.00383867
0.00384264
0.00384711
0.00385187
0.00385754
0.00386328
0.0038708
0.00387762
0.00388818
0.0038956
0.0039115
0.00391673
0.00394295
0.00393574
0.00398368
0.00392744
0.0286313
0.0189777
0.0148879
0.0125815
0.0110491
0.00993333
0.00907328
0.00838572
0.00782318
0.00735586
0.0069635
0.00663192
0.00635016
0.00611015
0.00590488
0.00572913
0.00557808
0.00544823
0.00533606
0.00523916
0.00515511
0.00508196
0.00501828
0.00496253
0.00491365
0.00487056
0.00483268
0.00479899
0.00476917
0.0047425
0.00471875
0.00469745
0.00467827
0.00466096
0.00464531
0.00463111
0.00461821
0.00460642
0.0045957
0.00458582
0.00457682
0.0045685
0.0045609
0.00455385
0.00454741
0.0045414
0.00453595
0.00453085
0.00452627
0.00452199
0.00451817
0.00451483
0.00451175
0.00450906
0.00450673
0.00450468
0.00450315
0.00450188
0.00450116
0.00450076
0.00450094
0.00450152
0.00450279
0.00450445
0.00450608
0.00450805
0.00451035
0.00451292
0.00451584
0.00451909
0.00452274
0.00452676
0.00453128
0.00453622
0.00454188
0.00454798
0.00455519
0.00456272
0.00457214
0.00458124
0.0045939
0.00460387
0.00462175
0.00462888
0.00465711
0.00464831
0.00470296
0.00463619
0.0286837
0.0206118
0.0165644
0.0141531
0.0125386
0.0113676
0.0104694
0.00975297
0.00916597
0.00867577
0.00826063
0.00790572
0.00759996
0.00733536
0.00710525
0.0069047
0.00672923
0.00657555
0.00644048
0.00632163
0.0062168
0.00612402
0.00604188
0.00596886
0.00590391
0.00584581
0.00579395
0.00574732
0.00570547
0.00566764
0.0056335
0.00560256
0.00557447
0.00554886
0.0055255
0.00550412
0.00548455
0.00546653
0.00545001
0.00543472
0.00542067
0.00540761
0.0053956
0.0053844
0.00537411
0.00536448
0.00535565
0.00534738
0.00533983
0.00533278
0.00532637
0.00532049
0.0053152
0.00531036
0.00530614
0.00530233
0.00529916
0.00529644
0.00529439
0.00529285
0.00529203
0.00529181
0.00529248
0.00529387
0.0052954
0.00529743
0.0052999
0.00530278
0.00530614
0.00530998
0.00531439
0.00531933
0.00532496
0.00533123
0.00533839
0.00534627
0.0053554
0.0053652
0.00537684
0.0053886
0.00540347
0.00541613
0.00543569
0.00544472
0.00547429
0.00546419
0.00552585
0.00544758
0.0274302
0.0216682
0.0179645
0.0155596
0.0139087
0.0127071
0.0117885
0.0110591
0.0104632
0.00996593
0.00954406
0.00918181
0.00886759
0.00859319
0.00835197
0.0081391
0.00795038
0.00778267
0.00763315
0.00749952
0.00737991
0.00727246
0.00717591
0.0070888
0.00701024
0.00693902
0.00687455
0.00681587
0.00676253
0.0067138
0.00666929
0.00662851
0.00659112
0.00655672
0.00652506
0.00649582
0.00646885
0.00644382
0.0064207
0.00639917
0.00637924
0.00636062
0.00634337
0.00632721
0.00631225
0.00629821
0.00628522
0.00627304
0.00626179
0.00625128
0.00624162
0.00623263
0.00622446
0.00621694
0.00621021
0.00620412
0.00619882
0.00619421
0.00619042
0.00618737
0.00618525
0.00618396
0.00618385
0.00618491
0.00618632
0.00618845
0.00619118
0.00619449
0.00619848
0.00620316
0.0062086
0.00621482
0.00622194
0.00622997
0.00623908
0.0062492
0.00626067
0.00627311
0.00628724
0.00630177
0.00631881
0.00633396
0.0063548
0.00636556
0.00639585
0.00638481
0.00645354
0.00636322
0.0246757
0.022074
0.0188793
0.0166406
0.0150363
0.0138482
0.0129363
0.0122131
0.0116243
0.0111346
0.0107204
0.0103651
0.0100568
0.00978697
0.00954873
0.0093372
0.0091483
0.00897889
0.0088264
0.00868859
0.00856385
0.00845046
0.00834733
0.00825313
0.00816712
0.00808822
0.0080159
0.00794934
0.0078881
0.00783156
0.00777936
0.00773101
0.00768626
0.00764467
0.00760608
0.00757011
0.00753666
0.0075054
0.00747628
0.00744899
0.00742354
0.00739964
0.00737733
0.00735635
0.00733676
0.00731833
0.00730114
0.00728499
0.00726995
0.00725587
0.00724281
0.00723064
0.00721944
0.00720911
0.00719973
0.00719124
0.0071837
0.00717709
0.00717151
0.00716692
0.00716352
0.00716124
0.00716049
0.00716143
0.00716294
0.00716544
0.00716873
0.00717282
0.00717782
0.00718376
0.00719072
0.00719871
0.00720784
0.00721812
0.00722967
0.00724242
0.00725655
0.00727175
0.0072884
0.00730548
0.00732438
0.00734156
0.00736316
0.00737536
0.00740576
0.00739372
0.00746973
0.00736757
0.0209488
0.0211348
0.0190334
0.0171915
0.0157536
0.01465
0.0137891
0.0131021
0.0125419
0.0120769
0.0116848
0.0113498
0.01106
0.0108069
0.0105838
0.0103858
0.0102086
0.0100493
0.00990529
0.00977443
0.0096552
0.00954601
0.00944589
0.00935364
0.00926863
0.00918993
0.00911708
0.0090494
0.0089865
0.00892788
0.00887325
0.00882217
0.00877445
0.00872973
0.00868786
0.00864853
0.00861165
0.00857693
0.00854434
0.00851361
0.00848473
0.00845747
0.00843184
0.00840764
0.00838488
0.00836341
0.00834324
0.00832424
0.00830644
0.00828974
0.00827416
0.00825964
0.0082462
0.0082338
0.00822249
0.00821225
0.00820315
0.00819517
0.00818846
0.00818299
0.00817902
0.00817646
0.00817588
0.00817742
0.00817966
0.00818318
0.00818769
0.00819324
0.00819994
0.00820785
0.008217
0.00822741
0.00823913
0.00825216
0.00826651
0.00828211
0.00829896
0.00831676
0.00833563
0.00835473
0.00837496
0.00839352
0.00841531
0.00842859
0.0084583
0.00844652
0.00852705
0.00841556
0.0168889
0.0183831
0.0180914
0.0169342
0.0158388
0.0149352
0.0141981
0.0135944
0.0130953
0.0126784
0.0123264
0.0120262
0.0117674
0.0115422
0.0113446
0.0111697
0.0110139
0.0108739
0.0107477
0.0106329
0.0105283
0.0104323
0.010344
0.0102623
0.0101867
0.0101163
0.0100508
0.00998956
0.00993226
0.00987847
0.00982799
0.00978045
0.00973572
0.00969349
0.00965367
0.009616
0.00958044
0.00954674
0.0095149
0.00948471
0.00945615
0.00942906
0.00940344
0.00937915
0.0093562
0.00933446
0.00931396
0.00929462
0.00927643
0.00925936
0.00924341
0.00922857
0.00921485
0.00920226
0.00919085
0.00918063
0.0091717
0.00916407
0.00915793
0.00915326
0.00915042
0.00914931
0.00915065
0.00915433
0.00915853
0.00916427
0.0091712
0.00917935
0.00918886
0.00919975
0.00921202
0.00922566
0.00924064
0.0092569
0.00927438
0.0092929
0.00931238
0.00933249
0.0093532
0.00937382
0.00939493
0.00941437
0.00943602
0.00945015
0.00947874
0.0094681
0.00955067
0.0094342
0.0125248
0.0150452
0.0156501
0.0156655
0.0150696
0.0145135
0.0139928
0.0135379
0.0131485
0.0128165
0.012533
0.0122897
0.0120797
0.0118972
0.0117374
0.0115967
0.0114719
0.0113604
0.0112603
0.0111698
0.0110876
0.0110124
0.0109435
0.0108798
0.0108209
0.0107662
0.0107151
0.0106672
0.0106224
0.0105802
0.0105404
0.0105028
0.0104673
0.0104336
0.0104017
0.0103714
0.0103426
0.0103152
0.0102892
0.0102645
0.010241
0.0102186
0.0101974
0.0101772
0.0101581
0.01014
0.010123
0.0101069
0.0100919
0.0100778
0.0100648
0.0100529
0.010042
0.0100323
0.0100238
0.0100166
0.0100109
0.0100066
0.010004
0.0100032
0.0100046
0.0100081
0.0100145
0.0100231
0.0100315
0.0100416
0.010053
0.0100658
0.01008
0.0100956
0.0101126
0.0101309
0.0101504
0.0101709
0.0101924
0.0102145
0.0102372
0.0102601
0.0102831
0.0103056
0.0103281
0.010349
0.0103712
0.0103869
0.010415
0.0104072
0.0104896
0.0103744
0.0123611
0.0123728
0.0131115