/*--------------------------------*- C++ -*----------------------------------*\
| =========                 |                                                 |
| \\      /  F ield         | OpenFOAM: The Open Source CFD Toolbox           |
|  \\    /   O peration     | Version:  2306                                  |
|   \\  /    A nd           | Website:  www.openfoam.com                      |
|    \\/     M anipulation  |                                                 |
\*---------------------------------------------------------------------------*/
FoamFile
{
    version     2.0;
    format      ascii;
    arch        "LSB;label=32;scalar=64";
    class       volScalarField;
    location    "1800";
    object      p;
}
// * * * * * * * * * * * * * * * * * * * * * * * * * * * * * * * * * * * * * //

dimensions      [0 2 -2 0 0 0 0];

internalField   nonuniform List<scalar> 
20540
(
226.225
-18.4407
224.719
-30.6286
223.678
-38.1072
223.298
-40.8681
223.127
-42.0067
222.998
-42.7501
222.894
-43.3129
222.818
-43.7273
222.765
-44.0285
222.731
-44.247
222.709
-44.3998
222.696
-44.4951
222.686
-44.5363
222.674
-44.5238
222.656
-44.4561
222.624
-44.3305
222.574
-44.1431
222.499
-43.8895
222.397
-43.5658
222.269
-43.1694
222.115
-42.6995
221.943
-42.1567
221.765
-41.5484
221.583
-40.8914
221.329
-40.1695
220.865
-39.2347
220.218
-37.9167
219.543
-36.4131
218.824
-35.0581
218.033
-33.8869
217.398
-33.054
217.083
-32.676
217.074
-32.7092
217.368
-33.1552
217.969
-34.0499
218.717
-35.2311
219.406
-36.564
220.059
-38.0602
220.705
-39.4112
221.197
-40.3845
221.479
-41.1262
221.677
-41.793
221.868
-42.4093
222.057
-42.9608
222.229
-43.4406
222.377
-43.8487
222.497
-44.1865
222.588
-44.457
222.652
-44.6644
222.694
-44.8134
222.72
-44.908
222.735
-44.9514
222.746
-44.9456
222.757
-44.8914
222.773
-44.7877
222.799
-44.6306
222.838
-44.4114
222.895
-44.1128
222.978
-43.7047
223.089
-43.1512
223.226
-42.4161
223.407
-41.2793
223.8
-38.5506
224.857
-31.2999
226.38
-19.6335
-96.403
-58.5287
-64.7206
-67.0827
-68.6856
-71.1901
-73.9385
-76.6528
-79.374
-82.0803
-84.7384
-87.335
-89.8657
-92.3248
-94.7104
-97.021
-99.2572
-101.419
-103.509
-105.527
-107.476
-109.357
-111.172
-112.924
-114.613
-116.243
-117.815
-119.33
-120.792
-122.202
-123.562
-124.873
-126.137
-127.357
-128.534
-129.669
-130.766
-131.825
-132.849
-133.839
-134.799
-135.731
-136.637
-137.52
-138.384
-139.232
-140.068
-140.896
-141.721
-142.548
-143.383
-144.232
-145.102
-146
-146.934
-147.914
-148.947
-150.045
-151.216
-152.476
-153.833
-155.305
-156.9
-158.36
-159.583
-160.842
-162.143
-163.485
-164.871
-166.3
-167.772
-169.288
-170.847
-172.455
-174.108
-175.822
-177.576
-179.414
-181.275
-183.265
-185.228
-187.422
-189.487
-192.032
-194.239
-197.459
-200.293
-204.828
-96.4078
-58.5287
-64.7204
-67.0826
-68.6855
-71.19
-73.9385
-76.6527
-79.374
-82.0803
-84.7384
-87.335
-89.8657
-92.3248
-94.7103
-97.021
-99.2572
-101.419
-103.509
-105.527
-107.476
-109.357
-111.172
-112.924
-114.613
-116.243
-117.815
-119.33
-120.792
-122.202
-123.562
-124.873
-126.137
-127.357
-128.534
-129.669
-130.766
-131.825
-132.849
-133.839
-134.799
-135.731
-136.637
-137.52
-138.384
-139.232
-140.068
-140.896
-141.721
-142.548
-143.383
-144.232
-145.102
-146
-146.934
-147.914
-148.947
-150.045
-151.216
-152.476
-153.833
-155.305
-156.9
-158.36
-159.583
-160.842
-162.143
-163.485
-164.871
-166.3
-167.772
-169.288
-170.847
-172.456
-174.108
-175.822
-177.576
-179.415
-181.276
-183.265
-185.228
-187.422
-189.487
-192.033
-194.24
-197.46
-200.295
-204.81
-96.424
-58.5292
-64.7201
-67.0823
-68.6853
-71.1898
-73.9384
-76.6526
-79.3739
-82.0802
-84.7383
-87.335
-89.8657
-92.3247
-94.7103
-97.021
-99.2572
-101.419
-103.509
-105.527
-107.476
-109.357
-111.172
-112.924
-114.613
-116.243
-117.815
-119.33
-120.792
-122.202
-123.562
-124.873
-126.137
-127.357
-128.534
-129.669
-130.766
-131.825
-132.849
-133.839
-134.799
-135.731
-136.637
-137.52
-138.384
-139.232
-140.068
-140.896
-141.721
-142.548
-143.383
-144.232
-145.102
-146
-146.934
-147.914
-148.947
-150.045
-151.217
-152.476
-153.833
-155.305
-156.9
-158.36
-159.583
-160.842
-162.143
-163.486
-164.872
-166.3
-167.772
-169.288
-170.847
-172.456
-174.109
-175.823
-177.577
-179.416
-181.277
-183.266
-185.229
-187.424
-189.489
-192.036
-194.243
-197.465
-200.291
-204.735
-96.4524
-58.53
-64.7195
-67.0818
-68.6848
-71.1895
-73.9381
-76.6524
-79.3738
-82.0801
-84.7382
-87.3349
-89.8656
-92.3247
-94.7103
-97.0209
-99.2572
-101.419
-103.509
-105.527
-107.476
-109.357
-111.172
-112.924
-114.613
-116.243
-117.815
-119.33
-120.792
-122.202
-123.562
-124.873
-126.137
-127.357
-128.534
-129.669
-130.766
-131.825
-132.849
-133.839
-134.799
-135.731
-136.637
-137.52
-138.384
-139.232
-140.068
-140.896
-141.721
-142.548
-143.383
-144.232
-145.102
-146
-146.935
-147.914
-148.947
-150.045
-151.217
-152.476
-153.833
-155.305
-156.9
-158.361
-159.584
-160.843
-162.144
-163.486
-164.872
-166.301
-167.773
-169.289
-170.848
-172.457
-174.11
-175.824
-177.579
-179.418
-181.279
-183.269
-185.232
-187.428
-189.492
-192.041
-194.247
-197.474
-200.275
-204.685
-96.4996
-58.5319
-64.7191
-67.081
-68.6842
-71.189
-73.9377
-76.6521
-79.3735
-82.0799
-84.738
-87.3347
-89.8654
-92.3245
-94.7101
-97.0209
-99.2571
-101.419
-103.509
-105.527
-107.476
-109.357
-111.172
-112.924
-114.613
-116.243
-117.815
-119.33
-120.792
-122.202
-123.561
-124.873
-126.137
-127.357
-128.534
-129.669
-130.766
-131.825
-132.849
-133.839
-134.799
-135.731
-136.637
-137.52
-138.384
-139.232
-140.068
-140.896
-141.721
-142.548
-143.383
-144.233
-145.102
-146.001
-146.935
-147.914
-148.947
-150.045
-151.217
-152.477
-153.833
-155.306
-156.901
-158.361
-159.584
-160.844
-162.144
-163.487
-164.873
-166.302
-167.774
-169.291
-170.85
-172.459
-174.112
-175.826
-177.581
-179.42
-181.281
-183.272
-185.235
-187.432
-189.496
-192.047
-194.251
-197.484
-200.244
-204.658
-96.5728
-58.5364
-64.7194
-67.0803
-68.6834
-71.1883
-73.9371
-76.6516
-79.3731
-82.0796
-84.7377
-87.3345
-89.8652
-92.3244
-94.71
-97.0207
-99.257
-101.419
-103.509
-105.527
-107.476
-109.357
-111.172
-112.923
-114.613
-116.243
-117.815
-119.33
-120.792
-122.202
-123.561
-124.873
-126.137
-127.357
-128.533
-129.669
-130.766
-131.825
-132.849
-133.839
-134.799
-135.731
-136.637
-137.52
-138.384
-139.232
-140.068
-140.896
-141.721
-142.548
-143.383
-144.233
-145.103
-146.001
-146.935
-147.914
-148.947
-150.045
-151.217
-152.477
-153.834
-155.306
-156.901
-158.362
-159.585
-160.845
-162.146
-163.489
-164.875
-166.304
-167.776
-169.293
-170.852
-172.461
-174.114
-175.829
-177.584
-179.424
-181.285
-183.276
-185.239
-187.437
-189.5
-192.054
-194.254
-197.492
-200.193
-204.624
-96.6773
-58.5447
-64.7211
-67.0799
-68.6826
-71.1875
-73.9364
-76.651
-79.3726
-82.0791
-84.7374
-87.3342
-89.865
-92.3242
-94.7098
-97.0206
-99.2568
-101.419
-103.509
-105.527
-107.476
-109.357
-111.172
-112.923
-114.613
-116.243
-117.814
-119.33
-120.792
-122.202
-123.561
-124.872
-126.137
-127.357
-128.533
-129.669
-130.766
-131.825
-132.849
-133.839
-134.799
-135.731
-136.637
-137.52
-138.384
-139.232
-140.068
-140.896
-141.721
-142.548
-143.383
-144.233
-145.103
-146.001
-146.935
-147.914
-148.948
-150.046
-151.218
-152.478
-153.835
-155.307
-156.902
-158.363
-159.586
-160.846
-162.147
-163.49
-164.877
-166.306
-167.778
-169.295
-170.855
-172.464
-174.117
-175.832
-177.587
-179.427
-181.288
-183.281
-185.243
-187.443
-189.504
-192.059
-194.254
-197.495
-200.116
-204.564
-96.8175
-58.5583
-64.7248
-67.0803
-68.682
-71.1867
-73.9357
-76.6503
-79.372
-82.0786
-84.737
-87.3338
-89.8647
-92.3239
-94.7096
-97.0203
-99.2566
-101.419
-103.508
-105.527
-107.476
-109.357
-111.172
-112.923
-114.613
-116.243
-117.814
-119.33
-120.792
-122.202
-123.561
-124.872
-126.137
-127.357
-128.533
-129.669
-130.766
-131.825
-132.849
-133.839
-134.799
-135.731
-136.637
-137.52
-138.384
-139.232
-140.068
-140.896
-141.721
-142.548
-143.384
-144.233
-145.103
-146.001
-146.935
-147.915
-148.948
-150.046
-151.218
-152.478
-153.835
-155.308
-156.903
-158.365
-159.588
-160.847
-162.149
-163.492
-164.879
-166.308
-167.78
-169.298
-170.857
-172.467
-174.12
-175.836
-177.591
-179.431
-181.292
-183.285
-185.247
-187.447
-189.506
-192.063
-194.249
-197.49
-200.009
-204.461
-96.9986
-58.5791
-64.7317
-67.082
-68.6818
-71.1861
-73.9349
-76.6496
-79.3713
-82.078
-84.7364
-87.3334
-89.8642
-92.3235
-94.7092
-97.0201
-99.2564
-101.419
-103.508
-105.527
-107.475
-109.356
-111.172
-112.923
-114.613
-116.242
-117.814
-119.33
-120.792
-122.202
-123.561
-124.872
-126.137
-127.357
-128.533
-129.669
-130.765
-131.825
-132.849
-133.839
-134.799
-135.731
-136.637
-137.52
-138.384
-139.232
-140.068
-140.896
-141.721
-142.548
-143.384
-144.233
-145.103
-146.001
-146.936
-147.915
-148.948
-150.047
-151.219
-152.479
-153.836
-155.309
-156.905
-158.366
-159.589
-160.849
-162.15
-163.494
-164.881
-166.31
-167.783
-169.3
-170.86
-172.47
-174.124
-175.839
-177.595
-179.435
-181.296
-183.289
-185.249
-187.45
-189.506
-192.062
-194.235
-197.473
-199.865
-204.3
-97.2262
-58.6088
-64.743
-67.0857
-68.6825
-71.1858
-73.9342
-76.6488
-79.3706
-82.0773
-84.7358
-87.3328
-89.8637
-92.3231
-94.7088
-97.0197
-99.2561
-101.418
-103.508
-105.526
-107.475
-109.356
-111.172
-112.923
-114.613
-116.242
-117.814
-119.33
-120.792
-122.202
-123.561
-124.872
-126.137
-127.357
-128.533
-129.669
-130.765
-131.825
-132.848
-133.839
-134.799
-135.731
-136.637
-137.52
-138.384
-139.232
-140.068
-140.896
-141.721
-142.549
-143.384
-144.233
-145.103
-146.002
-146.936
-147.915
-148.949
-150.047
-151.22
-152.48
-153.837
-155.31
-156.906
-158.367
-159.591
-160.851
-162.152
-163.496
-164.883
-166.313
-167.786
-169.303
-170.863
-172.473
-174.127
-175.842
-177.598
-179.438
-181.298
-183.291
-185.25
-187.45
-189.501
-192.054
-194.208
-197.435
-199.681
-204.06
-97.5062
-58.6493
-64.76
-67.0924
-68.6847
-71.1862
-73.9339
-76.6481
-79.3698
-82.0766
-84.7351
-87.3321
-89.8631
-92.3225
-94.7084
-97.0193
-99.2557
-101.418
-103.508
-105.526
-107.475
-109.356
-111.171
-112.923
-114.612
-116.242
-117.814
-119.33
-120.792
-122.202
-123.561
-124.872
-126.137
-127.356
-128.533
-129.669
-130.765
-131.825
-132.848
-133.839
-134.799
-135.731
-136.637
-137.52
-138.384
-139.232
-140.068
-140.896
-141.721
-142.549
-143.384
-144.233
-145.103
-146.002
-146.936
-147.916
-148.949
-150.048
-151.22
-152.481
-153.838
-155.311
-156.907
-158.369
-159.593
-160.853
-162.154
-163.498
-164.885
-166.315
-167.788
-169.306
-170.866
-172.476
-174.129
-175.845
-177.599
-179.439
-181.298
-183.29
-185.246
-187.444
-189.488
-192.035
-194.162
-197.367
-199.452
-203.721
-97.8434
-58.7029
-64.7842
-67.1034
-68.6893
-71.1879
-73.9342
-76.6478
-79.3692
-82.0758
-84.7343
-87.3314
-89.8625
-92.3219
-94.7078
-97.0187
-99.2552
-101.418
-103.507
-105.526
-107.475
-109.356
-111.171
-112.923
-114.612
-116.242
-117.814
-119.33
-120.792
-122.201
-123.561
-124.872
-126.137
-127.356
-128.533
-129.669
-130.765
-131.824
-132.848
-133.839
-134.799
-135.731
-136.637
-137.52
-138.384
-139.232
-140.068
-140.896
-141.721
-142.549
-143.384
-144.233
-145.104
-146.002
-146.937
-147.916
-148.95
-150.048
-151.221
-152.482
-153.839
-155.312
-156.909
-158.37
-159.594
-160.854
-162.156
-163.5
-164.887
-166.317
-167.79
-169.307
-170.867
-172.477
-174.13
-175.845
-177.599
-179.438
-181.294
-183.283
-185.236
-187.428
-189.463
-191.997
-194.089
-197.253
-199.172
-203.266
-98.2406
-58.7719
-64.8166
-67.1199
-68.6972
-71.1917
-73.9358
-76.6482
-79.369
-82.0753
-84.7337
-87.3307
-89.8618
-92.3212
-94.7071
-97.0181
-99.2546
-101.417
-103.507
-105.525
-107.474
-109.355
-111.171
-112.922
-114.612
-116.242
-117.814
-119.33
-120.791
-122.201
-123.561
-124.872
-126.136
-127.356
-128.533
-129.669
-130.765
-131.824
-132.848
-133.839
-134.799
-135.731
-136.637
-137.52
-138.384
-139.232
-140.068
-140.896
-141.721
-142.549
-143.384
-144.234
-145.104
-146.002
-146.937
-147.917
-148.95
-150.049
-151.222
-152.482
-153.84
-155.313
-156.91
-158.371
-159.595
-160.856
-162.157
-163.501
-164.888
-166.318
-167.79
-169.307
-170.867
-172.476
-174.128
-175.842
-177.594
-179.43
-181.284
-183.268
-185.215
-187.398
-189.419
-191.931
-193.981
-197.074
-198.836
-202.681
-98.6972
-58.8594
-64.8585
-67.1431
-68.7096
-71.1985
-73.9394
-76.6499
-79.3696
-82.0753
-84.7333
-87.3302
-89.8611
-92.3206
-94.7065
-97.0175
-99.254
-101.416
-103.506
-105.525
-107.474
-109.355
-111.17
-112.922
-114.612
-116.241
-117.813
-119.329
-120.791
-122.201
-123.561
-124.872
-126.136
-127.356
-128.533
-129.668
-130.765
-131.824
-132.848
-133.839
-134.799
-135.731
-136.637
-137.52
-138.384
-139.232
-140.068
-140.896
-141.721
-142.549
-143.384
-144.234
-145.104
-146.002
-146.937
-147.917
-148.95
-150.049
-151.222
-152.483
-153.84
-155.314
-156.91
-158.372
-159.595
-160.855
-162.157
-163.5
-164.887
-166.316
-167.788
-169.304
-170.863
-172.471
-174.121
-175.833
-177.582
-179.414
-181.263
-183.24
-185.177
-187.345
-189.349
-191.823
-193.825
-196.809
-198.433
-201.961
-99.2069
-58.9691
-64.9108
-67.1742
-68.7275
-71.2093
-73.9459
-76.6536
-79.3716
-82.0763
-84.7337
-87.3301
-89.8608
-92.3201
-94.7059
-97.0169
-99.2534
-101.416
-103.506
-105.524
-107.473
-109.354
-111.17
-112.921
-114.611
-116.241
-117.813
-119.329
-120.791
-122.201
-123.56
-124.871
-126.136
-127.356
-128.533
-129.668
-130.765
-131.824
-132.848
-133.839
-134.799
-135.73
-136.636
-137.52
-138.384
-139.232
-140.067
-140.896
-141.721
-142.549
-143.384
-144.233
-145.104
-146.002
-146.937
-147.917
-148.95
-150.049
-151.222
-152.482
-153.84
-155.313
-156.909
-158.37
-159.594
-160.853
-162.154
-163.497
-164.883
-166.311
-167.781
-169.297
-170.853
-172.459
-174.106
-175.814
-177.559
-179.385
-181.226
-183.19
-185.116
-187.259
-189.24
-191.656
-193.606
-196.436
-197.947
-201.109
-99.7549
-59.1052
-64.9741
-67.214
-68.7519
-71.2251
-73.9562
-76.6602
-79.3758
-82.0788
-84.7351
-87.3309
-89.8611
-92.3201
-94.7057
-97.0166
-99.253
-101.415
-103.505
-105.524
-107.473
-109.354
-111.169
-112.921
-114.611
-116.241
-117.813
-119.329
-120.791
-122.2
-123.56
-124.871
-126.136
-127.355
-128.532
-129.668
-130.765
-131.824
-132.848
-133.839
-134.799
-135.73
-136.636
-137.52
-138.383
-139.231
-140.067
-140.896
-141.721
-142.548
-143.384
-144.233
-145.103
-146.002
-146.936
-147.916
-148.949
-150.048
-151.22
-152.481
-153.838
-155.31
-156.906
-158.366
-159.589
-160.848
-162.148
-163.489
-164.873
-166.3
-167.768
-169.281
-170.834
-172.437
-174.079
-175.781
-177.519
-179.334
-181.165
-183.11
-185.018
-187.124
-189.075
-191.41
-193.3
-195.933
-197.352
-200.132
-100.316
-59.273
-65.0494
-67.2633
-68.7835
-71.2468
-73.9712
-76.6706
-79.3829
-82.0837
-84.7384
-87.3331
-89.8625
-92.3209
-94.7062
-97.0167
-99.253
-101.415
-103.505
-105.523
-107.472
-109.354
-111.169
-112.921
-114.61
-116.24
-117.812
-119.328
-120.79
-122.2
-123.56
-124.871
-126.135
-127.355
-128.532
-129.668
-130.764
-131.824
-132.847
-133.838
-134.798
-135.73
-136.636
-137.519
-138.383
-139.231
-140.067
-140.895
-141.72
-142.548
-143.383
-144.232
-145.102
-146.001
-146.935
-147.914
-148.948
-150.046
-151.217
-152.477
-153.833
-155.305
-156.899
-158.359
-159.58
-160.838
-162.135
-163.475
-164.856
-166.28
-167.745
-169.253
-170.802
-172.398
-174.034
-175.727
-177.454
-179.253
-181.068
-182.985
-184.868
-186.922
-188.834
-191.059
-192.88
-195.283
-196.623
-199.035
-100.853
-59.4774
-65.1374
-67.3227
-68.8227
-71.2748
-73.9917
-76.6855
-79.3939
-82.0918
-84.7443
-87.3374
-89.8656
-92.3232
-94.7078
-97.0178
-99.2537
-101.416
-103.505
-105.524
-107.472
-109.353
-111.169
-112.92
-114.61
-116.24
-117.812
-119.328
-120.79
-122.2
-123.559
-124.871
-126.135
-127.355
-128.532
-129.667
-130.764
-131.823
-132.847
-133.838
-134.798
-135.73
-136.636
-137.519
-138.383
-139.231
-140.066
-140.895
-141.72
-142.547
-143.382
-144.231
-145.101
-145.999
-146.933
-147.911
-148.944
-150.041
-151.212
-152.471
-153.826
-155.296
-156.888
-158.345
-159.564
-160.819
-162.114
-163.45
-164.827
-166.246
-167.706
-169.208
-170.749
-172.336
-173.961
-175.64
-177.351
-179.128
-180.918
-182.796
-184.645
-186.627
-188.485
-190.575
-192.314
-194.47
-195.727
-197.817
-101.317
-59.722
-65.2386
-67.3926
-68.8695
-71.3092
-74.018
-76.7056
-79.4093
-82.1037
-84.7536
-87.3446
-89.8712
-92.3275
-94.7111
-97.0204
-99.2557
-101.417
-103.506
-105.524
-107.473
-109.354
-111.169
-112.921
-114.61
-116.24
-117.812
-119.328
-120.79
-122.2
-123.559
-124.87
-126.135
-127.355
-128.532
-129.667
-130.764
-131.823
-132.847
-133.838
-134.798
-135.729
-136.635
-137.519
-138.382
-139.23
-140.066
-140.894
-141.718
-142.545
-143.38
-144.229
-145.098
-145.995
-146.929
-147.907
-148.938
-150.034
-151.204
-152.46
-153.813
-155.28
-156.869
-158.322
-159.537
-160.789
-162.078
-163.409
-164.78
-166.192
-167.643
-169.135
-170.665
-172.238
-173.848
-175.505
-177.194
-178.937
-180.694
-182.518
-184.317
-186.209
-187.994
-189.928
-191.565
-193.475
-194.639
-196.462
-101.653
-60.0078
-65.3531
-67.4736
-68.9237
-71.3499
-74.0499
-76.7309
-79.4294
-82.12
-84.7668
-87.3552
-89.8799
-92.3346
-94.7169
-97.0251
-99.2596
-101.42
-103.509
-105.527
-107.475
-109.355
-111.17
-112.922
-114.611
-116.241
-117.812
-119.328
-120.79
-122.2
-123.559
-124.871
-126.135
-127.355
-128.532
-129.667
-130.764
-131.823
-132.847
-133.838
-134.798
-135.729
-136.635
-137.518
-138.382
-139.229
-140.065
-140.892
-141.717
-142.543
-143.378
-144.226
-145.094
-145.99
-146.922
-147.899
-148.929
-150.023
-151.19
-152.443
-153.792
-155.254
-156.838
-158.285
-159.495
-160.74
-162.023
-163.345
-164.707
-166.108
-167.546
-169.023
-170.536
-172.089
-173.675
-175.303
-176.957
-178.656
-180.364
-182.118
-183.848
-185.63
-187.318
-189.082
-190.596
-192.275
-193.335
-194.939
-101.801
-60.3319
-65.4799
-67.5664
-68.985
-71.3961
-74.0871
-76.761
-79.4542
-82.1405
-84.784
-87.3697
-89.8921
-92.3449
-94.7256
-97.0325
-99.2659
-101.426
-103.514
-105.53
-107.478
-109.358
-111.173
-112.924
-114.613
-116.242
-117.814
-119.33
-120.791
-122.201
-123.56
-124.871
-126.136
-127.356
-128.532
-129.668
-130.764
-131.823
-132.847
-133.838
-134.798
-135.729
-136.635
-137.518
-138.381
-139.228
-140.063
-140.891
-141.714
-142.54
-143.374
-144.221
-145.088
-145.982
-146.913
-147.887
-148.914
-150.005
-151.168
-152.416
-153.76
-155.215
-156.79
-158.228
-159.43
-160.665
-161.937
-163.247
-164.594
-165.979
-167.398
-168.854
-170.342
-171.865
-173.417
-175.003
-176.61
-178.247
-179.889
-181.554
-183.192
-184.845
-186.412
-187.998
-189.371
-190.836
-191.788
-193.207
-101.706
-60.688
-65.616
-67.6718
-69.0531
-71.4473
-74.1287
-76.7952
-79.4828
-82.1649
-84.8049
-87.3877
-89.9077
-92.3585
-94.7375
-97.0429
-99.275
-101.434
-103.521
-105.537
-107.484
-109.363
-111.177
-112.928
-114.616
-116.246
-117.817
-119.332
-120.794
-122.203
-123.562
-124.873
-126.138
-127.357
-128.534
-129.669
-130.766
-131.825
-132.848
-133.839
-134.798
-135.73
-136.635
-137.518
-138.381
-139.227
-140.062
-140.888
-141.711
-142.536
-143.368
-144.213
-145.078
-145.971
-146.898
-147.869
-148.892
-149.977
-151.134
-152.375
-153.71
-155.154
-156.716
-158.141
-159.33
-160.551
-161.806
-163.098
-164.424
-165.785
-167.177
-168.601
-170.054
-171.535
-173.039
-174.567
-176.109
-177.666
-179.219
-180.774
-182.296
-183.802
-185.226
-186.63
-187.852
-189.119
-189.962
-191.214
-101.332
-61.065
-65.7552
-67.7908
-69.1279
-71.5026
-74.174
-76.8326
-79.5144
-82.1922
-84.8287
-87.4087
-89.9263
-92.375
-94.7523
-97.0562
-99.2869
-101.445
-103.53
-105.545
-107.492
-109.37
-111.184
-112.934
-114.622
-116.251
-117.822
-119.337
-120.798
-122.207
-123.566
-124.877
-126.141
-127.36
-128.536
-129.672
-130.768
-131.827
-132.85
-133.84
-134.8
-135.731
-136.636
-137.518
-138.38
-139.226
-140.06
-140.885
-141.706
-142.529
-143.359
-144.202
-145.064
-145.953
-146.876
-147.841
-148.858
-149.936
-151.083
-152.314
-153.635
-155.063
-156.605
-158.01
-159.18
-160.381
-161.612
-162.876
-164.173
-165.499
-166.852
-168.232
-169.634
-171.056
-172.495
-173.945
-175.4
-176.854
-178.294
-179.717
-181.099
-182.444
-183.707
-184.928
-185.993
-187.076
-187.812
-188.905
-100.671
-61.4423
-65.8881
-67.9247
-69.2093
-71.5615
-74.2222
-76.8724
-79.5478
-82.2213
-84.8544
-87.4315
-89.9468
-92.3936
-94.7691
-97.0715
-99.3009
-101.457
-103.542
-105.556
-107.502
-109.38
-111.193
-112.942
-114.63
-116.258
-117.828
-119.343
-120.804
-122.212
-123.571
-124.881
-126.145
-127.364
-128.54
-129.676
-130.771
-131.83
-132.853
-133.843
-134.802
-135.732
-136.637
-137.518
-138.38
-139.225
-140.057
-140.88
-141.7
-142.52
-143.347
-144.186
-145.043
-145.926
-146.843
-147.8
-148.807
-149.874
-151.008
-152.221
-153.523
-154.927
-156.44
-157.815
-158.958
-160.128
-161.325
-162.551
-163.804
-165.081
-166.379
-167.697
-169.029
-170.373
-171.722
-173.072
-174.414
-175.742
-177.044
-178.314
-179.535
-180.706
-181.798
-182.837
-183.744
-184.651
-185.279
-186.214
-99.7358
-61.7829
-66.0013
-68.0746
-69.2976
-71.6237
-74.273
-76.9137
-79.5823
-82.2511
-84.8807
-87.455
-89.968
-92.4129
-94.7868
-97.0879
-99.3161
-101.472
-103.555
-105.569
-107.513
-109.391
-111.203
-112.951
-114.639
-116.266
-117.836
-119.351
-120.811
-122.219
-123.578
-124.888
-126.151
-127.37
-128.546
-129.681
-130.776
-131.834
-132.857
-133.847
-134.805
-135.735
-136.638
-137.519
-138.379
-139.222
-140.052
-140.873
-141.69
-142.506
-143.328
-144.161
-145.012
-145.887
-146.793
-147.739
-148.732
-149.782
-150.895
-152.085
-153.357
-154.726
-156.197
-157.528
-158.631
-159.758
-160.907
-162.078
-163.27
-164.479
-165.702
-166.936
-168.175
-169.414
-170.649
-171.871
-173.074
-174.251
-175.392
-176.49
-177.534
-178.523
-179.436
-180.293
-181.042
-181.781
-182.297
-183.073
-98.5424
-62.0546
-66.0672
-68.24
-69.3926
-71.6885
-74.3262
-76.9564
-79.6172
-82.281
-84.9068
-87.4781
-89.9888
-92.4318
-94.8042
-97.104
-99.3311
-101.486
-103.569
-105.581
-107.525
-109.402
-111.213
-112.962
-114.648
-116.276
-117.845
-119.359
-120.819
-122.227
-123.585
-124.895
-126.158
-127.377
-128.552
-129.687
-130.782
-131.84
-132.862
-133.851
-134.809
-135.737
-136.64
-137.519
-138.377
-139.218
-140.045
-140.862
-141.674
-142.485
-143.3
-144.125
-144.966
-145.828
-146.72
-147.649
-148.621
-149.645
-150.73
-151.883
-153.114
-154.431
-155.841
-157.11
-158.158
-159.224
-160.304
-161.4
-162.509
-163.626
-164.748
-165.871
-166.988
-168.095
-169.186
-170.254
-171.292
-172.295
-173.255
-174.166
-175.022
-175.821
-176.553
-177.23
-177.819
-178.393
-178.792
-179.407
-97.1356
-62.2674
-66.0353
-68.4097
-69.4921
-71.7544
-74.3812
-77.0002
-79.6523
-82.3105
-84.9322
-87.5003
-90.0084
-92.4495
-94.8203
-97.1188
-99.3448
-101.498
-103.581
-105.593
-107.536
-109.412
-111.223
-112.971
-114.658
-116.285
-117.854
-119.367
-120.827
-122.235
-123.593
-124.903
-126.165
-127.384
-128.559
-129.693
-130.788
-131.845
-132.867
-133.855
-134.812
-135.739
-136.64
-137.516
-138.372
-139.209
-140.032
-140.844
-141.649
-142.452
-143.257
-144.07
-144.896
-145.741
-146.612
-147.515
-148.457
-149.445
-150.487
-151.59
-152.759
-154.004
-155.328
-156.511
-157.481
-158.462
-159.449
-160.443
-161.441
-162.438
-163.429
-164.41
-165.375
-166.32
-167.239
-168.126
-168.977
-169.786
-170.549
-171.263
-171.923
-172.53
-173.078
-173.577
-174.005
-174.416
-174.693
-175.144
-95.6782
-62.4636
-65.8776
-68.5501
-69.5832
-71.8142
-74.4349
-77.0434
-79.6865
-82.339
-84.9564
-87.521
-90.0265
-92.4655
-94.8347
-97.1318
-99.3568
-101.509
-103.591
-105.602
-107.545
-109.421
-111.232
-112.979
-114.665
-116.292
-117.861
-119.374
-120.834
-122.242
-123.599
-124.909
-126.172
-127.39
-128.565
-129.698
-130.793
-131.849
-132.87
-133.857
-134.812
-135.738
-136.637
-137.51
-138.362
-139.194
-140.011
-140.815
-141.611
-142.401
-143.192
-143.988
-144.792
-145.612
-146.453
-147.319
-148.218
-149.155
-150.135
-151.166
-152.25
-153.393
-154.598
-155.662
-156.528
-157.394
-158.259
-159.12
-159.974
-160.817
-161.645
-162.452
-163.236
-163.99
-164.711
-165.395
-166.039
-166.64
-167.195
-167.703
-168.163
-168.576
-168.939
-169.261
-169.527
-169.777
-169.926
-170.211
-94.332
-62.7183
-65.6691
-68.6391
-69.6392
-71.8496
-74.4763
-77.0788
-79.715
-82.3631
-84.9769
-87.5386
-90.0416
-92.4787
-94.8463
-97.1422
-99.3661
-101.518
-103.599
-105.61
-107.552
-109.427
-111.238
-112.985
-114.671
-116.297
-117.866
-119.379
-120.839
-122.246
-123.604
-124.913
-126.176
-127.393
-128.568
-129.701
-130.795
-131.851
-132.871
-133.856
-134.81
-135.733
-136.628
-137.497
-138.343
-139.169
-139.977
-140.77
-141.552
-142.326
-143.096
-143.866
-144.641
-145.425
-146.222
-147.037
-147.874
-148.739
-149.635
-150.564
-151.531
-152.537
-153.58
-154.487
-155.215
-155.934
-156.641
-157.334
-158.011
-158.667
-159.299
-159.903
-160.477
-161.016
-161.519
-161.984
-162.408
-162.792
-163.134
-163.434
-163.693
-163.913
-164.094
-164.241
-164.347
-164.438
-164.458
-164.574
-93.038
-62.9398
-65.5456
-68.7404
-69.6786
-71.8595
-74.4932
-77.0917
-79.725
-82.3722
-84.9849
-87.5454
-90.0474
-92.4836
-94.8505
-97.1457
-99.3691
-101.52
-103.601
-105.611
-107.553
-109.429
-111.239
-112.986
-114.672
-116.298
-117.867
-119.38
-120.84
-122.247
-123.604
-124.913
-126.176
-127.393
-128.568
-129.701
-130.793
-131.848
-132.867
-133.85
-134.801
-135.721
-136.611
-137.475
-138.313
-139.129
-139.924
-140.702
-141.464
-142.215
-142.956
-143.692
-144.424
-145.157
-145.894
-146.638
-147.391
-148.157
-148.936
-149.731
-150.54
-151.363
-152.197
-152.903
-153.457
-153.992
-154.506
-154.998
-155.464
-155.903
-156.312
-156.688
-157.031
-157.338
-157.609
-157.844
-158.042
-158.203
-158.329
-158.42
-158.478
-158.504
-158.501
-158.471
-158.413
-158.34
-158.226
-158.158
-92.1279
-62.9707
-65.4519
-68.7959
-69.7033
-71.8679
-74.502
-77.0945
-79.7236
-82.3684
-84.9792
-87.5381
-90.0391
-92.4746
-94.8409
-97.1358
-99.359
-101.51
-103.591
-105.601
-107.543
-109.419
-111.229
-112.976
-114.662
-116.289
-117.858
-119.371
-120.831
-122.239
-123.596
-124.905
-126.168
-127.385
-128.559
-129.691
-130.783
-131.837
-132.854
-133.835
-134.783
-135.699
-136.584
-137.44
-138.269
-139.073
-139.854
-140.613
-141.352
-142.074
-142.781
-143.475
-144.157
-144.83
-145.495
-146.155
-146.809
-147.46
-148.105
-148.745
-149.378
-149.998
-150.603
-151.091
-151.461
-151.805
-152.122
-152.411
-152.669
-152.897
-153.092
-153.254
-153.384
-153.48
-153.544
-153.576
-153.577
-153.549
-153.492
-153.409
-153.302
-153.172
-153.022
-152.853
-152.667
-152.469
-152.253
-152.047
-91.6982
-62.9646
-65.4072
-68.8053
-69.7003
-71.8595
-74.4929
-77.0828
-79.7097
-82.3534
-84.9629
-87.5213
-90.0222
-92.4576
-94.824
-97.1191
-99.3426
-101.494
-103.575
-105.586
-107.529
-109.404
-111.215
-112.963
-114.649
-116.276
-117.845
-119.359
-120.819
-122.227
-123.584
-124.894
-126.156
-127.373
-128.547
-129.679
-130.771
-131.823
-132.838
-133.818
-134.762
-135.673
-136.553
-137.402
-138.222
-139.013
-139.779
-140.519
-141.235
-141.928
-142.599
-143.25
-143.881
-144.493
-145.086
-145.661
-146.217
-146.754
-147.268
-147.759
-148.222
-148.652
-149.045
-149.337
-149.541
-149.716
-149.86
-149.973
-150.054
-150.104
-150.121
-150.108
-150.064
-149.991
-149.889
-149.761
-149.608
-149.431
-149.233
-149.016
-148.781
-148.531
-148.267
-147.992
-147.708
-147.417
-147.119
-146.82
-91.6615
-62.9523
-65.4116
-68.8006
-69.6982
-71.8584
-74.4917
-77.0817
-79.7088
-82.3525
-84.9622
-87.5206
-90.0216
-92.457
-94.8235
-97.1187
-99.3422
-101.494
-103.575
-105.586
-107.528
-109.404
-111.215
-112.963
-114.649
-116.276
-117.845
-119.359
-120.819
-122.227
-123.584
-124.893
-126.155
-127.372
-128.546
-129.677
-130.768
-131.819
-132.832
-133.809
-134.75
-135.657
-136.531
-137.372
-138.182
-138.962
-139.712
-140.432
-141.124
-141.788
-142.424
-143.032
-143.612
-144.163
-144.685
-145.177
-145.637
-146.062
-146.451
-146.799
-147.102
-147.354
-147.552
-147.666
-147.722
-147.745
-147.737
-147.697
-147.624
-147.521
-147.388
-147.226
-147.038
-146.824
-146.587
-146.328
-146.05
-145.754
-145.443
-145.12
-144.785
-144.441
-144.09
-143.734
-143.375
-143.013
-142.652
-142.283
-92.0153
-62.9315
-65.4651
-68.7823
-69.698
-71.8658
-74.4995
-77.0923
-79.7218
-82.3667
-84.9778
-87.5369
-90.038
-92.4735
-94.8399
-97.1349
-99.3582
-101.51
-103.59
-105.601
-107.543
-109.418
-111.229
-112.976
-114.662
-116.289
-117.857
-119.371
-120.83
-122.238
-123.595
-124.904
-126.165
-127.382
-128.555
-129.685
-130.774
-131.824
-132.836
-133.81
-134.747
-135.65
-136.518
-137.351
-138.152
-138.919
-139.654
-140.355
-141.023
-141.658
-142.259
-142.825
-143.354
-143.846
-144.299
-144.71
-145.077
-145.396
-145.665
-145.878
-146.031
-146.119
-146.137
-146.089
-146.012
-145.901
-145.76
-145.586
-145.382
-145.15
-144.891
-144.607
-144.3
-143.973
-143.628
-143.266
-142.89
-142.502
-142.105
-141.7
-141.29
-140.876
-140.46
-140.043
-139.628
-139.213
-138.806
-138.387
-92.8308
-62.8742
-65.5668
-68.7193
-69.671
-71.8569
-74.4894
-77.0891
-79.7238
-82.3708
-84.9838
-87.5445
-90.0467
-92.4829
-94.8498
-97.1451
-99.3685
-101.52
-103.6
-105.611
-107.553
-109.428
-111.239
-112.986
-114.671
-116.298
-117.866
-119.38
-120.839
-122.246
-123.603
-124.911
-126.173
-127.389
-128.561
-129.69
-130.779
-131.827
-132.837
-133.808
-134.743
-135.641
-136.503
-137.33
-138.121
-138.877
-139.596
-140.28
-140.926
-141.533
-142.1
-142.626
-143.109
-143.545
-143.933
-144.268
-144.549
-144.771
-144.93
-145.022
-145.041
-144.982
-144.843
-144.654
-144.463
-144.239
-143.985
-143.7
-143.387
-143.047
-142.685
-142.301
-141.898
-141.479
-141.046
-140.601
-140.147
-139.687
-139.221
-138.752
-138.282
-137.813
-137.345
-136.881
-136.422
-135.966
-135.523
-135.066
-94.0122
-62.6531
-65.6928
-68.6165
-69.6305
-71.848
-74.4727
-77.0769
-79.7152
-82.3628
-84.9768
-87.5386
-90.0418
-92.4787
-94.8464
-97.1422
-99.3661
-101.518
-103.599
-105.61
-107.552
-109.427
-111.238
-112.985
-114.671
-116.297
-117.866
-119.379
-120.838
-122.245
-123.602
-124.911
-126.172
-127.387
-128.559
-129.688
-130.776
-131.823
-132.831
-133.801
-134.733
-135.628
-136.485
-137.306
-138.09
-138.836
-139.544
-140.213
-140.84
-141.425
-141.966
-142.459
-142.903
-143.294
-143.63
-143.905
-144.117
-144.262
-144.334
-144.329
-144.244
-144.072
-143.812
-143.516
-143.238
-142.928
-142.589
-142.221
-141.826
-141.408
-140.97