/*--------------------------------*- C++ -*----------------------------------*\
| =========                 |                                                 |
| \\      /  F ield         | OpenFOAM: The Open Source CFD Toolbox           |
|  \\    /   O peration     | Version:  2306                                  |
|   \\  /    A nd           | Website:  www.openfoam.com                      |
|    \\/     M anipulation  |                                                 |
\*---------------------------------------------------------------------------*/
FoamFile
{
    version     2.0;
    format      ascii;
    arch        "LSB;label=32;scalar=64";
    class       surfaceScalarField;
    location    "1800";
    object      phi;
}
// * * * * * * * * * * * * * * * * * * * * * * * * * * * * * * * * * * * * * //

dimensions      [0 3 -1 0 0 0 0];

oriented        oriented;

internalField   nonuniform List<scalar> 
40747
(
7.47675e-06
7.40374e-06
2.66809e-06
4.80866e-06
9.05326e-06
1.63518e-05
4.48004e-06
7.24131e-06
1.0969e-05
2.71596e-05
5.6791e-06
9.76991e-06
1.32981e-05
4.02054e-05
6.48964e-06
1.24875e-05
1.6133e-05
5.59413e-05
7.01373e-06
1.56089e-05
1.95889e-05
7.49051e-05
7.28411e-06
1.93186e-05
2.38094e-05
9.7734e-05
7.29918e-06
2.37944e-05
2.89745e-05
0.000125179
7.04004e-06
2.92336e-05
3.53109e-05
0.000158121
6.48004e-06
3.58709e-05
4.31063e-05
0.000197581
5.59247e-06
4.39939e-05
5.27276e-05
0.000244737
4.35952e-06
5.39605e-05
6.4646e-05
0.000300923
2.78465e-06
6.62208e-05
7.94714e-05
0.000367625
9.10515e-07
8.13455e-05
9.7999e-05
0.000446456
-1.1547e-06
0.000100064
0.000121273
0.000539098
-3.19958e-06
0.000123318
0.000150678
0.000647201
-4.85643e-06
0.000152335
0.000188058
0.000772196
-5.52882e-06
0.000188731
0.000235894
0.000915012
-4.29635e-06
0.000234661
0.000297539
0.00107561
2.03743e-07
0.000293039
0.000377551
0.00125228
9.9077e-06
0.000367847
0.000482135
0.0014406
2.74327e-05
0.00046461
0.000619694
0.00163197
5.60732e-05
0.000591053
0.000801342
0.0018118
9.9407e-05
0.000758008
0.00104073
0.00195801
0.000159627
0.000980513
0.00135227
0.00204162
0.000233104
0.00127879
0.00175202
0.00202663
0.000307393
0.00167773
0.00225565
0.00187231
0.000363508
0.00219953
0.00283702
0.00157732
0.000368111
0.00283242
0.00345073
0.00120176
0.000307704
0.00351114
0.00415814
0.000763737
0.000211999
0.00425384
0.00396436
0.000363879
0.00011198
0.00406438
0.00395449
-2.61079e-05
9.31943e-06
0.00405715
0.00395434
-0.00041594
-9.32038e-05
0.00405686
0.00396369
-0.00081512
-0.000192998
0.00406348
0.00402944
-0.00123729
-0.000286701
0.00412314
0.00336428
-0.00160071
-0.000348764
0.00342634
0.00278744
-0.00189174
-0.000351513
0.00279019
0.00223904
-0.00205403
-0.000302895
0.00219042
0.00175542
-0.00208181
-0.000233994
0.00168652
0.0013668
-0.0020114
-0.000163045
0.00129585
0.00106071
-0.0018765
-0.000102898
0.00100057
0.00082284
-0.00170472
-5.84046e-05
0.000778346
0.000640528
-0.00151782
-2.8249e-05
0.000610372
0.000501317
-0.00133081
-9.29745e-06
0.000482365
0.000394724
-0.00115292
1.55052e-06
0.000383876
0.000312666
-0.000989225
6.85397e-06
0.000307362
0.000249093
-0.000842038
8.56336e-06
0.000247384
0.000199515
-0.000711889
8.09006e-06
0.000199988
0.000160595
-0.000598239
6.4149e-06
0.00016227
0.000129849
-0.000499944
4.19415e-06
0.00013207
0.000105414
-0.000415566
1.8483e-06
0.000107759
8.58846e-05
-0.000343564
-3.68324e-07
8.81012e-05
7.01961e-05
-0.000282415
-2.31487e-06
7.21427e-05
5.75337e-05
-0.000230683
-3.92526e-06
5.91441e-05
4.72702e-05
-0.000187056
-5.18054e-06
4.85255e-05
3.89197e-05
-0.000150358
-6.08954e-06
3.98287e-05
3.21027e-05
-0.000119555
-6.67542e-06
3.26886e-05
2.65211e-05
-9.37457e-05
-6.96634e-06
2.68121e-05
2.19393e-05
-7.21512e-05
-6.98833e-06
2.19613e-05
1.81694e-05
-5.41051e-05
-6.75877e-06
1.79399e-05
1.50618e-05
-3.90393e-05
-6.27751e-06
1.45805e-05
1.24955e-05
-2.64719e-05
-5.51035e-06
1.17284e-05
1.03735e-05
-1.59955e-05
-4.35504e-06
9.21814e-06
8.61666e-06
-7.26741e-06
-2.59184e-06
6.85347e-06
7.16167e-06
4.56982e-06
2.45709e-06
2.35157e-06
1.67677e-06
7.80319e-07
1.4934e-06
1.83363e-07
1.38725e-06
1.06152e-07
1.32059e-06
6.66629e-08
1.2761e-06
4.44895e-08
1.24446e-06
3.16408e-08
1.22102e-06
2.34376e-08
1.20318e-06
1.78424e-08
1.18927e-06
1.39066e-08
1.17823e-06
1.10405e-08
1.16934e-06
8.89496e-09
1.16209e-06
7.24405e-09
1.15612e-06
5.96759e-09
1.15117e-06
4.95248e-09
1.14704e-06
4.13563e-09
1.14356e-06
3.4772e-09
1.14062e-06
2.93869e-09
1.13812e-06
2.5016e-09
1.13599e-06
2.13025e-09
1.13416e-06
1.8289e-09
1.13259e-06
1.57595e-09
1.13123e-06
1.36024e-09
1.13005e-06
1.1773e-09
1.12902e-06
1.02539e-09
1.12813e-06
8.95356e-10
1.12734e-06
7.84218e-10
1.12665e-06
6.88237e-10
1.12605e-06
6.05727e-10
1.12551e-06
5.35837e-10
1.12504e-06
4.75201e-10
1.12462e-06
4.2209e-10
1.12424e-06
3.77532e-10
1.1239e-06
3.39657e-10
1.1236e-06
2.98082e-10
1.12333e-06
2.6617e-10
1.1231e-06
2.37551e-10
1.12288e-06
2.10149e-10
1.1227e-06
1.84838e-10
1.12255e-06
1.54195e-10
1.12242e-06
1.25333e-10
1.12232e-06
9.75652e-11
1.12226e-06
6.79846e-11
1.12222e-06
3.4192e-11
1.12223e-06
-1.88081e-12
1.12228e-06
-4.67965e-11
1.12237e-06
-9.66052e-11
1.12253e-06
-1.51458e-10
1.12275e-06
-2.15291e-10
1.12304e-06
-2.8879e-10
1.12342e-06
-3.72036e-10
1.12389e-06
-4.68337e-10
1.12448e-06
-5.79824e-10
1.12519e-06
-7.00237e-10
1.12604e-06
-8.40122e-10
1.12706e-06
-9.95221e-10
1.12826e-06
-1.17375e-09
1.12965e-06
-1.37018e-09
1.13128e-06
-1.59459e-09
1.13317e-06
-1.84294e-09
1.13534e-06
-2.12804e-09
1.13784e-06
-2.44476e-09
1.14072e-06
-2.8227e-09
1.14288e-06
-2.08328e-09
1.14517e-06
-2.19619e-09
1.1476e-06
-2.32361e-09
1.15017e-06
-2.47314e-09
1.1529e-06
-2.61326e-09
1.15578e-06
-2.77602e-09
1.15883e-06
-2.92862e-09
1.16203e-06
-3.11601e-09
1.1654e-06
-3.28754e-09
1.16897e-06
-3.52226e-09
1.17274e-06
-3.73101e-09
1.17674e-06
-4.02462e-09
1.18099e-06
-4.27586e-09
1.18552e-06
-4.65076e-09
1.19031e-06
-4.96426e-09
1.19551e-06
-5.51818e-09
1.20097e-06
-5.94816e-09
1.20708e-06
-6.84616e-09
1.21369e-06
-7.62246e-09
1.22108e-06
-8.78831e-09
1.2295e-06
-1.01361e-08
1.24246e-06
-1.51776e-08
1.25449e-06
-1.47172e-08
1.26386e-06
-1.20069e-08
-5.77051e-07
1.83841e-06
5.50398e-06
4.0889e-06
4.27163e-06
2.01268e-06
3.90463e-06
5.50357e-07
3.67872e-06
3.3206e-07
3.53217e-06
2.13215e-07
3.4326e-06
1.44052e-07
3.3609e-06
1.03345e-07
3.30733e-06
7.70088e-08
3.26631e-06
5.88603e-08
3.2342e-06
4.60157e-08
3.20862e-06
3.66186e-08
3.18796e-06
2.9557e-08
3.1711e-06
2.4107e-08
3.15718e-06
1.98828e-08
3.14562e-06
1.65178e-08
3.13595e-06
1.38056e-08
3.12781e-06
1.16161e-08
3.12093e-06
9.8234e-09
3.11506e-06
8.36643e-09
3.11006e-06
7.12875e-09
3.10577e-06
6.12221e-09
3.10207e-06
5.27744e-09
3.09887e-06
4.55683e-09
3.0961e-06
3.94527e-09
3.09369e-06
3.43676e-09
3.09159e-06
3.00154e-09
3.08974e-06
2.62941e-09
3.08812e-06
2.30802e-09
3.0867e-06
2.03156e-09
3.08543e-06
1.79692e-09
3.08431e-06
1.59355e-09
3.08332e-06
1.41573e-09
3.08243e-06
1.26544e-09
3.08163e-06
1.13757e-09
3.08093e-06
9.98789e-10
3.08031e-06
8.91153e-10
3.07975e-06
7.94411e-10
3.07926e-06
7.01502e-10
3.07883e-06
6.15478e-10
3.07847e-06
5.12081e-10
3.07818e-06
4.13626e-10
3.07796e-06
3.18144e-10
3.07782e-06
2.16291e-10
3.07775e-06
1.00045e-10
3.07778e-06
-2.57044e-11
3.07792e-06
-1.79918e-10
3.07818e-06
-3.5146e-10
3.07858e-06
-5.4423e-10
3.07914e-06
-7.66676e-10
3.07988e-06
-1.02198e-09
3.08083e-06
-1.31288e-09
3.08203e-06
-1.64869e-09
3.08351e-06
-2.03696e-09
3.08529e-06
-2.45916e-09
3.08743e-06
-2.94634e-09
3.08997e-06
-3.49003e-09
3.09296e-06
-4.10965e-09
3.09646e-06
-4.79897e-09
3.10053e-06
-5.57733e-09
3.10523e-06
-6.45002e-09
3.11064e-06
-7.43859e-09
3.11686e-06
-8.55037e-09
3.12403e-06
-9.85486e-09
3.12939e-06
-7.2741e-09
3.13506e-06
-7.65178e-09
3.14106e-06
-8.1044e-09
3.14742e-06
-8.61092e-09
3.15417e-06
-9.12035e-09
3.16127e-06
-9.65371e-09
3.1688e-06
-1.02178e-08
3.17668e-06
-1.08255e-08
3.18504e-06
-1.14689e-08
3.19381e-06
-1.22154e-08
3.20313e-06
-1.29842e-08
3.21294e-06
-1.3885e-08
3.2234e-06
-1.482e-08
3.2344e-06
-1.59078e-08
3.24622e-06
-1.71605e-08
3.25867e-06
-1.86427e-08
3.2723e-06
-2.05959e-08
3.28664e-06
-2.27027e-08
3.30351e-06
-2.65246e-08
3.32044e-06
-2.84793e-08
3.34257e-06
-3.56256e-08
3.37044e-06
-4.7276e-08
3.40152e-06
-5.0897e-08
3.4498e-06
-6.50298e-08
-9.5464e-07
3.82323e-06
8.86962e-06
4.98918e-06
7.64192e-06
3.24038e-06
7.17014e-06
1.02214e-06
6.84899e-06
6.53205e-07
6.63048e-06
4.31727e-07
6.47831e-06
2.9622e-07
6.36676e-06
2.14899e-07
6.28245e-06
1.61317e-07
6.21742e-06
1.23885e-07
6.16624e-06
9.71963e-08
6.1253e-06
7.75627e-08
6.09212e-06
6.2738e-08
6.06497e-06
5.12576e-08
6.04252e-06
4.23323e-08
6.02383e-06
3.52112e-08
6.00817e-06
2.94599e-08
5.99498e-06
2.48097e-08
5.98381e-06
2.09962e-08
5.97428e-06
1.78926e-08
5.96615e-06
1.52578e-08
5.95917e-06
1.31079e-08
5.95314e-06
1.13045e-08
5.94793e-06
9.76645e-09
5.94342e-06
8.45961e-09
5.93948e-06
7.3707e-09
5.93604e-06
6.43915e-09
5.93303e-06
5.64239e-09
5.93039e-06
4.95417e-09
5.92805e-06
4.3617e-09
5.92599e-06
3.85732e-09
5.92417e-06
3.42072e-09
5.92254e-06
3.03961e-09
5.92109e-06
2.7139e-09
5.91979e-06
2.43669e-09
5.91865e-06
2.14148e-09
5.91763e-06
1.90749e-09
5.91673e-06
1.69624e-09
5.91594e-06
1.49232e-09
5.91525e-06
1.30252e-09
5.91469e-06
1.0777e-09
5.91424e-06
8.58773e-10
5.91392e-06
6.43271e-10
5.91373e-06
4.12614e-10
5.91368e-06
1.49452e-10
5.9138e-06
-1.41494e-10
5.91411e-06
-4.90165e-10
5.91465e-06
-8.80375e-10
5.91544e-06
-1.33201e-09
5.91654e-06
-1.84821e-09
5.91796e-06
-2.43836e-09
5.91978e-06
-3.11588e-09
5.92205e-06
-3.89587e-09
5.92483e-06
-4.79755e-09
5.92819e-06
-5.78773e-09
5.93221e-06
-6.92535e-09
5.93697e-06
-8.20103e-09
5.94258e-06
-9.64944e-09
5.94912e-06
-1.12704e-08
5.95673e-06
-1.30927e-08
5.96554e-06
-1.5146e-08
5.97568e-06
-1.74576e-08
5.98733e-06
-2.00671e-08
6.00072e-06
-2.30949e-08
6.01071e-06
-1.70793e-08
6.02132e-06
-1.80338e-08
6.03256e-06
-1.9104e-08
6.04448e-06
-2.02938e-08
6.05714e-06
-2.15139e-08
6.07047e-06
-2.27573e-08
6.08461e-06
-2.41014e-08
6.09945e-06
-2.54844e-08
6.11518e-06
-2.7015e-08
6.13168e-06
-2.86409e-08
6.14925e-06
-3.04889e-08
6.16767e-06
-3.23656e-08
6.18746e-06
-3.47104e-08
6.20812e-06
-3.6834e-08
6.2307e-06
-4.01484e-08
6.25403e-06
-4.26887e-08
6.28042e-06
-4.80466e-08
6.30719e-06
-5.10427e-08
6.33987e-06
-6.12901e-08
6.3718e-06
-6.32132e-08
6.41536e-06
-8.25666e-08
6.46348e-06
-9.96152e-08
6.52768e-06
-1.20167e-07
6.6452e-06
-1.87112e-07
-1.09221e-06
6.77879e-06
1.23694e-05
5.10733e-06
1.1293e-05
4.31678e-06
1.07712e-05
1.54392e-06
1.03712e-05
1.05325e-06
1.00853e-05
7.17562e-07
9.88163e-06
4.99916e-07
9.73005e-06
3.66477e-07
9.61441e-06
2.76957e-07
9.52471e-06
2.13589e-07
9.45381e-06
1.68091e-07
9.39692e-06
1.34454e-07
9.35071e-06
1.08948e-07
9.31283e-06
8.91392e-08
9.28147e-06
7.3698e-08
9.25531e-06
6.13631e-08
9.23339e-06
5.13843e-08
9.2149e-06
4.33051e-08
9.19922e-06
3.66712e-08
9.18585e-06
3.12656e-08
9.17443e-06
2.66802e-08
9.16461e-06
2.29271e-08
9.15613e-06
1.97807e-08
9.1488e-06
1.70979e-08
9.14245e-06
1.48162e-08
9.13691e-06
1.29113e-08
9.13206e-06
1.12824e-08
9.12781e-06
9.88895e-09
9.12408e-06
8.68511e-09
9.1208e-06
7.64807e-09
9.11789e-06
6.76304e-09
9.11531e-06
5.99755e-09
9.11302e-06
5.32997e-09
9.11098e-06
4.75447e-09
9.10915e-06
4.26476e-09
9.10754e-06
3.75217e-09
9.10611e-06
3.33758e-09
9.10484e-06
2.9619e-09
9.10374e-06
2.5981e-09
9.10278e-06
2.25812e-09
9.102e-06
1.86131e-09
9.10139e-06
1.46777e-09
9.10096e-06
1.07575e-09
9.10072e-06
6.55392e-10
9.1007e-06
1.76367e-10
9.10092e-06
-3.6167e-10
9.10143e-06
-9.96133e-10
9.10227e-06
-1.70781e-09
9.10349e-06
-2.54896e-09
9.10516e-06
-3.50538e-09
9.10733e-06
-4.59534e-09
9.11008e-06
-5.85278e-09
9.1135e-06
-7.29707e-09
9.1177e-06
-8.96628e-09
9.12276e-06
-1.08121e-08
9.1288e-06
-1.29262e-08
9.13596e-06
-1.53039e-08
9.14438e-06
-1.79974e-08
9.15422e-06
-2.10222e-08
9.16564e-06
-2.44138e-08
9.17886e-06
-2.82454e-08
9.19408e-06
-3.25416e-08
9.21155e-06
-3.74016e-08
9.23161e-06
-4.29873e-08
9.24656e-06
-3.1818e-08
9.26245e-06
-3.36882e-08
9.27929e-06
-3.56842e-08
9.29714e-06
-3.78913e-08
9.31609e-06
-4.01765e-08
9.33606e-06
-4.24786e-08
9.35721e-06
-4.49818e-08
9.37942e-06
-4.74965e-08
9.40293e-06
-5.03426e-08
9.42757e-06
-5.32014e-08
9.45381e-06
-5.66624e-08
9.48122e-06
-5.98463e-08
9.51076e-06
-6.43469e-08
9.54138e-06
-6.775e-08
9.5751e-06
-7.4297e-08
9.60951e-06
-7.78618e-08
9.64895e-06
-8.86179e-08
9.68813e-06
-9.18767e-08
9.73665e-06
-1.12012e-07
9.78298e-06
-1.12479e-07
9.84776e-06
-1.50887e-07
9.91262e-06
-1.68876e-07
1.00087e-05
-2.21511e-07
1.01625e-05
-3.45632e-07
-1.22751e-06
1.02937e-05
1.62666e-05
4.44969e-06
1.54137e-05
5.16963e-06
1.4891e-05
2.06667e-06
1.44209e-05
1.52333e-06
1.40642e-05
1.07431e-06
1.38029e-05
7.61203e-07
1.36053e-05
5.64077e-07
1.3453e-05
4.29222e-07
1.33342e-05
3.32435e-07
1.32398e-05
2.62412e-07
1.31639e-05
2.10377e-07
1.31021e-05
1.70758e-07
1.30513e-05
1.399e-07
1.30093e-05
1.15784e-07
1.29741e-05
9.64963e-08
1.29446e-05
8.08688e-08
1.29197e-05
6.82001e-08
1.28986e-05
5.77856e-08
1.28806e-05
4.92897e-08
1.28652e-05
4.20879e-08
1.28519e-05
3.61771e-08
1.28405e-05
3.12238e-08
1.28306e-05
2.70014e-08
1.2822e-05
2.34077e-08
1.28145e-05
2.04017e-08
1.2808e-05
1.78321e-08
1.28022e-05
1.56337e-08
1.27972e-05
1.37341e-08
1.27927e-05
1.20968e-08
1.27888e-05
1.06967e-08
1.27853e-05
9.48627e-09
1.27822e-05
8.4313e-09
1.27794e-05
7.51572e-09
1.2777e-05
6.73675e-09
1.27748e-05
5.93362e-09
1.27728e-05
5.27297e-09
1.27711e-05
4.67277e-09
1.27696e-05
4.09056e-09
1.27684e-05
3.54495e-09
1.27673e-05
2.91672e-09
1.27665e-05
2.28524e-09
1.27659e-05
1.65076e-09
1.27656e-05
9.70031e-10
1.27656e-05
1.95748e-10
1.27659e-05
-6.82859e-10
1.27666e-05
-1.70891e-09
1.27678e-05
-2.85868e-09
1.27695e-05
-4.23577e-09
1.27718e-05
-5.79924e-09
1.27748e-05
-7.57695e-09
1.27786e-05
-9.63315e-09
1.27833e-05
-1.19903e-08
1.27891e-05
-1.47135e-08
1.2796e-05
-1.7739e-08
1.28044e-05
-2.11964e-08
1.28142e-05
-2.50916e-08
1.28258e-05
-2.94964e-08
1.28393e-05
-3.44537e-08
1.2855e-05
-4.00013e-08
1.28732e-05
-4.62778e-08
1.28941e-05
-5.32952e-08
1.29181e-05
-6.12434e-08
1.29456e-05
-7.03052e-08
1.29661e-05
-5.20488e-08
1.29879e-05
-5.52028e-08
1.3011e-05
-5.84625e-08
1.30354e-05
-6.20404e-08
1.30613e-05
-6.57688e-08
1.30886e-05
-6.94984e-08
1.31175e-05
-7.35628e-08
1.31478e-05
-7.75803e-08
1.31799e-05
-8.21927e-08
1.32134e-05
-8.66473e-08
1.32491e-05
-9.22693e-08
1.32862e-05
-9.70934e-08
1.33263e-05
-1.04488e-07
1.33676e-05
-1.09408e-07
1.34131e-05
-1.20312e-07
1.34593e-05
-1.24878e-07
1.35123e-05
-1.42896e-07
1.35645e-05
-1.45858e-07
1.36291e-05
-1.79072e-07
1.369e-05
-1.76607e-07
1.37756e-05
-2.40339e-07
1.38561e-05
-2.54297e-07
1.39827e-05
-3.53829e-07
1.41453e-05
-5.13341e-07
-1.44547e-06
1.43588e-05
2.08082e-05
2.96009e-06
2.02451e-05
5.73265e-06
1.97866e-05
2.52523e-06
1.9266e-05
2.04389e-06
1.8838e-05
1.50229e-06
1.85131e-05
1.08609e-06
1.82624e-05
8.14809e-07
1.80668e-05
6.24834e-07
1.79129e-05
4.8629e-07
1.77902e-05
3.85144e-07
1.76911e-05
3.09534e-07
1.76101e-05
2.51705e-07
1.75435e-05
2.06517e-07
1.74882e-05
1.71106e-07
1.74419e-05
1.42743e-07
1.74031e-05
1.19727e-07
1.73702e-05
1.01042e-07
1.73423e-05
8.56646e-08
1.73185e-05
7.31042e-08
1.72982e-05
6.24633e-08
1.72806e-05
5.37076e-08
1.72655e-05
4.63716e-08
1.72524e-05
4.01194e-08
1.7241e-05
3.47943e-08
1.7231e-05
3.03323e-08
1.72224e-05
2.65188e-08
1.72147e-05
2.32558e-08
1.7208e-05
2.04357e-08
1.72021e-05
1.80038e-08
1.71969e-05
1.59203e-08
1.71923e-05
1.41197e-08
1.71882e-05
1.25514e-08
1.71845e-05
1.11825e-08
1.71812e-05
1.00175e-08
1.71783e-05
8.83309e-09
1.71757e-05
7.84486e-09
1.71735e-05
6.94539e-09
1.71715e-05
6.07225e-09
1.71698e-05
5.25231e-09
1.71684e-05
4.32008e-09
1.71673e-05
3.37369e-09
1.71665e-05
2.41673e-09
1.71661e-05
1.39028e-09
1.71661e-05
2.25489e-10
1.71665e-05
-1.1046e-09
1.71674e-05
-2.65001e-09
1.7169e-05
-4.37729e-09
1.71712e-05
-6.45991e-09
1.71743e-05
-8.82746e-09
1.71782e-05
-1.15178e-08
1.71832e-05
-1.4631e-08
1.71895e-05
-1.81937e-08
1.71971e-05
-2.23081e-08
1.72063e-05
-2.68939e-08
1.72173e-05
-3.21255e-08
1.72303e-05
-3.80261e-08
1.72456e-05
-4.4688e-08
1.72635e-05
-5.21959e-08
1.72842e-05
-6.05842e-08
1.73082e-05
-7.00827e-08
1.73357e-05
-8.06786e-08
1.73674e-05
-9.26898e-08
1.74036e-05
-1.06289e-07
1.74305e-05
-7.86748e-08
1.74591e-05
-8.35301e-08
1.74895e-05
-8.84431e-08
1.75216e-05
-9.37877e-08
1.75555e-05
-9.9382e-08
1.75913e-05
-1.04951e-07
1.76291e-05
-1.11024e-07
1.76688e-05
-1.16954e-07
1.77107e-05
-1.2383e-07
1.77544e-05
-1.30281e-07
1.78009e-05
-1.38651e-07
1.78492e-05
-1.45484e-07
1.79011e-05
-1.5653e-07
1.79545e-05
-1.63246e-07
1.80133e-05
-1.79606e-07
1.80727e-05
-1.85248e-07
1.81406e-05
-2.12268e-07
1.82072e-05
-2.1456e-07
1.82892e-05
-2.63825e-07
1.83661e-05
-2.57231e-07
1.8473e-05
-3.51614e-07
1.8571e-05
-3.57685e-07
1.87282e-05
-5.17485e-07
1.88936e-05
-6.84491e-07
-1.72845e-06
1.91716e-05
2.62189e-05
5.35507e-07
2.60154e-05
5.93613e-06
2.57018e-05
2.83882e-06
2.51674e-05
2.57831e-06
2.46765e-05
1.99319e-06
2.42853e-05
1.47729e-06
2.39751e-05
1.12502e-06
2.37291e-05
8.70849e-07
2.35336e-05
6.81773e-07
2.33766e-05
5.42143e-07
2.32492e-05
4.36988e-07
2.31447e-05
3.56121e-07
2.30586e-05
2.92686e-07
2.29869e-05
2.42813e-07
2.29268e-05
2.02795e-07
2.28763e-05
1.70259e-07
2.28335e-05
1.43806e-07
2.27972e-05
1.22005e-07
2.27661e-05
1.04173e-07
2.27395e-05
8.90727e-08
2.27166e-05
7.66171e-08
2.26968e-05
6.61796e-08
2.26796e-05
5.72857e-08
2.26647e-05
4.97052e-08
2.26517e-05
4.33427e-08
2.26403e-05
3.79047e-08
2.26303e-05
3.32505e-08
2.26215e-05
2.92277e-08
2.26138e-05
2.57567e-08
2.26069e-05
2.27777e-08
2.26008e-05
2.02038e-08
2.25954e-05
1.79636e-08
2.25906e-05
1.59979e-08
2.25863e-05
1.43239e-08
2.25825e-05
1.26446e-08
2.25791e-05
1.12263e-08
2.25761e-05
9.93356e-09
2.25735e-05
8.67865e-09
2.25713e-05
7.49826e-09
2.25694e-05
6.17249e-09
2.2568e-05
4.81654e-09
2.2567e-05
3.4388e-09
2.25664e-05
1.96231e-09
2.25663e-05
2.9125e-10
2.25669e-05
-1.62343e-09
2.25681e-05
-3.84344e-09
2.257e-05
-6.31894e-09
2.25729e-05
-9.30609e-09
2.25768e-05
-1.27111e-08
2.25819e-05
-1.65865e-08
2.25883e-05
-2.10655e-08
2.25963e-05
-2.61834e-08
2.26062e-05
-3.209e-08
2.2618e-05
-3.86894e-08
2.26322e-05
-4.62081e-08
2.2649e-05
-5.46941e-08
2.26687e-05
-6.42602e-08
2.26917e-05
-7.50507e-08
2.27183e-05
-8.70902e-08
2.27492e-05
-1.00728e-07
2.27847e-05
-1.15914e-07
2.28253e-05
-1.33136e-07
2.28719e-05
-1.52521e-07
2.29064e-05
-1.12849e-07
2.29431e-05
-1.19886e-07
2.2982e-05
-1.26909e-07
2.30231e-05
-1.34475e-07
2.30666e-05
-1.42415e-07
2.31123e-05
-1.50292e-07
2.31606e-05
-1.5888e-07
2.32112e-05
-1.67188e-07
2.32645e-05
-1.76882e-07
2.33201e-05
-1.85785e-07
2.33791e-05
-1.97535e-07
2.34403e-05
-2.06812e-07
2.35059e-05
-2.22282e-07
2.35734e-05
-2.31174e-07
2.36472e-05
-2.54041e-07
2.37218e-05
-2.61016e-07
2.38065e-05
-2.98644e-07
2.38897e-05
-3.00169e-07
2.39908e-05
-3.68129e-07
2.40862e-05
-3.56816e-07
2.42154e-05
-4.85898e-07
2.43337e-05
-4.82198e-07
2.45221e-05
-7.13169e-07
2.46971e-05
-8.65865e-07
-2.04644e-06
2.50094e-05
3.27375e-05
-2.9684e-06
3.29681e-05
5.70556e-06
3.28912e-05
2.91571e-06
3.23993e-05
3.07015e-06
3.18676e-05
2.52497e-06
3.14143e-05
1.93059e-06
3.10411e-05
1.49814e-06
3.07385e-05
1.17345e-06
3.04947e-05
9.25601e-07
3.02971e-05
7.39788e-07
3.01356e-05
5.98494e-07
3.00026e-05
4.89073e-07
2.98925e-05
4.02809e-07
2.98006e-05
3.34712e-07
2.97235e-05
2.79935e-07
2.96584e-05
2.35301e-07
2.96033e-05
1.98939e-07
2.95564e-05
1.68925e-07
2.95162e-05
1.44332e-07
2.94818e-05
1.23511e-07
2.94521e-05
1.06294e-07
2.94264e-05
9.18594e-08
2.94041e-05
7.95608e-08
2.93848e-05
6.90704e-08
2.93679e-05
6.025e-08
2.93531e-05
5.27097e-08
2.93401e-05
4.62538e-08
2.93286e-05
4.06732e-08
2.93185e-05
3.58551e-08
2.93096e-05
3.17126e-08
2.93016e-05
2.81335e-08
2.92946e-05
2.50218e-08
2.92883e-05
2.22773e-08
2.92827e-05
1.99368e-08
2.92777e-05
1.76199e-08
2.92733e-05
1.56423e-08
2.92694e-05
1.38378e-08
2.9266e-05
1.20869e-08
2.9263e-05
1.04377e-08
2.92606e-05
8.6074e-09
2.92587e-05
6.72524e-09
2.92573e-05
4.80578e-09
2.92566e-05
2.75142e-09
2.92564e-05
4.33038e-10
2.9257e-05
-2.22648e-09
2.92585e-05
-5.30829e-09
2.9261e-05
-8.74155e-09
2.92645e-05
-1.28701e-08
2.92694e-05
-1.75888e-08
2.92759e-05
-2.29755e-08
2.9284e-05
-2.91895e-08
2.92942e-05
-3.62818e-08
2.93066e-05
-4.44574e-08
2.93216e-05
-5.36092e-08
2.93395e-05
-6.40261e-08
2.93607e-05
-7.57868e-08
2.93856e-05
-8.90247e-08
2.94147e-05
-1.03965e-07
2.94485e-05
-1.20615e-07
2.94875e-05
-1.39475e-07
2.95323e-05
-1.60444e-07
2.95837e-05
-1.84227e-07
2.96424e-05
-2.1087e-07
2.96859e-05
-1.55932e-07
2.97322e-05
-1.65708e-07
2.97812e-05
-1.75376e-07
2.98329e-05
-1.8569e-07
2.98876e-05
-1.96523e-07
2.9945e-05
-2.07248e-07
3.00056e-05
-2.18918e-07
3.00689e-05
-2.30144e-07
3.01356e-05
-2.43268e-07
3.02052e-05
-2.5516e-07
3.02787e-05
-2.70955e-07
3.0355e-05
-2.83212e-07
3.04364e-05
-3.03879e-07
3.05202e-05
-3.15481e-07
3.06112e-05
-3.45854e-07
3.07035e-05
-3.54619e-07
3.08072e-05
-4.04317e-07
3.09096e-05
-4.05369e-07
3.10318e-05
-4.94138e-07
3.11486e-05
-4.78454e-07
3.13018e-05
-6.44962e-07
3.14441e-05
-6.31534e-07
3.16645e-05
-9.41812e-07
3.18587e-05
-1.0673e-06
-2.38022e-06
3.21862e-05
4.06401e-05
-7.73757e-06
4.13861e-05
4.95955e-06
4.1644e-05
2.65777e-06
4.12703e-05
3.44384e-06
4.0738e-05
3.05732e-06
4.02384e-05
2.43017e-06
3.98051e-05
1.93141e-06
3.94427e-05
1.53593e-06
3.91449e-05
1.2234e-06
3.89003e-05
9.84301e-07
3.86987e-05
8.00113e-07
3.85317e-05
6.56151e-07
3.83926e-05
5.41901e-07
3.8276e-05
4.51235e-07
3.81779e-05
3.78057e-07
3.8095e-05
3.18254e-07
3.80245e-05
2.69411e-07
3.79644e-05
2.29014e-07
3.79129e-05
1.95841e-07
3.78687e-05
1.67753e-07
3.78305e-05
1.44466e-07
3.77974e-05
1.24927e-07
3.77687e-05
1.08276e-07
3.77437e-05
9.40619e-08
3.77219e-05
8.2088e-08
3.77027e-05
7.18474e-08
3.76859e-05
6.30745e-08
3.76711e-05
5.54899e-08
3.7658e-05
4.89373e-08
3.76464e-05
4.32932e-08
3.76362e-05
3.8416e-08
3.7627e-05
3.41807e-08
3.76188e-05
3.04264e-08
3.76116e-05
2.72185e-08
3.76051e-05
2.40844e-08
3.75994e-05
2.13845e-08
3.75943e-05
1.89182e-08
3.75898e-05
1.65277e-08
3.7586e-05
1.42732e-08
3.75828e-05
1.18006e-08
3.75803e-05
9.2486e-09
3.75785e-05
6.63886e-09
3.75774e-05
3.85015e-09
3.75771e-05
7.12719e-10
3.75778e-05
-2.88467e-09
3.75795e-05
-7.05231e-09
3.75825e-05
-1.16977e-08
3.75869e-05
-1.72522e-08
3.7593e-05
-2.36131e-08
3.76009e-05
-3.08962e-08
3.76111e-05
-3.92837e-08
3.76237e-05
-4.88506e-08
3.76392e-05
-5.98588e-08
3.76579e-05
-7.22032e-08
3.76802e-05
-8.62424e-08
3.77067e-05
-1.02093e-07
3.77378e-05
-1.19909e-07
3.7774e-05
-1.4002e-07
3.78161e-05
-1.62413e-07
3.78648e-05
-1.87767e-07
3.79206e-05
-2.15924e-07
3.79846e-05
-2.47847e-07
3.80577e-05
-2.83479e-07
3.81117e-05
-2.09485e-07
3.81693e-05
-2.2264e-07
3.82301e-05
-2.35578e-07
3.82943e-05
-2.49257e-07
3.8362e-05
-2.63606e-07
3.84332e-05
-2.77802e-07
3.85081e-05
-2.93192e-07
3.85863e-05
-3.07966e-07
3.86687e-05
-3.25186e-07
3.87544e-05
-3.40701e-07
3.88448e-05
-3.61238e-07
3.89386e-05
-3.77132e-07
3.90383e-05
-4.03781e-07
3.9141e-05
-4.18769e-07
3.92518e-05
-4.57627e-07
3.93645e-05
-4.68849e-07
3.94898e-05
-5.3191e-07
3.96144e-05
-5.33291e-07
3.97603e-05
-6.4436e-07
3.9902e-05
-6.25765e-07
4.00817e-05
-8.31267e-07
4.02519e-05
-8.09694e-07
4.0505e-05
-1.20417e-06
4.07284e-05
-1.2987e-06
-2.71767e-06
4.1059e-05
5.02576e-05
-1.40013e-05
5.16112e-05
3.60599e-06
5.23057e-05
1.96324e-06
5.21413e-05
3.60825e-06
5.16696e-05
3.52903e-06
5.11562e-05
2.94355e-06
5.06762e-05
2.41141e-06
5.02566e-05
1.95549e-06
4.99024e-05
1.57759e-06
4.96063e-05
1.28041e-06
4.93591e-05
1.04738e-06
4.91523e-05
8.62961e-07
4.89789e-05
7.15283e-07
4.88328e-05
5.97269e-07
4.87093e-05
5.01563e-07
4.86045e-05
4.23047e-07
4.85153e-05
3.58705e-07
4.84389e-05
3.05349e-07
4.83734e-05
2.61415e-07
4.83169e-05
2.24192e-07
4.82681e-05
1.93246e-07
4.82258e-05
1.67243e-07
4.8189e-05
1.45077e-07
4.81569e-05
1.26135e-07
4.81289e-05
1.10146e-07
4.81043e-05
9.64615e-08
4.80826e-05
8.47288e-08
4.80635e-05
7.45828e-08
4.80467e-05
6.58107e-08
4.80317e-05
5.82401e-08
4.80184e-05
5.1696e-08
4.80066e-05
4.60197e-08
4.7996e-05
4.09638e-08
4.79866e-05
3.66326e-08
4.79782e-05
3.24555e-08
4.79708e-05
2.88278e-08
4.79642e-05
2.55105e-08
4.79584e-05
2.22999e-08
4.79534e-05
1.92685e-08
4.79493e-05
1.59824e-08
4.79459e-05
1.2584e-08
4.79435e-05
9.10212e-09
4.79419e-05
5.38799e-09
4.79415e-05
1.22292e-09
4.79421e-05
-3.54476e-09
4.79442e-05
-9.06492e-09
4.79477e-05
-1.52275e-08
4.7953e-05
-2.25493e-08
4.79604e-05
-3.09433e-08
4.79701e-05
-4.05766e-08
4.79826e-05
-5.16547e-08
4.79981e-05
-6.4286e-08
4.80171e-05
-7.879e-08
4.80401e-05
-9.50853e-08
4.80676e-05
-1.13597e-07
4.81002e-05
-1.34494e-07
4.81386e-05
-1.57956e-07
4.81833e-05
-1.84433e-07
4.82351e-05
-2.13899e-07
4.8295e-05
-2.47232e-07
4.83638e-05
-2.8422e-07
4.84425e-05
-3.26118e-07
4.85324e-05
-3.72775e-07
4.85988e-05
-2.75275e-07
4.86695e-05
-2.92551e-07
4.87441e-05
-3.09479e-07
4.88229e-05
-3.27233e-07
4.89059e-05
-3.45812e-07
4.8993e-05
-3.64197e-07
4.90846e-05
-3.84025e-07
4.91802e-05
-4.03074e-07
4.92807e-05
-4.25129e-07
4.93852e-05
-4.45004e-07
4.94952e-05
-4.71044e-07
4.96092e-05
-4.91328e-07
4.97299e-05
-5.24801e-07
4.98544e-05
-5.43971e-07
4.9988e-05
-5.92286e-07
5.01242e-05
-6.06919e-07
5.0274e-05
-6.84385e-07
5.04245e-05
-6.87531e-07
5.05969e-05
-8.21731e-07
5.07675e-05
-8.02794e-07
5.09765e-05
-1.04779e-06
5.11791e-05
-1.02114e-06
5.14647e-05
-1.5e-06
5.17269e-05
-1.56953e-06
-3.05123e-06
5.20532e-05
6.19929e-05
-2.20337e-05
6.4062e-05
1.53692e-06
6.52983e-05
7.26861e-07
6.54447e-05
3.46186e-06
6.5115e-05
3.85871e-06
6.46411e-05
3.41754e-06
6.41436e-05
2.90889e-06
6.36803e-05
2.41879e-06
6.32737e-05
1.9841e-06
6.29251e-05
1.62903e-06
6.26288e-05
1.34374e-06
6.23777e-05
1.11406e-06
6.21651e-05
9.27869e-07
6.19847e-05
7.77677e-07
6.18312e-05
6.55061e-07
6.17003e-05
5.53937e-07
6.15883e-05
4.70697e-07
6.14922e-05
4.01428e-07
6.14095e-05
3.44188e-07
6.1338e-05
2.95628e-07
6.12762e-05
2.55131e-07
6.12224e-05
2.21033e-07
6.11755e-05
1.91944e-07
6.11346e-05
1.67054e-07
6.10987e-05
1.45997e-07
6.10672e-05
1.27956e-07
6.10395e-05
1.1247e-07
6.1015e-05
9.90732e-08
6.09933e-05
8.74795e-08
6.09741e-05
7.74538e-08
6.0957e-05
6.8782e-08
6.09418e-05
6.12674e-08
6.09282e-05
5.45432e-08
6.09161e-05
4.87655e-08
6.09053e-05
4.32626e-08
6.08956e-05
3.84494e-08
6.08871e-05
3.4043e-08
6.08796e-05
2.97862e-08
6.08731e-05
2.57626e-08
6.08677e-05
2.14508e-08
6.08633e-05
1.69899e-08
6.086e-05
1.24143e-08
6.08578e-05
7.54218e-09
6.0857e-05
2.09695e-09
6.08575e-05
-4.12036e-09
6.08598e-05
-1.13094e-08
6.0864e-05
-1.9352e-08
6.08703e-05
-2.8848e-08
6.08792e-05
-3.97381e-08
6.08909e-05
-5.22559e-08
6.0906e-05
-6.66309e-08
6.09248e-05
-8.30187e-08
6.09479e-05
-1.01795e-07
6.09759e-05
-1.22932e-07
6.10094e-05
-1.46907e-07
6.10492e-05
-1.7397e-07
6.10959e-05
-2.04321e-07
6.11504e-05
-2.38562e-07
6.12136e-05
-2.76649e-07
6.12866e-05
-3.19689e-07
6.13704e-05
-3.67415e-07
6.14663e-05
-4.21423e-07
6.15757e-05
-4.81459e-07
6.16565e-05
-3.55284e-07
6.17424e-05
-3.77532e-07
6.18332e-05
-3.99283e-07
6.19288e-05
-4.21924e-07
6.20295e-05
-4.4556e-07
6.21351e-05
-4.68946e-07
6.2246e-05
-4.9404e-07
6.23618e-05
-5.18182e-07
6.24831e-05
-5.45908e-07
6.26094e-05
-5.70981e-07
6.27419e-05
-6.03382e-07
6.28793e-05
-6.28921e-07
6.30243e-05
-6.70117e-07
6.31739e-05
-6.94444e-07
6.33335e-05
-7.53125e-07
6.34969e-05
-7.725e-07
6.36746e-05
-8.65097e-07
6.38548e-05
-8.7215e-07
6.40571e-05
-1.02962e-06
6.42611e-05
-1.01396e-06
6.45026e-05
-1.29769e-06
6.4743e-05
-1.27124e-06
6.50595e-05
-1.8274e-06
6.53684e-05
-1.88771e-06
-3.37746e-06
6.56874e-05
7.63402e-05
-3.21531e-05
7.92539e-05
-1.37687e-06
8.11433e-05
-1.16246e-06
8.17079e-05
2.89727e-06
8.16178e-05
3.9487e-06
8.12584e-05
3.77694e-06
8.07932e-05
3.37409e-06
8.03154e-05
2.89666e-06
7.98717e-05
2.42777e-06
7.9477e-05
2.0237e-06
7.91329e-05
1.68786e-06
7.88359e-05
1.41104e-06
7.8581e-05
1.18279e-06
7.83624e-05
9.96316e-07
7.81748e-05
8.42655e-07
7.80137e-05
7.15007e-07
7.78751e-05
6.09298e-07
7.77557e-05
5.20912e-07
7.76523e-05
4.47533e-07
7.75628e-05
3.85145e-07
7.7485e-05
3.32924e-07
7.74172e-05
2.88829e-07
7.7358e-05
2.5116e-07
7.73062e-05
2.18877e-07
7.72607e-05
1.91495e-07
7.72206e-05
1.67998e-07
7.71853e-05
1.47798e-07
7.71541e-05
1.3031e-07
7.71264e-05
1.15159e-07
7.71018e-05
1.0203e-07
7.70799e-05
9.06631e-08
7.70604e-05
8.08178e-08
7.70429e-05
7.19702e-08
7.70274e-05
6.43428e-08
7.70135e-05
5.71633e-08
7.70011e-05
5.08446e-08
7.699e-05
4.50513e-08
7.69804e-05
3.9467e-08
7.69719e-05
3.41831e-08
7.69648e-05
2.8583e-08
7.6959e-05
2.27964e-08
7.69546e-05
1.6859e-08
7.69516e-05
1.05471e-08
7.69502e-05
3.51739e-09
7.69506e-05
-4.48422e-09
7.6953e-05
-1.37163e-08
7.69578e-05
-2.40675e-08
7.69652e-05
-3.62199e-08
7.69757e-05
-5.01519e-08
7.69897e-05
-6.61799e-08
7.70077e-05
-8.45592e-08
7.70304e-05
-1.05514e-07
7.70582e-05
-1.29468e-07
7.70919e-05
-1.56481e-07
7.71324e-05
-1.87069e-07
7.71803e-05
-2.21598e-07
7.72367e-05
-2.60283e-07
7.73026e-05
-3.03912e-07
7.73789e-05
-3.52405e-07
7.74671e-05
-4.07165e-07
7.75683e-05
-4.67824e-07
7.7684e-05
-5.36418e-07
7.7816e-05
-6.12544e-07
7.79134e-05
-4.51736e-07
7.80169e-05
-4.79918e-07
7.81262e-05
-5.07466e-07
7.82413e-05
-5.35922e-07
7.83625e-05
-5.65568e-07
7.84895e-05
-5.94885e-07
7.86227e-05
-6.26189e-07
7.87616e-05
-6.56357e-07
7.89071e-05
-6.90695e-07
7.90583e-05
-7.21926e-07
7.92168e-05
-7.61634e-07
7.93811e-05
-7.93458e-07
7.95539e-05
-8.43303e-07
7.97325e-05
-8.74022e-07
7.99217e-05
-9.43872e-07
8.01166e-05
-9.69739e-07
8.03258e-05
-1.07786e-06
8.05405e-05
-1.09167e-06
8.07764e-05
-1.27183e-06
8.10188e-05
-1.26419e-06
8.12957e-05
-1.58384e-06
8.15805e-05
-1.56641e-06
8.19252e-05
-2.18347e-06
8.22859e-05
-2.25795e-06
-3.69631e-06
8.25975e-05
9.39096e-05
-4.47172e-05
9.78234e-05
-5.29065e-06
0.000100487
-3.8258e-06
0.000101581
1.80332e-06
0.000101839
3.69076e-06
0.000101689
3.92702e-06
0.000101328
3.73453e-06
0.000100885
3.33926e-06
0.000100436
2.87695e-06
0.000100014
2.44574e-06
9.96324e-05
2.06972e-06
9.9294e-05
1.74941e-06
9.89978e-05
1.47902e-06
9.87398e-05