/*--------------------------------*- C++ -*----------------------------------*\
| =========                 |                                                 |
| \\      /  F ield         | OpenFOAM: The Open Source CFD Toolbox           |
|  \\    /   O peration     | Version:  2306                                  |
|   \\  /    A nd           | Website:  www.openfoam.com                      |
|    \\/     M anipulation  |                                                 |
\*---------------------------------------------------------------------------*/
FoamFile
{
    version     2.0;
    format      ascii;
    arch        "LSB;label=32;scalar=64";
    class       volSymmTensorField;
    location    "1800";
    object      turbulenceProperties:devReff;
}
// * * * * * * * * * * * * * * * * * * * * * * * * * * * * * * * * * * * * * //

dimensions      [0 2 -2 0 0 0 0];

internalField   nonuniform List<symmTensor> 
20540
(
(6.92672 -16.0488 -0 -6.78279 -0 -0.143928)
(25.3993 -30.0792 -0 -24.1812 -0 -1.21813)
(4.72948 -25.9682 -0 -4.78642 -0 0.0569409)
(11.5905 -51.3246 -0 -12.304 -0 0.713458)
(4.06341 -28.6278 -0 -4.11873 -0 0.0553199)
(5.66176 -56.7995 -0 -5.95614 -0 0.294386)
(3.67021 -29.8831 -0 -3.65491 -0 -0.0153058)
(2.71217 -59.6717 -0 -2.60226 -0 -0.10991)
(3.45973 -30.6079 -0 -3.44964 -0 -0.0100978)
(1.36568 -61.6522 -0 -1.29705 -0 -0.0686329)
(3.30707 -31.0509 -0 -3.30579 -0 -0.00127465)
(0.573893 -63.205 -0 -0.561228 -0 -0.0126648)
(3.18349 -31.2793 -0 -3.18409 -0 0.00060393)
(0.0278865 -64.4273 -0 -0.0283217 -0 0.000435186)
(3.08327 -31.3174 -0 -3.08352 -0 0.00024593)
(-0.357015 -65.3671 -0 0.357326 -0 -0.000310802)
(3.00108 -31.1765 -0 -3.00109 -0 5.99152e-06)
(-0.62275 -66.0678 -0 0.623802 -0 -0.00105182)
(2.93065 -30.8606 -0 -2.93065 -0 -6.69128e-06)
(-0.797352 -66.5644 -0 0.798196 -0 -0.000843645)
(2.86605 -30.3677 -0 -2.86606 -0 1.44288e-05)
(-0.896977 -66.8807 -0 0.897539 -0 -0.000561607)
(2.80162 -29.6909 -0 -2.80164 -0 1.629e-05)
(-0.929506 -67.0298 -0 0.929911 -0 -0.000404932)
(2.73166 -28.8195 -0 -2.73166 -0 2.60557e-06)
(-0.898133 -67.0145 -0 0.898424 -0 -0.000291254)
(2.6501 -27.7402 -0 -2.65008 -0 -2.9682e-05)
(-0.80358 -66.8262 -0 0.803734 -0 -0.000154323)
(2.55048 -26.4385 -0 -2.55038 -0 -0.000101495)
(-0.645517 -66.4442 -0 0.645472 -0 4.48664e-05)
(2.42604 -24.9002 -0 -2.4258 -0 -0.000240911)
(-0.42378 -65.8328 -0 0.423421 -0 0.000359004)
(2.27033 -23.1134 -0 -2.26991 -0 -0.000425201)
(-0.13972 -64.9374 -0 0.138859 -0 0.000861163)
(2.07857 -21.0715 -0 -2.07805 -0 -0.000512513)
(0.201946 -63.6794 -0 -0.203559 -0 0.0016136)
(1.84956 -18.779 -0 -1.849 -0 -0.00055559)
(0.590393 -61.9433 -0 -0.593049 -0 0.00265575)
(1.58806 -16.2718 -0 -1.58704 -0 -0.00101791)
(1.00462 -59.555 -0 -1.00887 -0 0.00425794)
(1.30177 -13.5924 -0 -1.30023 -0 -0.00153828)
(1.40962 -56.3008 -0 -1.41669 -0 0.00707058)
(1.00308 -10.7718 -0 -1.0029 -0 -0.000179856)
(1.75356 -51.931 -0 -1.76444 -0 0.0108782)
(0.718242 -7.88139 -0 -0.721466 -0 0.00322466)
(1.96192 -46.1371 -0 -1.97422 -0 0.0122997)
(0.475037 -5.06558 -0 -0.474495 -0 -0.000541778)
(1.93945 -38.6828 -0 -1.94807 -0 0.0086254)
(0.274474 -2.61663 -0 -0.259114 -0 -0.0153596)
(1.6132 -29.6485 -0 -1.62992 -0 0.0167155)
(-0.066429 -0.076346 -0 0.0838365 -0 -0.0174076)
(1.04319 -19.6071 -0 -1.08954 -0 0.0463569)
(-0.421418 1.70087 -0 0.421941 -0 -0.000523295)
(0.428056 -9.87732 -0 -0.458066 -0 0.0300095)
(-0.629779 2.11811 -0 0.641331 -0 -0.0115521)
(-0.0453689 -3.74545 -0 0.0337153 -0 0.0116537)
(-0.832862 1.89057 -0 0.858571 -0 -0.0257085)
(-0.67837 -0.793948 -0 0.622599 -0 0.0557718)
(-1.08119 1.26786 -0 1.10385 -0 -0.022665)
(-1.07293 0.652474 -0 0.990262 -0 0.082671)
(-1.28369 0.623666 -0 1.30507 -0 -0.0213762)
(-1.20779 0.63715 -0 1.13726 -0 0.0705298)
(-1.35681 0.179454 -0 1.38668 -0 -0.0298746)
(-1.31067 0.255266 -0 1.23366 -0 0.0770113)
(-1.35626 -0.177654 -0 1.38641 -0 -0.0301517)
(-1.31081 -0.232981 -0 1.23352 -0 0.0772939)
(-1.2844 -0.609538 -0 1.30622 -0 -0.0218168)
(-1.20735 -0.61421 -0 1.1385 -0 0.0688493)
(-1.09299 -1.214 -0 1.11501 -0 -0.0220147)
(-1.0731 -0.643094 -0 0.992572 -0 0.0805302)
(-0.855849 -1.80439 -0 0.881255 -0 -0.0254059)
(-0.722609 0.631433 -0 0.664315 -0 0.0582948)
(-0.655914 -2.04728 -0 0.668442 -0 -0.0125276)
(-0.0889128 3.34272 -0 0.078695 -0 0.0102177)
(-0.452172 -1.68062 -0 0.452569 -0 -0.000396742)
(0.337937 8.69911 -0 -0.36313 -0 0.0251923)
(-0.127116 -0.109259 -0 0.141318 -0 -0.0142019)
(0.905507 17.7777 -0 -0.95215 -0 0.0466428)
(0.237382 2.40883 -0 -0.221162 -0 -0.0162205)
(1.46539 27.4169 -0 -1.48411 -0 0.0187224)
(0.435812 4.74937 -0 -0.433859 -0 -0.00195376)
(1.81907 36.2273 -0 -1.82744 -0 0.00837477)
(0.669923 7.47535 -0 -0.673239 -0 0.00331604)
(1.88699 43.6406 -0 -1.89908 -0 0.0120939)
(0.948425 10.3169 -0 -0.948593 -0 0.00016844)
(1.72387 49.4904 -0 -1.73502 -0 0.0111545)
(1.24746 13.1218 -0 -1.24601 -0 -0.00144403)
(1.41715 53.9546 -0 -1.42463 -0 0.0074721)
(1.54037 15.8154 -0 -1.53929 -0 -0.00108695)
(1.03864 57.3122 -0 -1.04323 -0 0.00459391)
(1.81278 18.3646 -0 -1.81211 -0 -0.000667386)
(0.639699 59.7971 -0 -0.642622 -0 0.00292319)
(2.05434 20.7185 -0 -2.05374 -0 -0.000599343)
(0.256089 61.6231 -0 -0.257918 -0 0.00182854)
(2.25885 22.838 -0 -2.25838 -0 -0.000474152)
(-0.0901214 62.9625 -0 0.0890926 -0 0.00102871)
(2.42643 24.7143 -0 -2.42616 -0 -0.000272496)
(-0.38695 63.9314 -0 0.386454 -0 0.000496479)
(2.56117 26.3502 -0 -2.56105 -0 -0.000125666)
(-0.628586 64.6125 -0 0.62842 -0 0.000166698)
(2.669 27.7541 -0 -2.66895 -0 -4.81677e-05)
(-0.812785 65.0631 -0 0.81283 -0 -4.53079e-05)
(2.75633 28.9382 -0 -2.75632 -0 -1.10912e-05)
(-0.93922 65.3228 -0 0.93941 -0 -0.000189968)
(2.8294 29.9158 -0 -2.82941 -0 7.10594e-06)
(-1.00829 65.4164 -0 1.00858 -0 -0.000296652)
(2.89406 30.6998 -0 -2.89408 -0 1.51917e-05)
(-1.0201 65.3574 -0 1.0205 -0 -0.00039259)
(2.95576 31.3015 -0 -2.95577 -0 1.0584e-05)
(-0.973511 65.149 -0 0.974049 -0 -0.000537902)
(3.01972 31.7294 -0 -3.0197 -0 -1.28644e-05)
(-0.864785 64.7848 -0 0.865592 -0 -0.000807139)
(3.09117 31.9881 -0 -3.09117 -0 -4.22232e-06)
(-0.685551 64.2497 -0 0.68656 -0 -0.00100874)
(3.17583 32.0776 -0 -3.17606 -0 0.000229448)
(-0.419317 63.5186 -0 0.41966 -0 -0.000343073)
(3.27982 31.9913 -0 -3.28041 -0 0.000587917)
(-0.0378712 62.5556 -0 0.0377045 -0 0.000166763)
(3.40862 31.7149 -0 -3.40735 -0 -0.00126748)
(0.501391 61.3158 -0 -0.488687 -0 -0.0127042)
(3.56831 31.2201 -0 -3.55822 -0 -0.0100966)
(1.28519 59.7467 -0 -1.2195 -0 -0.0656917)
(3.7882 30.4347 -0 -3.77275 -0 -0.0154519)
(2.62056 57.7451 -0 -2.51845 -0 -0.102104)
(4.19354 29.1061 -0 -4.24906 -0 0.0555156)
(5.52238 54.8662 -0 -5.80571 -0 0.283328)
(4.87237 26.3537 -0 -4.93 -0 0.0576235)
(11.3087 49.4879 -0 -11.9816 -0 0.672883)
(7.09069 16.1953 -0 -6.94701 -0 -0.143681)
(24.476 28.8231 -0 -23.3299 -0 -1.14612)
(0.00936666 -16.9668 -0 -0.00941341 -0 4.67518e-05)
(0.00283943 -9.49165 -0 -0.00285561 -0 1.61779e-05)
(0.000671025 -8.18984 -0 -0.000678225 -0 7.20038e-06)
(0.000393556 -7.45809 -0 -0.000392944 -0 -6.12282e-07)
(0.000252301 -7.00643 -0 -0.000250277 -0 -2.02461e-06)
(0.000172817 -6.71429 -0 -0.000170868 -0 -1.94935e-06)
(0.000126579 -6.51101 -0 -0.000124815 -0 -1.764e-06)
(9.67868e-05 -6.36232 -0 -9.5252e-05 -0 -1.53482e-06)
(7.61599e-05 -6.25042 -0 -7.48612e-05 -0 -1.29871e-06)
(6.14111e-05 -6.16409 -0 -6.03096e-05 -0 -1.10155e-06)
(5.04746e-05 -6.09603 -0 -4.95324e-05 -0 -9.42235e-07)
(4.21215e-05 -6.04158 -0 -4.13122e-05 -0 -8.09315e-07)
(3.55444e-05 -5.99737 -0 -3.48454e-05 -0 -6.98924e-07)
(3.03494e-05 -5.96126 -0 -2.97423e-05 -0 -6.0703e-07)
(2.61106e-05 -5.93123 -0 -2.55798e-05 -0 -5.30761e-07)
(2.26076e-05 -5.90638 -0 -2.2142e-05 -0 -4.6561e-07)
(1.97118e-05 -5.88542 -0 -1.93014e-05 -0 -4.10482e-07)
(1.7278e-05 -5.86786 -0 -1.69149e-05 -0 -3.6302e-07)
(1.5256e-05 -5.85288 -0 -1.49331e-05 -0 -3.22874e-07)
(1.34754e-05 -5.84016 -0 -1.31873e-05 -0 -2.8808e-07)
(1.20024e-05 -5.82929 -0 -1.17449e-05 -0 -2.57525e-07)
(1.07297e-05 -5.81991 -0 -1.04981e-05 -0 -2.31599e-07)
(9.60793e-06 -5.81184 -0 -9.39906e-06 -0 -2.08868e-07)
(8.62783e-06 -5.80485 -0 -8.43904e-06 -0 -1.88794e-07)
(7.79739e-06 -5.79881 -0 -7.62634e-06 -0 -1.71042e-07)
(7.06483e-06 -5.7935 -0 -6.90919e-06 -0 -1.55638e-07)
(6.42084e-06 -5.7889 -0 -6.27866e-06 -0 -1.42179e-07)
(5.84736e-06 -5.78482 -0 -5.71725e-06 -0 -1.30108e-07)
(5.34057e-06 -5.78128 -0 -5.22135e-06 -0 -1.19224e-07)
(4.9028e-06 -5.77812 -0 -4.79302e-06 -0 -1.09784e-07)
(4.51239e-06 -5.77535 -0 -4.41113e-06 -0 -1.01267e-07)
(4.16033e-06 -5.77286 -0 -4.06749e-06 -0 -9.2844e-08)
(3.86257e-06 -5.77067 -0 -3.77705e-06 -0 -8.55167e-08)
(3.60678e-06 -5.76868 -0 -3.5271e-06 -0 -7.96807e-08)
(3.28395e-06 -5.76692 -0 -3.21056e-06 -0 -7.33932e-08)
(3.0449e-06 -5.76538 -0 -2.9787e-06 -0 -6.61988e-08)
(2.82168e-06 -5.76397 -0 -2.7625e-06 -0 -5.91788e-08)
(2.59233e-06 -5.76275 -0 -2.54078e-06 -0 -5.15509e-08)
(2.36895e-06 -5.76165 -0 -2.32558e-06 -0 -4.33672e-08)
(2.05204e-06 -5.76071 -0 -2.01804e-06 -0 -3.40026e-08)
(1.73491e-06 -5.75995 -0 -1.71281e-06 -0 -2.21073e-08)
(1.40809e-06 -5.75933 -0 -1.40054e-06 -0 -7.54676e-09)
(1.0276e-06 -5.75887 -0 -1.03751e-06 -0 9.91064e-09)
(5.52063e-07 -5.75859 -0 -5.83244e-07 -0 3.11813e-08)
(5.98285e-09 -5.75851 -0 -6.51562e-08 -0 5.91734e-08)
(-7.30994e-07 -5.75862 -0 6.40022e-07 -0 9.09716e-08)
(-1.60619e-06 -5.75904 -0 1.47643e-06 -0 1.29759e-07)
(-2.62842e-06 -5.75971 -0 2.44447e-06 -0 1.83947e-07)
(-3.89113e-06 -5.76074 -0 3.64344e-06 -0 2.47681e-07)
(-5.43238e-06 -5.76212 -0 5.10887e-06 -0 3.23506e-07)
(-7.27346e-06 -5.76397 -0 6.85596e-06 -0 4.17493e-07)
(-9.51812e-06 -5.76629 -0 8.98572e-06 -0 5.32404e-07)
(-1.22462e-05 -5.76921 -0 1.15735e-05 -0 6.72673e-07)
(-1.53687e-05 -5.77278 -0 1.45205e-05 -0 8.4822e-07)
(-1.91601e-05 -5.77707 -0 1.81019e-05 -0 1.0582e-06)
(-2.35933e-05 -5.78221 -0 2.22762e-05 -0 1.31709e-06)
(-2.89063e-05 -5.78826 -0 2.7284e-05 -0 1.6223e-06)
(-3.50597e-05 -5.79543 -0 3.30746e-05 -0 1.98517e-06)
(-4.23603e-05 -5.80371 -0 3.99603e-05 -0 2.39992e-06)
(-5.08516e-05 -5.81341 -0 4.79612e-05 -0 2.89042e-06)
(-6.09064e-05 -5.82451 -0 5.74899e-05 -0 3.41653e-06)
(-7.27212e-05 -5.83738 -0 6.86319e-05 -0 4.0893e-06)
(-8.71639e-05 -5.85208 -0 8.23832e-05 -0 4.78069e-06)
(-0.000101117 -5.86634 -0 9.51689e-05 -0 5.94831e-06)
(-0.000113021 -5.8786 -0 0.000105559 -0 7.46245e-06)
(-0.000125537 -5.89165 -0 0.000117426 -0 8.11101e-06)
(-0.000140423 -5.90527 -0 0.000131463 -0 8.95984e-06)
(-0.000156298 -5.91996 -0 0.000146271 -0 1.00269e-05)
(-0.000174014 -5.93525 -0 0.000163229 -0 1.07855e-05)
(-0.000193362 -5.95161 -0 0.000181415 -0 1.19477e-05)
(-0.000215041 -5.96867 -0 0.000202719 -0 1.23226e-05)
(-0.000238689 -5.98678 -0 0.000225311 -0 1.33783e-05)
(-0.000266621 -6.00575 -0 0.000253595 -0 1.3026e-05)
(-0.000297366 -6.02586 -0 0.000282844 -0 1.45221e-05)
(-0.000333299 -6.04718 -0 0.000320355 -0 1.29435e-05)
(-0.000374426 -6.0695 -0 0.000358295 -0 1.61309e-05)
(-0.00041952 -6.0939 -0 0.000408383 -0 1.11379e-05)
(-0.000476581 -6.11836 -0 0.00045929 -0 1.72909e-05)
(-0.000534981 -6.147 -0 0.000533003 -0 1.97727e-06)
(-0.000624123 -6.1732 -0 0.000608661 -0 1.54621e-05)
(-0.000698508 -6.20879 -0 0.000724106 -0 -2.55974e-05)
(-0.00088525 -6.23519 -0 0.000871011 -0 1.42393e-05)
(-0.000918558 -6.28671 -0 0.00100395 -0 -8.53921e-05)
(-0.00133757 -6.30483 -0 0.0013004 -0 3.71706e-05)
(-0.00176142 -6.392 -0 0.00195797 -0 -0.000196555)
(-0.00214534 -6.42074 -0 0.00203692 -0 0.000108416)
(-0.00124099 -6.53682 -0 0.00207466 -0 -0.00083367)
(-0.0967236 -6.53506 8.78363e-21 0.0959468 -0 0.000776782)
(0.00925244 -10.5419 -0 -0.00879242 -0 -0.000460019)
(0.00375383 -5.51886 -0 -0.00371435 -0 -3.94757e-05)
(0.00104522 -4.73603 -0 -0.00104391 -0 -1.3012e-06)
(0.000636551 -4.31358 -0 -0.00063731 -0 7.58674e-07)
(0.000416299 -4.05705 -0 -0.000417372 -0 1.07219e-06)
(0.000287933 -3.89215 -0 -0.00028894 -0 1.00644e-06)
(0.000212535 -3.77836 -0 -0.000213422 -0 8.86775e-07)
(0.000163332 -3.69555 -0 -0.000164068 -0 7.36528e-07)
(0.000128905 -3.63337 -0 -0.000129514 -0 6.08863e-07)
(0.000104176 -3.58549 -0 -0.000104687 -0 5.11949e-07)
(8.57758e-05 -3.54782 -0 -8.62085e-05 -0 4.32665e-07)
(7.16755e-05 -3.51771 -0 -7.20441e-05 -0 3.68591e-07)
(6.05492e-05 -3.49329 -0 -6.08654e-05 -0 3.16171e-07)
(5.17421e-05 -3.47336 -0 -5.20156e-05 -0 2.73476e-07)
(4.4552e-05 -3.4568 -0 -4.47901e-05 -0 2.38121e-07)
(3.86023e-05 -3.4431 -0 -3.88108e-05 -0 2.08492e-07)
(3.36781e-05 -3.43155 -0 -3.38613e-05 -0 1.8328e-07)
(2.95348e-05 -3.42188 -0 -2.96967e-05 -0 1.61875e-07)
(2.60885e-05 -3.41363 -0 -2.62321e-05 -0 1.43632e-07)
(2.3059e-05 -3.40662 -0 -2.31872e-05 -0 1.28225e-07)
(2.0542e-05 -3.40064 -0 -2.06562e-05 -0 1.14224e-07)
(1.83703e-05 -3.39548 -0 -1.84729e-05 -0 1.02668e-07)
(1.64576e-05 -3.39105 -0 -1.655e-05 -0 9.24831e-08)
(1.47843e-05 -3.3872 -0 -1.48678e-05 -0 8.34427e-08)
(1.33625e-05 -3.38388 -0 -1.34379e-05 -0 7.53211e-08)
(1.21096e-05 -3.38096 -0 -1.21779e-05 -0 6.83412e-08)
(1.10081e-05 -3.37843 -0 -1.10703e-05 -0 6.22219e-08)
(1.00272e-05 -3.37619 -0 -1.00839e-05 -0 5.66867e-08)
(9.1591e-06 -3.37424 -0 -9.2107e-06 -0 5.16028e-08)
(8.40634e-06 -3.3725 -0 -8.45358e-06 -0 4.72386e-08)
(7.73628e-06 -3.37098 -0 -7.77962e-06 -0 4.3334e-08)
(7.13251e-06 -3.36961 -0 -7.17167e-06 -0 3.91684e-08)
(6.61328e-06 -3.3684 -0 -6.64891e-06 -0 3.56391e-08)
(6.16724e-06 -3.36731 -0 -6.20012e-06 -0 3.28832e-08)
(5.6202e-06 -3.36633 -0 -5.65035e-06 -0 3.01512e-08)
(5.20019e-06 -3.36548 -0 -5.22668e-06 -0 2.64879e-08)
(4.80569e-06 -3.3647 -0 -4.82875e-06 -0 2.30535e-08)
(4.3967e-06 -3.36402 -0 -4.41588e-06 -0 1.91749e-08)
(3.9942e-06 -3.3634 -0 -4.00878e-06 -0 1.45723e-08)
(3.43805e-06 -3.36287 -0 -3.44776e-06 -0 9.70423e-09)
(2.86381e-06 -3.36243 -0 -2.86675e-06 -0 2.94057e-09)
(2.25909e-06 -3.36206 -0 -2.25313e-06 -0 -5.95696e-09)
(1.55339e-06 -3.36177 -0 -1.53687e-06 -0 -1.65161e-08)
(6.74718e-07 -3.36157 -0 -6.45063e-07 -0 -2.96552e-08)
(-3.61715e-07 -3.36146 -0 4.09825e-07 -0 -4.81099e-08)
(-1.71303e-06 -3.36145 -0 1.78019e-06 -0 -6.71656e-08)
(-3.32805e-06 -3.36158 -0 3.41965e-06 -0 -9.16058e-08)
(-5.28429e-06 -3.36182 -0 5.41325e-06 -0 -1.28964e-07)
(-7.66577e-06 -3.36224 -0 7.83614e-06 -0 -1.70375e-07)
(-1.05529e-05 -3.36281 -0 1.07697e-05 -0 -2.16796e-07)
(-1.40337e-05 -3.3636 -0 1.43112e-05 -0 -2.77499e-07)
(-1.82606e-05 -3.36459 -0 1.86072e-05 -0 -3.4652e-07)
(-2.33917e-05 -3.36587 -0 2.38189e-05 -0 -4.27198e-07)
(-2.93207e-05 -3.36743 -0 2.98426e-05 -0 -5.21818e-07)
(-3.64732e-05 -3.36932 -0 3.70993e-05 -0 -6.26099e-07)
(-4.48693e-05 -3.37158 -0 4.56227e-05 -0 -7.53407e-07)
(-5.48698e-05 -3.37425 -0 5.5764e-05 -0 -8.94217e-07)
(-6.65202e-05 -3.37741 -0 6.76006e-05 -0 -1.08048e-06)
(-8.02533e-05 -3.38106 -0 8.15401e-05 -0 -1.2868e-06)
(-9.63155e-05 -3.38533 -0 9.78718e-05 -0 -1.55632e-06)
(-0.000115182 -3.3902 -0 0.000117064 -0 -1.88216e-06)
(-0.000137409 -3.39586 -0 0.000139639 -0 -2.23001e-06)
(-0.000164153 -3.40227 -0 0.0001668 -0 -2.64705e-06)
(-0.000190311 -3.40846 -0 0.000193099 -0 -2.7884e-06)
(-0.000212748 -3.41375 -0 0.000215165 -0 -2.41724e-06)
(-0.000236151 -3.41943 -0 0.000239257 -0 -3.10519e-06)
(-0.000263752 -3.42527 -0 0.000267236 -0 -3.48361e-06)
(-0.00029364 -3.43158 -0 0.000297668 -0 -4.02873e-06)
(-0.000326017 -3.43807 -0 0.000330675 -0 -4.65773e-06)
(-0.000362301 -3.44502 -0 0.000367814 -0 -5.51229e-06)
(-0.000401414 -3.45219 -0 0.000408087 -0 -6.67262e-06)
(-0.000445877 -3.4598 -0 0.00045391 -0 -8.03253e-06)
(-0.00049467 -3.46764 -0 0.000504736 -0 -1.00663e-05)
(-0.000552227 -3.47598 -0 0.000563988 -0 -1.17611e-05)
(-0.000612141 -3.4846 -0 0.000627496 -0 -1.53551e-05)
(-0.000690049 -3.4937 -0 0.000707182 -0 -1.71331e-05)
(-0.000760191 -3.50325 -0 0.00078443 -0 -2.42391e-05)
(-0.000872446 -3.51305 -0 0.000898797 -0 -2.63509e-05)
(-0.0009517 -3.52381 -0 0.000993323 -0 -4.1623e-05)
(-0.00113617 -3.53419 -0 0.00117908 -0 -4.29097e-05)
(-0.00121154 -3.54686 -0 0.00128771 -0 -7.61628e-05)
(-0.00159616 -3.55716 -0 0.00166252 -0 -6.63606e-05)
(-0.00156 -3.57462 -0 0.00170749 -0 -0.000147482)
(-0.00240581 -3.57919 -0 0.00249754 -0 -9.17301e-05)
(-0.00273861 -3.60966 -0 0.00300225 -0 -0.000263637)
(-0.00385986 -3.61114 -0 0.004125 -0 -0.000265136)
(-0.00500097 -3.63564 -0 0.0049208 -0 8.01661e-05)
(-0.040255 -3.75132 -7.85773e-21 0.0377201 -0 0.00253489)
(0.0102713 -11.5385 -0 -0.0108911 -0 0.000619748)
(0.00561881 -6.41318 -0 -0.00567378 -0 5.49766e-05)
(0.00189731 -5.55024 -0 -0.00191513 -0 1.78134e-05)
(0.00124245 -5.06532 -0 -0.00125406 -0 1.161e-05)
(0.00083895 -4.76395 -0 -0.000846837 -0 7.88762e-06)
(0.000588923 -4.56744 -0 -0.000594555 -0 5.63208e-06)
(0.000439389 -4.43085 -0 -0.00044359 -0 4.20096e-06)
(0.000339856 -4.33095 -0 -0.000343089 -0 3.23233e-06)
(0.000269177 -4.25564 -0 -0.000271736 -0 2.55896e-06)
(0.000218096 -4.1975 -0 -0.000220171 -0 2.0751e-06)
(0.000179924 -4.15167 -0 -0.000181634 -0 1.70993e-06)
(0.000150553 -4.11499 -0 -0.000151984 -0 1.43058e-06)
(0.000127322 -4.0852 -0 -0.000128532 -0 1.20932e-06)
(0.000108888 -4.06086 -0 -0.000109923 -0 1.0344e-06)
(9.38353e-05 -4.04063 -0 -9.47264e-05 -0 8.91133e-07)
(8.13624e-05 -4.02388 -0 -8.21355e-05 -0 7.73045e-07)
(7.10272e-05 -4.00975 -0 -7.17019e-05 -0 6.74621e-07)
(6.23214e-05 -3.99791 -0 -6.29135e-05 -0 5.9214e-07)
(5.50695e-05 -3.98781 -0 -5.55925e-05 -0 5.23025e-07)
(4.87129e-05 -3.97924 -0 -4.91758e-05 -0 4.62958e-07)
(4.34012e-05 -3.97191 -0 -4.38132e-05 -0 4.12015e-07)
(3.8828e-05 -3.96559 -0 -3.91966e-05 -0 3.68665e-07)
(3.48056e-05 -3.96015 -0 -3.51359e-05 -0 3.30293e-07)
(3.12814e-05 -3.95544 -0 -3.1578e-05 -0 2.96664e-07)
(2.82755e-05 -3.95136 -0 -2.85432e-05 -0 2.67679e-07)
(2.56306e-05 -3.94778 -0 -2.58729e-05 -0 2.42354e-07)
(2.33052e-05 -3.94468 -0 -2.35251e-05 -0 2.19931e-07)
(2.12348e-05 -3.94193 -0 -2.14347e-05 -0 1.99878e-07)
(1.94005e-05 -3.93954 -0 -1.95828e-05 -0 1.82228e-07)
(1.77991e-05 -3.93741 -0 -1.79656e-05 -0 1.66524e-07)
(1.63777e-05 -3.93554 -0 -1.65302e-05 -0 1.52523e-07)
(1.51034e-05 -3.93386 -0 -1.52437e-05 -0 1.40267e-07)
(1.39786e-05 -3.93238 -0 -1.41081e-05 -0 1.29491e-07)
(1.30095e-05 -3.93103 -0 -1.31295e-05 -0 1.19963e-07)
(1.1874e-05 -3.92983 -0 -1.1984e-05 -0 1.09978e-07)
(1.09581e-05 -3.92879 -0 -1.10592e-05 -0 1.0114e-07)
(1.00883e-05 -3.92783 -0 -1.01814e-05 -0 9.31825e-08)
(9.17769e-06 -3.92699 -0 -9.26296e-06 -0 8.52717e-08)
(8.27185e-06 -3.92622 -0 -8.34935e-06 -0 7.75013e-08)
(7.06318e-06 -3.92556 -0 -7.13174e-06 -0 6.85595e-08)
(5.76249e-06 -3.925 -0 -5.8205e-06 -0 5.80072e-08)
(4.35973e-06 -3.92453 -0 -4.40631e-06 -0 4.65869e-08)
(2.71891e-06 -3.92416 -0 -2.75283e-06 -0 3.39164e-08)
(6.84313e-07 -3.92387 -0 -7.02892e-07 -0 1.85785e-08)
(-1.78473e-06 -3.92371 -0 1.78512e-06 -0 -3.85543e-10)
(-4.8986e-06 -3.92364 -0 4.92254e-06 -0 -2.39448e-08)
(-8.64073e-06 -3.92374 -0 8.692e-06 -0 -5.12677e-08)
(-1.3338e-05 -3.92397 -0 1.34262e-05 -0 -8.81581e-08)
(-1.8989e-05 -3.92439 -0 1.912e-05 -0 -1.30953e-07)
(-2.58006e-05 -3.92498 -0 2.59796e-05 -0 -1.7898e-07)
(-3.40751e-05 -3.92581 -0 3.4314e-05 -0 -2.38931e-07)
(-4.40776e-05 -3.92687 -0 4.43821e-05 -0 -3.04461e-07)
(-5.62069e-05 -3.92824 -0 5.65859e-05 -0 -3.7896e-07)
(-7.03613e-05 -3.92992 -0 7.08191e-05 -0 -4.57744e-07)
(-8.73416e-05 -3.93195 -0 8.78766e-05 -0 -5.3499e-07)
(-0.00010736 -3.9344 -0 0.000107991 -0 -6.31238e-07)
(-0.000131099 -3.93728 -0 0.000131816 -0 -7.16851e-07)
(-0.000158941 -3.94072 -0 0.000159801 -0 -8.60246e-07)
(-0.000191605 -3.94466 -0 0.000192596 -0 -9.90485e-07)
(-0.000230035 -3.9493 -0 0.000231245 -0 -1.20975e-06)
(-0.000274935 -3.95455 -0 0.000276406 -0 -1.47083e-06)
(-0.000327966 -3.96068 -0 0.000329732 -0 -1.76598e-06)
(-0.00039113 -3.96759 -0 0.000393291 -0 -2.1609e-06)
(-0.000453344 -3.97422 -0 0.000455098 -0 -1.75352e-06)
(-0.000507331 -3.97989 -0 0.000507682 -0 -3.51334e-07)
(-0.000563753 -3.98604 -0 0.000564692 -0 -9.38318e-07)
(-0.000629409 -3.99231 -0 0.000630351 -0 -9.41496e-07)
(-0.000701436 -3.9991 -0 0.000702714 -0 -1.27763e-06)
(-0.000779005 -4.00602 -0 0.000780663 -0 -1.65758e-06)
(-0.000866427 -4.01348 -0 0.000868872 -0 -2.44551e-06)
(-0.00095961 -4.02109 -0 0.000963285 -0 -3.67494e-06)
(-0.00106757 -4.02918 -0 0.00107288 -0 -5.30942e-06)
(-0.0011813 -4.03743 -0 0.00118932 -0 -8.02283e-06)
(-0.0013221 -4.04622 -0 0.00133186 -0 -9.76847e-06)
(-0.00145858 -4.05515 -0 0.00147353 -0 -1.49534e-05)
(-0.00165281 -4.06465 -0 0.00166841 -0 -1.5596e-05)
(-0.00180799 -4.07438 -0 0.00183441 -0 -2.64271e-05)
(-0.00209773 -4.08457 -0 0.00212342 -0 -2.56944e-05)
(-0.00225706 -4.0953 -0 0.00230815 -0 -5.10888e-05)
(-0.00274285 -4.10616 -0 0.00278845 -0 -4.55949e-05)
(-0.00285915 -4.1183 -0 0.00296333 -0 -0.000104173)
(-0.00381617 -4.12919 -0 0.00388682 -0 -7.0653e-05)
(-0.00372703 -4.14516 -0 0.00393744 -0 -0.000210412)
(-0.00571766 -4.14888 -0 0.00578305 -0 -6.53818e-05)
(-0.00609527 -4.17781 -0 0.00651319 -0 -0.000417913)
(-0.00911251 -4.17296 -0 0.00905671 -0 5.58044e-05)
(-0.0165532 -4.20547 -0 0.0173783 -0 -0.000825077)
(-0.0247384 -4.18408 -0 0.0295137 -0 -0.00477527)
(0.00228167 -11.7296 -0 -0.00231856 -0 3.68894e-05)
(0.00734838 -6.54527 -0 -0.00730383 -0 -4.45515e-05)
(0.00299114 -5.68881 -0 -0.00298325 -0 -7.89592e-06)
(0.00217662 -5.2168 -0 -0.0021745 -0 -2.12525e-06)
(0.00153703 -4.92365 -0 -0.00153665 -0 -3.83197e-07)
(0.00110279 -4.73173 -0 -0.00110302 -0 2.27257e-07)
(0.000834896 -4.59815 -0 -0.000835206 -0 3.09158e-07)
(0.000651917 -4.50031 -0 -0.000652207 -0 2.90138e-07)
(0.000519437 -4.42643 -0 -0.000519713 -0 2.75419e-07)
(0.000422695 -4.36933 -0 -0.000422949 -0 2.5399e-07)
(0.000349874 -4.32428 -0 -0.000350099 -0 2.24636e-07)
(0.000293499 -4.28821 -0 -0.000293699 -0 2.0007e-07)
(0.000248716 -4.25889 -0 -0.000248893 -0 1.76991e-07)
(0.000213038 -4.23493 -0 -0.000213196 -0 1.57678e-07)
(0.000183854 -4.215 -0 -0.000183993 -0 1.39592e-07)
(0.000159612 -4.1985 -0 -0.000159737 -0 1.24627e-07)
(0.000139484 -4.18458 -0 -0.000139595 -0 1.10657e-07)
(0.000122496 -4.17292 -0 -0.000122595 -0 9.90682e-08)
(0.000108318 -4.16296 -0 -0.000108406 -0 8.84779e-08)
(9.5911e-05 -4.15451 -0 -9.59905e-05 -0 7.94306e-08)
(8.54877e-05 -4.14728 -0 -8.55587e-05 -0 7.10115e-08)
(7.65242e-05 -4.14104 -0 -7.65883e-05 -0 6.40584e-08)
(6.86459e-05 -4.13568 -0 -6.87034e-05 -0 5.74847e-08)
(6.17337e-05 -4.13103 -0 -6.17853e-05 -0 5.16958e-08)
(5.58162e-05 -4.12701 -0 -5.58626e-05 -0 4.64347e-08)
(5.06141e-05 -4.12348 -0 -5.0656e-05 -0 4.18636e-08)
(4.60405e-05 -4.12042 -0 -4.60782e-05 -0 3.76568e-08)
(4.19669e-05 -4.1177 -0 -4.20007e-05 -0 3.38241e-08)
(3.83543e-05 -4.11534 -0 -3.83846e-05 -0 3.0319e-08)
(3.51865e-05 -4.11324 -0 -3.52139e-05 -0 2.74398e-08)
(3.23781e-05 -4.11139 -0 -3.24029e-05 -0 2.47367e-08)
(2.98616e-05 -4.10973 -0 -2.98836e-05 -0 2.19835e-08)
(2.76067e-05 -4.10827 -0 -2.76273e-05 -0 2.05744e-08)
(2.56645e-05 -4.10693 -0 -2.56839e-05 -0 1.93805e-08)
(2.34643e-05 -4.10575 -0 -2.34823e-05 -0 1.80221e-08)
(2.16181e-05 -4.10472 -0 -2.16352e-05 -0 1.71178e-08)
(1.98527e-05 -4.10376 -0 -1.98702e-05 -0 1.74513e-08)
(1.79972e-05 -4.10293 -0 -1.80156e-05 -0 1.84186e-08)
(1.61379e-05 -4.10217 -0 -1.61573e-05 -0 1.93909e-08)
(1.37284e-05 -4.1015 -0 -1.375e-05 -0 2.15914e-08)
(1.10664e-05 -4.10095 -0 -1.1091e-05 -0 2.46207e-08)
(8.1486e-06 -4.10047 -0 -8.17696e-06 -0 2.83598e-08)
(4.73469e-06 -4.10008 -0 -4.76831e-06 -0 3.36216e-08)
(5.18628e-07 -4.09978 -0 -5.59354e-07 -0 4.07254e-08)
(-4.68204e-06 -4.09958 -0 4.63181e-06 -0 5.02267e-08)
(-1.11253e-05 -4.09947 -0 1.1065e-05 -0 6.02955e-08)
(-1.8859e-05 -4.09953 -0 1.87811e-05 -0 7.79613e-08)
(-2.87681e-05 -4.09969 -0 2.86716e-05 -0 9.65005e-08)
(-4.06447e-05 -4.10003 -0 4.05277e-05 -0 1.17006e-07)
(-5.48974e-05 -4.10052 -0 5.47467e-05 -0 1.50627e-07)
(-7.22804e-05 -4.10123 -0 7.20916e-05 -0 1.8889e-07)
(-9.32284e-05 -4.10214 -0 9.29836e-05 -0 2.44784e-07)
(-0.000118608 -4.10333 -0 0.000118288 -0 3.20154e-07)
(-0.000148397 -4.1048 -0 0.000147974 -0 4.23393e-07)
(-0.000184014 -4.10657 -0 0.000183445 -0 5.69482e-07)
(-0.000226093 -4.10872 -0 0.000225356 -0 7.37103e-07)
(-0.000275876 -4.11124 -0 0.000274903 -0 9.7227e-07)
(-0.000334431 -4.11425 -0 0.000333238 -0 1.19323e-06)
(-0.000402956 -4.1177 -0 0.000401458 -0 1.49786e-06)
(-0.000483727 -4.12176 -0 0.000481949 -0 1.77801e-06)
(-0.000577804 -4.12635 -0 0.000575723 -0 2.08105e-06)
(-0.000688928 -4.13172 -0 0.000686431 -0 2.49732e-06)
(-0.000819987 -4.13772 -0 0.000817031 -0 2.95589e-06)
(-0.0009503 -4.14347 -0 0.000945867 -0 4.43311e-06)
(-0.00106511 -4.14835 -0 0.001058 -0 7.10776e-06)
(-0.00118394 -4.1537 -0 0.00117693 -0 7.01566e-06)
(-0.00132067 -4.1591 -0 0.00131274 -0 7.93463e-06)
(-0.00147149 -4.16495 -0 0.00146292 -0 8.57151e-06)
(-0.00163324 -4.17085 -0 0.00162406 -0 9.17536e-06)
(-0.0018157 -4.17723 -0 0.0018063 -0 9.40374e-06)
(-0.00200838 -4.18367 -0 0.00199933 -0 9.05819e-06)
(-0.00223358 -4.19052 -0 0.00222503 -0 8.54991e-06)
(-0.00246447 -4.19743 -0 0.00245801 -0 6.46697e-06)
(-0.00275825 -4.20479 -0 0.00275168 -0 6.56876e-06)
(-0.00302996 -4.21213 -0 0.00302858 -0 1.37987e-06)
(-0.00343811 -4.21999 -0 0.00343402 -0 4.09211e-06)
(-0.00373847 -4.22777 -0 0.00374759 -0 -9.12244e-06)
(-0.00435497 -4.2361 -0 0.00435721 -0 -2.24841e-06)
(-0.00463802 -4.24435 -0 0.00467526 -0 -3.72367e-05)
(-0.00567555 -4.25318 -0 0.00569319 -0 -1.76396e-05)
(-0.00582247 -4.26195 -0 0.0059256 -0 -0.000103123)
(-0.00780493 -4.27076 -0 0.00783808 -0 -3.31455e-05)
(-0.00752929 -4.2816 -0 0.0077638 -0 -0.000234509)
(-0.0116628 -4.28386 -0 0.011665 -0 -2.21219e-06)
(-0.0114309 -4.30412 -0 0.0118736 -0 -0.000442653)
(-0.0190306 -4.29429 -0 0.0190264 -0 4.24703e-06)
(-0.0296992 -4.33226 -0 0.03009 -0 -0.000390788)
(-0.029427 -4.17548 -0 0.030268 -0 -0.00084094)
(-0.0199877 -11.6398 -0 0.0199883 -0 -5.71998e-07)
(0.00824129 -6.49433 -0 -0.0081947 -0 -4.65987e-05)
(0.00397005 -5.62217 -0 -0.00395394 -0 -1.61056e-05)
(0.00330877 -5.15628 -0 -0.00329833 -0 -1.04406e-05)
(0.0024615 -4.8702 -0 -0.00245496 -0 -6.54193e-06)
(0.00180988 -4.68288 -0 -0.00180555 -0 -4.32853e-06)
(0.00139127 -4.55266 -0 -0.00138799 -0 -3.28206e-06)
(0.00109713 -4.45732 -0 -0.00109451 -0 -2.62133e-06)
(0.000879751 -4.38526 -0 -0.000877645 -0 -2.1053e-06)
(0.000719126 -4.32954 -0 -0.000717406 -0 -1.71931e-06)
(0.000597265 -4.28558 -0 -0.00059583 -0 -1.43461e-06)
(0.00050233 -4.25036 -0 -0.000501122 -0 -1.2085e-06)
(0.000426572 -4.22174 -0 -0.000425544 -0 -1.02837e-06)
(0.000365969 -4.19834 -0 -0.000365086 -0 -8.82499e-07)
(0.000316294 -4.17887 -0 -0.00031553 -0 -7.6394e-07)
(0.000274934 -4.16276 -0 -0.00027427 -0 -6.63647e-07)
(0.000240517 -4.14916 -0 -0.000239936 -0 -5.81216e-07)
(0.000211416 -4.13777 -0 -0.000210905 -0 -5.1061e-07)
(0.000187079 -4.12803 -0 -0.000186627 -0 -4.52423e-07)
(0.000165808 -4.11978 -0 -0.000165408 -0 -4.00462e-07)
(0.00014786 -4.11272 -0 -0.000147502 -0 -3.57924e-07)
(0.000132431 -4.10663 -0 -0.00013211 -0 -3.2057e-07)
(0.000118877 -4.10139 -0 -0.000118589 -0 -2.88212e-07)
(0.000106972 -4.09684 -0 -0.000106713 -0 -2.59665e-07)
(9.67488e-05 -4.09292 -0 -9.65132e-05 -0 -2.3566e-07)
(8.77651e-05 -4.08947 -0 -8.75507e-05 -0 -2.14405e-07)
(7.98659e-05 -4.08648 -0 -7.967e-05 -0 -1.95906e-07)
(7.28282e-05 -4.08382 -0 -7.26487e-05 -0 -1.7953e-07)
(6.65821e-05 -4.08152 -0 -6.64171e-05 -0 -1.64995e-07)
(6.10872e-05 -4.07946 -0 -6.09349e-05 -0 -1.5231e-07)
(5.62178e-05 -4.07766 -0 -5.60768e-05 -0 -1.41048e-07)
(5.18578e-05 -4.07603 -0 -5.17268e-05 -0 -1.30991e-07)
(4.79105e-05 -4.07459 -0 -4.77892e-05 -0 -1.21364e-07)
(4.45086e-05 -4.07329 -0 -4.43952e-05 -0 -1.13461e-07)
(4.07576e-05 -4.07213 -0 -4.06544e-05 -0 -1.03179e-07)
(3.75232e-05 -4.07112 -0 -3.74289e-05 -0 -9.43598e-08)
(3.44186e-05 -4.07018 -0 -3.43335e-05 -0 -8.51088e-08)
(3.11534e-05 -4.06936 -0 -3.10787e-05 -0 -7.4749e-08)
(2.78701e-05 -4.0686 -0 -2.78055e-05 -0 -6.46084e-08)
(2.37116e-05 -4.06794 -0 -2.36618e-05 -0 -4.98e-08)
(1.90472e-05 -4.06738 -0 -1.90142e-05 -0 -3.29548e-08)
(1.38872e-05 -4.0669 -0 -1.38726e-05 -0 -1.46026e-08)
(7.85713e-06 -4.06649 -0 -7.86495e-06 -0 7.81596e-09)
(4.39661e-07 -4.06615 -0 -4.7563e-07 -0 3.59687e-08)
(-8.77802e-06 -4.06591 -0 8.70679e-06 -0 7.12305e-08)
(-2.01303e-05 -4.06575 -0 2.00192e-05 -0 1.11064e-07)
(-3.36847e-05 -4.06573 -0 3.35185e-05 -0 1.66179e-07)
(-5.11937e-05 -4.0658 -0 5.09565e-05 -0 2.37159e-07)
(-7.22231e-05 -4.06601 -0 7.19084e-05 -0 3.1476e-07)
(-9.74147e-05 -4.06635 -0 9.70009e-05 -0 4.13779e-07)
(-0.000128155 -4.06688 -0 0.000127618 -0 5.37307e-07)
(-0.000165113 -4.06756 -0 0.000164412 -0 7.01459e-07)
(-0.000209857 -4.06848 -0 0.000208948 -0 9.08897e-07)
(-0.000262534 -4.06962 -0 0.000261361 -0 1.17346e-06)
(-0.000325379 -4.07101 -0 0.000323858 -0 1.52115e-06)
(-0.000399692 -4.07269 -0 0.000397767 -0 1.9246e-06)
(-0.000487434 -4.07467 -0 0.000484982 -0 2.45255e-06)
(-0.00059078 -4.07705 -0 0.000587789 -0 2.99032e-06)
(-0.000711476 -4.07976 -0 0.000707796 -0 3.68015e-06)
(-0.00085385 -4.08298 -0 0.000849476 -0 4.37448e-06)
(-0.00101928 -4.08656 -0 0.00101415 -0 5.13936e-06)
(-0.00121473 -4.09079 -0 0.00120861 -0 6.11866e-06)
(-0.00144342 -4.09547 -0 0.00143625 -0 7.17292e-06)
(-0.00167133 -4.09995 -0 0.00166164 -0 9.688e-06)
(-0.00187402 -4.10371 -0 0.00186017 -0 1.38496e-05)
(-0.00208267 -4.10789 -0 0.00206864 -0 1.4035e-05)
(-0.00232037 -4.11202 -0 0.00230473 -0 1.56403e-05)
(-0.00258343 -4.11654 -0 0.00256646 -0 1.69673e-05)
(-0.00286471 -4.12098 -0 0.00284658 -0 1.81317e-05)
(-0.00318201 -4.12584 -0 0.0031631 -0 1.89157e-05)
(-0.00351472 -4.13062 -0 0.00349602 -0 1.8704e-05)
(-0.00390566 -4.13576 -0 0.00388718 -0 1.84752e-05)
(-0.00429956 -4.14079 -0 0.0042838 -0 1.57596e-05)
(-0.00480755 -4.14623 -0 0.00479105 -0 1.64939e-05)
(-0.00526466 -4.15141 -0 0.00525538 -0 9.27926e-06)
(-0.00596846 -4.15713 -0 0.00595455 -0 1.39167e-05)
(-0.00646383 -4.16231 -0 0.006469 -0 -5.17078e-06)
(-0.00752627 -4.16832 -0 0.00752024 -0 6.02702e-06)
(-0.00797058 -4.17329 -0 0.00801614 -0 -4.55585e-05)
(-0.00974971 -4.17969 -0 0.0097642 -0 -1.44965e-05)