/*--------------------------------*- C++ -*----------------------------------*\
| =========                 |                                                 |
| \\      /  F ield         | OpenFOAM: The Open Source CFD Toolbox           |
|  \\    /   O peration     | Version:  2306                                  |
|   \\  /    A nd           | Website:  www.openfoam.com                      |
|    \\/     M anipulation  |                                                 |
\*---------------------------------------------------------------------------*/
FoamFile
{
    version     2.0;
    format      ascii;
    arch        "LSB;label=32;scalar=64";
    class       volVectorField;
    location    "1800";
    object      U;
}
// * * * * * * * * * * * * * * * * * * * * * * * * * * * * * * * * * * * * * //

dimensions      [0 1 -1 0 0 0 0];

internalField   nonuniform List<vector> 
20540
(
(30.9124 0.00133994 0)
(19.5972 0.00160548 0)
(30.9424 0.00456961 0)
(19.6151 0.00489438 0)
(30.9947 0.00892237 0)
(19.6443 0.00735726 0)
(31.0689 0.0136798 0)
(19.6844 0.00852617 0)
(31.1676 0.0193975 0)
(19.7377 0.00923908 0)
(31.2954 0.0263715 0)
(19.8072 0.00971091 0)
(31.4577 0.034803 0)
(19.8966 0.00989286 0)
(31.6609 0.0449444 0)
(20.0103 0.00972226 0)
(31.9117 0.0571226 0)
(20.1537 0.00916034 0)
(32.2177 0.0717258 0)
(20.3329 0.00817284 0)
(32.5875 0.0892006 0)
(20.5559 0.00672853 0)
(33.0301 0.110056 0)
(20.8318 0.00481382 0)
(33.5552 0.134864 0)
(21.1721 0.00245456 0)
(34.1732 0.164255 0)
(21.5907 -0.000254335 0)
(34.8952 0.198902 0)
(22.1043 -0.00310654 0)
(35.7322 0.239487 0)
(22.7336 -0.00572373 0)
(36.6956 0.286643 0)
(23.5036 -0.00747099 0)
(37.7962 0.340871 0)
(24.4445 -0.00734336 0)
(39.0431 0.402403 0)
(25.593 -0.00382139 0)
(40.4389 0.470936 0)
(26.9937 0.0053013 0)
(41.9742 0.545209 0)
(28.7001 0.0231083 0)
(43.619 0.622758 0)
(30.7725 0.0536903 0)
(45.2977 0.699828 0)
(33.2705 0.101899 0)
(46.8157 0.769965 0)
(36.2342 0.171836 0)
(47.786 0.816767 0)
(39.6443 0.263193 0)
(47.9991 0.825278 0)
(43.3712 0.369353 0)
(47.7508 0.797692 0)
(47.0651 0.476774 0)
(46.9934 0.702587 0)
(49.6289 0.518878 0)
(46.1891 0.5569 0)
(50.1801 0.457386 0)
(45.6639 0.389744 0)
(50.0693 0.354077 0)
(45.4308 0.225922 0)
(49.8763 0.218912 0)
(45.3459 0.0686135 0)
(49.7652 0.0805045 0)
(45.3458 -0.0894827 0)
(49.7625 -0.055404 0)
(45.4292 -0.24684 0)
(49.8675 -0.193464 0)
(45.6519 -0.407899 0)
(50.0512 -0.327699 0)
(46.1281 -0.568838 0)
(50.1604 -0.428694 0)
(46.8506 -0.710199 0)
(49.7128 -0.493516 0)
(47.5598 -0.806742 0)
(47.3881 -0.466663 0)
(47.8218 -0.838685 0)
(43.8462 -0.368017 0)
(47.6491 -0.834513 0)
(40.212 -0.266611 0)
(46.7663 -0.793914 0)
(36.8406 -0.17684 0)
(45.3107 -0.727819 0)
(33.8699 -0.106006 0)
(43.6605 -0.653145 0)
(31.3359 -0.055864 0)
(42.0227 -0.576715 0)
(29.2115 -0.0232234 0)
(40.4801 -0.502445 0)
(27.4452 -0.00365108 0)
(39.0666 -0.433031 0)
(25.9818 0.0067936 0)
(37.794 -0.369983 0)
(24.7711 0.0111764 0)
(36.6612 -0.313821 0)
(23.7709 0.0117517 0)
(35.661 -0.264494 0)
(22.9456 0.0101161 0)
(34.784 -0.22164 0)
(22.2657 0.00735813 0)
(34.0204 -0.184726 0)
(21.7063 0.00418964 0)
(33.3602 -0.153141 0)
(21.2468 0.0010539 0)
(32.7933 -0.126259 0)
(20.87 -0.00179179 0)
(32.3103 -0.103476 0)
(20.5618 -0.00421474 0)
(31.9019 -0.084236 0)
(20.3104 -0.00616272 0)
(31.5595 -0.0680331 0)
(20.1062 -0.00763297 0)
(31.275 -0.0544202 0)
(19.941 -0.00865012 0)
(31.0411 -0.0430043 0)
(19.8082 -0.00924961 0)
(30.8508 -0.0334428 0)
(19.7022 -0.00946644 0)
(30.698 -0.025446 0)
(19.6184 -0.00933765 0)
(30.5773 -0.0187907 0)
(19.5529 -0.00892019 0)
(30.4837 -0.013299 0)
(19.5025 -0.00825451 0)
(30.4131 -0.00870261 0)
(19.4643 -0.00713122 0)
(30.363 -0.00448082 0)
(19.4365 -0.0047588 0)
(30.3341 -0.00131796 0)
(19.4192 -0.00156642 0)
(9.35068 0.00251807 0)
(5.33374 0.000478609 0)
(4.63568 9.47497e-05 0)
(4.24372 4.87048e-05 0)
(4.00216 2.88102e-05 0)
(3.84585 1.88532e-05 0)
(3.73702 1.33081e-05 0)
(3.65737 9.91285e-06 0)
(3.59741 7.66837e-06 0)
(3.55112 6.10285e-06 0)
(3.51462 4.96302e-06 0)
(3.4854 4.10837e-06 0)
(3.46167 3.44373e-06 0)
(3.44228 2.92541e-06 0)
(3.42616 2.50467e-06 0)
(3.41281 2.15987e-06 0)
(3.40156 1.87686e-06 0)
(3.39212 1.64051e-06 0)
(3.38407 1.44521e-06 0)
(3.37724 1.27251e-06 0)
(3.3714 1.13213e-06 0)
(3.36636 1.01018e-06 0)
(3.36203 9.02589e-07 0)
(3.35827 8.08852e-07 0)
(3.35502 7.30435e-07 0)
(3.35217 6.60971e-07 0)
(3.3497 5.99674e-07 0)
(3.34751 5.45271e-07 0)
(3.3456 4.97822e-07 0)
(3.3439 4.56065e-07 0)
(3.34241 4.19139e-07 0)
(3.34108 3.88368e-07 0)
(3.3399 3.6113e-07 0)
(3.33883 3.36314e-07 0)
(3.33788 3.05719e-07 0)
(3.33706 2.86193e-07 0)
(3.3363 2.67801e-07 0)
(3.33564 2.49609e-07 0)
(3.33505 2.33527e-07 0)
(3.33454 2.08117e-07 0)
(3.33413 1.85165e-07 0)
(3.3338 1.65301e-07 0)
(3.33355 1.43e-07 0)
(3.3334 1.14607e-07 0)
(3.33336 8.75481e-08 0)
(3.33342 4.0523e-08 0)
(3.33364 -1.33308e-08 0)
(3.334 -6.09542e-08 0)
(3.33455 -1.26208e-07 0)
(3.3353 -2.12135e-07 0)
(3.33629 -3.05955e-07 0)
(3.33753 -4.21744e-07 0)
(3.33911 -5.63599e-07 0)
(3.34102 -7.08854e-07 0)
(3.34332 -8.91961e-07 0)
(3.34609 -1.09206e-06 0)
(3.34934 -1.33726e-06 0)
(3.35319 -1.6118e-06 0)
(3.35765 -1.95064e-06 0)
(3.36286 -2.34324e-06 0)
(3.36883 -2.85248e-06 0)
(3.37575 -3.45093e-06 0)
(3.38366 -4.37198e-06 0)
(3.39134 -4.6809e-06 0)
(3.39794 -4.54749e-06 0)
(3.40498 -5.02837e-06 0)
(3.41234 -5.73362e-06 0)
(3.42028 -6.33987e-06 0)
(3.42854 -7.52218e-06 0)
(3.43738 -8.37339e-06 0)
(3.44661 -1.02932e-05 0)
(3.45641 -1.17223e-05 0)
(3.46666 -1.49517e-05 0)
(3.47755 -1.68278e-05 0)
(3.48909 -2.191e-05 0)
(3.50122 -2.33678e-05 0)
(3.51446 -3.19362e-05 0)
(3.52784 -3.24668e-05 0)
(3.54342 -5.03355e-05 0)
(3.55786 -4.81335e-05 0)
(3.57726 -8.80158e-05 0)
(3.59194 -7.30762e-05 0)
(3.62007 -0.000155934 0)
(3.63037 -8.15878e-05 0)
(3.6787 -0.000384117 0)
(3.69557 0.000189564 0)
(3.76552 -0.00179883 0)
(3.71377 -0.032714 0)
(16.0737 0.0045885 0)
(11.0592 0.00207015 0)
(9.93313 0.00053571 0)
(9.25447 0.000319526 0)
(8.81912 0.00020716 0)
(8.53169 0.000143036 0)
(8.32868 0.000105321 0)
(8.17863 8.08299e-05 0)
(8.06492 6.37913e-05 0)
(7.97672 5.15584e-05 0)
(7.9069 4.2453e-05 0)
(7.85086 3.54795e-05 0)
(7.80524 2.99754e-05 0)
(7.7679 2.56198e-05 0)
(7.7368 2.20593e-05 0)
(7.711 1.91128e-05 0)
(7.68924 1.66739e-05 0)
(7.67097 1.46221e-05 0)
(7.65538 1.29162e-05 0)
(7.64213 1.14121e-05 0)
(7.6308 1.01678e-05 0)
(7.62102 9.09177e-06 0)
(7.6126 8.14262e-06 0)
(7.6053 7.31311e-06 0)
(7.59899 6.61027e-06 0)
(7.59345 5.9899e-06 0)
(7.58863 5.44446e-06 0)
(7.58438 4.95856e-06 0)
(7.58067 4.52875e-06 0)
(7.57736 4.1584e-06 0)
(7.57447 3.82788e-06 0)
(7.57186 3.52821e-06 0)
(7.56958 3.27661e-06 0)
(7.5675 3.06125e-06 0)
(7.56565 2.7863e-06 0)
(7.56405 2.58402e-06 0)
(7.56258 2.39593e-06 0)
(7.56131 2.20261e-06 0)
(7.56017 2.01384e-06 0)
(7.55919 1.74462e-06 0)
(7.55841 1.47725e-06 0)
(7.55778 1.20175e-06 0)
(7.55733 8.81007e-07 0)
(7.55706 4.79644e-07 0)
(7.55701 1.92025e-08 0)
(7.55719 -6.01527e-07 0)
(7.55768 -1.33901e-06 0)
(7.55846 -2.20097e-06 0)
(7.55963 -3.26432e-06 0)
(7.5612 -4.55853e-06 0)
(7.56328 -6.10819e-06 0)
(7.56587 -7.99502e-06 0)
(7.56914 -1.02853e-05 0)
(7.57311 -1.28968e-05 0)
(7.57789 -1.60654e-05 0)
(7.58361 -1.97595e-05 0)
(7.59034 -2.41894e-05 0)
(7.59829 -2.93109e-05 0)
(7.60749 -3.5401e-05 0)
(7.61823 -4.24669e-05 0)
(7.63055 -5.08867e-05 0)
(7.6448 -6.06653e-05 0)
(7.6611 -7.26468e-05 0)
(7.67686 -8.39136e-05 0)
(7.6904 -9.29606e-05 0)
(7.70477 -0.000103609 0)
(7.71981 -0.000115954 0)
(7.73601 -0.000128962 0)
(7.75289 -0.000143728 0)
(7.77091 -0.000159708 0)
(7.78976 -0.000178293 0)
(7.80971 -0.000198061 0)
(7.8307 -0.00022274 0)
(7.85281 -0.000248143 0)
(7.87642 -0.00028098 0)
(7.90086 -0.000313821 0)
(7.92791 -0.000358338 0)
(7.95453 -0.0004022 0)
(7.98646 -0.000469228 0)
(8.0147 -0.000533641 0)
(8.05482 -0.000641099 0)
(8.08291 -0.00076547 0)
(8.14108 -0.00089611 0)
(8.16048 -0.00115878 0)
(8.25854 -0.00167718 0)
(8.28413 -0.00214479 0)
(8.42411 -0.000711066 0)
(8.51433 -0.0551342 0)
(19.9981 0.00684896 0)
(16.0882 0.00412516 0)
(14.9495 0.00125982 0)
(14.1717 0.000803905 0)
(13.6411 0.000540585 0)
(13.2811 0.000380854 0)
(13.0216 0.000284632 0)
(12.8271 0.000220647 0)
(12.6785 0.000175287 0)
(12.5625 0.000142385 0)
(12.4703 0.000117702 0)
(12.396 9.86655e-05 0)
(12.3354 8.35635e-05 0)
(12.2856 7.15593e-05 0)
(12.2441 6.17227e-05 0)
(12.2096 5.35574e-05 0)
(12.1804 4.67821e-05 0)
(12.1559 4.10687e-05 0)
(12.135 3.63077e-05 0)
(12.1172 3.21157e-05 0)
(12.102 2.86274e-05 0)
(12.0888 2.56149e-05 0)
(12.0775 2.29585e-05 0)
(12.0676 2.06323e-05 0)
(12.0591 1.8654e-05 0)
(12.0516 1.69096e-05 0)
(12.0451 1.53748e-05 0)
(12.0394 1.40074e-05 0)
(12.0344 1.27969e-05 0)
(12.0299 1.17457e-05 0)
(12.026 1.081e-05 0)
(12.0225 9.96824e-06 0)
(12.0194 9.24206e-06 0)
(12.0166 8.61707e-06 0)
(12.0141 7.85393e-06 0)
(12.012 7.26646e-06 0)
(12.01 6.71414e-06 0)
(12.0083 6.14113e-06 0)
(12.0068 5.57676e-06 0)
(12.0055 4.79877e-06 0)
(12.0045 3.99212e-06 0)
(12.0037 3.14143e-06 0)
(12.0032 2.14894e-06 0)
(12.0029 9.12702e-07 0)
(12.003 -5.4899e-07 0)
(12.0034 -2.45063e-06 0)
(12.0042 -4.72631e-06 0)
(12.0056 -7.49029e-06 0)
(12.0075 -1.08496e-05 0)
(12.01 -1.49187e-05 0)
(12.0132 -1.98286e-05 0)
(12.0173 -2.57791e-05 0)
(12.0224 -3.29952e-05 0)
(12.0286 -4.13227e-05 0)
(12.036 -5.13468e-05 0)
(12.0449 -6.31153e-05 0)
(12.0553 -7.71049e-05 0)
(12.0676 -9.34608e-05 0)
(12.0819 -0.000112713 0)
(12.0985 -0.000135318 0)
(12.1176 -0.000161935 0)
(12.1396 -0.000193218 0)
(12.1648 -0.000231062 0)
(12.1891 -0.0002667 0)
(12.2101 -0.000295524 0)
(12.2323 -0.000329141 0)
(12.2556 -0.000367787 0)
(12.2806 -0.000409903 0)
(12.3069 -0.000456163 0)
(12.3348 -0.000507972 0)
(12.3642 -0.000565475 0)
(12.3951 -0.000630328 0)
(12.4279 -0.000704501 0)
(12.4621 -0.000788394 0)
(12.4992 -0.000883558 0)
(12.5368 -0.000994727 0)
(12.5796 -0.00111659 0)
(12.6203 -0.0012744 0)
(12.6717 -0.00143981 0)
(12.7141 -0.00169085 0)
(12.78 -0.00192193 0)
(12.8208 -0.00239948 0)
(12.9157 -0.0026586 0)
(12.9452 -0.00356861 0)
(13.1005 -0.00480966 0)
(13.1286 -0.00563984 0)
(13.372 -0.00907146 0)
(13.5868 -0.0790168 0)
(22.1233 0.00754249 0)
(19.4398 0.00585338 0)
(18.469 0.0020534 0)
(17.6898 0.00140065 0)
(17.1226 0.000972836 0)
(16.7272 0.00069707 0)
(16.4371 0.000527178 0)
(16.2173 0.000411887 0)
(16.0481 0.000328868 0)
(15.9156 0.000268142 0)
(15.8098 0.000222305 0)
(15.7243 0.000186765 0)
(15.6544 0.000158463 0)
(15.5969 0.000135888 0)
(15.549 0.000117359 0)
(15.509 0.000101944 0)
(15.4753 8.913e-05 0)
(15.4469 7.83051e-05 0)
(15.4226 6.92699e-05 0)
(15.4019 6.13236e-05 0)
(15.3842 5.46821e-05 0)
(15.3689 4.89519e-05 0)
(15.3558 4.39014e-05 0)
(15.3443 3.94728e-05 0)
(15.3344 3.56955e-05 0)
(15.3257 3.23674e-05 0)
(15.3181 2.94387e-05 0)
(15.3114 2.6829e-05 0)
(15.3056 2.45161e-05 0)
(15.3004 2.24999e-05 0)
(15.2958 2.07078e-05 0)
(15.2917 1.90976e-05 0)
(15.2881 1.76878e-05 0)
(15.2849 1.64742e-05 0)
(15.282 1.50325e-05 0)
(15.2795 1.38854e-05 0)
(15.2772 1.28004e-05 0)
(15.2752 1.16682e-05 0)
(15.2735 1.05449e-05 0)
(15.272 9.03275e-06 0)
(15.2708 7.42357e-06 0)
(15.27 5.69916e-06 0)
(15.2694 3.68453e-06 0)
(15.2691 1.18354e-06 0)
(15.2693 -1.82855e-06 0)
(15.2699 -5.66317e-06 0)
(15.271 -1.02614e-05 0)
(15.2727 -1.59818e-05 0)
(15.2751 -2.28854e-05 0)
(15.2783 -3.12106e-05 0)
(15.2824 -4.13075e-05 0)
(15.2875 -5.35119e-05 0)
(15.2938 -6.83036e-05 0)
(15.3015 -8.54941e-05 0)
(15.3108 -0.000106116 0)
(15.3218 -0.000130401 0)
(15.3348 -0.000159194 0)
(15.35 -0.000192982 0)
(15.3677 -0.000232632 0)
(15.3883 -0.000279319 0)
(15.412 -0.000334052 0)
(15.4393 -0.000398504 0)
(15.4706 -0.000475685 0)
(15.5006 -0.000549655 0)
(15.5266 -0.000611122 0)
(15.554 -0.000680594 0)
(15.583 -0.000760041 0)
(15.6139 -0.000847336 0)
(15.6465 -0.000942216 0)
(15.6809 -0.00104919 0)
(15.7173 -0.00116563 0)
(15.7555 -0.0012992 0)
(15.7961 -0.00144579 0)
(15.8381 -0.00161898 0)
(15.8841 -0.00180219 0)
(15.93 -0.00203569 0)
(15.9832 -0.0022616 0)
(16.0326 -0.00260185 0)
(16.0966 -0.00288476 0)
(16.1474 -0.00343763 0)
(16.2297 -0.00378607 0)
(16.2773 -0.00482577 0)
(16.3948 -0.00515698 0)
(16.4288 -0.00718829 0)
(16.6181 -0.00879686 0)
(16.6375 -0.0115163 0)
(16.9473 -0.0196436 0)
(17.1371 -0.0897902 0)
(23.417 0.00709154 0)
(21.7407 0.0072871 0)
(21.0246 0.00287512 0)
(20.2948 0.00210727 0)
(19.7177 0.00151185 0)
(19.3019 0.00110069 0)
(18.991 0.000841188 0)
(18.7525 0.000661643 0)
(18.5677 0.000530498 0)
(18.4221 0.000433838 0)
(18.3055 0.000360497 0)
(18.2111 0.000303382 0)
(18.1337 0.000257761 0)
(18.07 0.00022127 0)
(18.0168 0.000191285 0)
(17.9724 0.000166296 0)
(17.9349 0.000145494 0)
(17.9033 0.000127899 0)
(17.8762 0.000113193 0)
(17.8532 0.000100275 0)
(17.8334 8.94391e-05 0)
(17.8164 8.00973e-05 0)
(17.8017 7.18678e-05 0)
(17.7889 6.46448e-05 0)
(17.7778 5.84685e-05 0)
(17.7681 5.30304e-05 0)
(17.7596 4.82447e-05 0)
(17.7521 4.39795e-05 0)
(17.7456 4.01968e-05 0)
(17.7398 3.6889e-05 0)
(17.7347 3.39514e-05 0)
(17.7301 3.13146e-05 0)
(17.726 2.89798e-05 0)
(17.7224 2.6969e-05 0)
(17.7192 2.4637e-05 0)
(17.7163 2.2731e-05 0)
(17.7138 2.09189e-05 0)
(17.7116 1.90218e-05 0)
(17.7097 1.71302e-05 0)
(17.708 1.46346e-05 0)
(17.7067 1.19289e-05 0)
(17.7058 8.99549e-06 0)
(17.7051 5.56704e-06 0)
(17.7049 1.32333e-06 0)
(17.7051 -3.84969e-06 0)
(17.7058 -1.03502e-05 0)
(17.7071 -1.81372e-05 0)
(17.709 -2.79739e-05 0)
(17.7118 -3.98139e-05 0)
(17.7154 -5.40471e-05 0)
(17.72 -7.13598e-05 0)
(17.7259 -9.2243e-05 0)
(17.7331 -0.000117541 0)
(17.7419 -0.00014708 0)
(17.7524 -0.000182434 0)
(17.7649 -0.000224142 0)
(17.7797 -0.000273508 0)
(17.797 -0.000331566 0)
(17.8172 -0.00039957 0)
(17.8405 -0.00047977 0)
(17.8675 -0.000573537 0)
(17.8984 -0.000684079 0)
(17.934 -0.000815489 0)
(17.968 -0.00094276 0)
(17.9974 -0.00105048 0)
(18.0285 -0.00116981 0)
(18.0613 -0.00130567 0)
(18.0962 -0.00145558 0)
(18.1331 -0.00161772 0)
(18.172 -0.00180087 0)
(18.2131 -0.00199811 0)
(18.256 -0.00222643 0)
(18.3019 -0.0024707 0)
(18.349 -0.00276698 0)
(18.4008 -0.0030667 0)
(18.4521 -0.00346955 0)
(18.5118 -0.00382919 0)
(18.5665 -0.00442394 0)
(18.6382 -0.00484784 0)
(18.6941 -0.0058226 0)
(18.7859 -0.00629047 0)
(18.8375 -0.00810315 0)
(18.967 -0.00846815 0)
(19.003 -0.0120534 0)
(19.2092 -0.0137689 0)
(19.2192 -0.0195255 0)
(19.5651 -0.0312653 0)
(19.6561 -0.102111 0)
(24.3159 0.00552145 0)
(23.4179 0.00835095 0)
(23.0078 0.00365827 0)
(22.3741 0.00292011 0)
(21.8128 0.00217556 0)
(21.3899 0.00161301 0)
(21.066 0.00124672 0)
(20.8137 0.000987618 0)
(20.6164 0.000795374 0)
(20.4602 0.000652457 0)
(20.3345 0.000543402 0)
(20.2324 0.000458091 0)
(20.1485 0.000389733 0)
(20.0793 0.000334901 0)
(20.0215 0.000289789 0)
(19.9731 0.000252132 0)
(19.9322 0.000220742 0)
(19.8977 0.000194158 0)
(19.8682 0.00017191 0)
(19.843 0.000152388 0)
(19.8214 0.000135958 0)
(19.8028 0.000121801 0)
(19.7866 0.000109337 0)
(19.7726 9.83876e-05 0)
(19.7605 8.9004e-05 0)
(19.7498 8.07455e-05 0)
(19.7406 7.34777e-05 0)
(19.7324 6.69994e-05 0)
(19.7252 6.12506e-05 0)
(19.7188 5.62099e-05 0)
(19.7132 5.17362e-05 0)
(19.7082 4.77243e-05 0)
(19.7037 4.41389e-05 0)
(19.6997 4.10494e-05 0)
(19.6962 3.75421e-05 0)
(19.6931 3.46113e-05 0)
(19.6903 3.18146e-05 0)
(19.6879 2.88822e-05 0)
(19.6857 2.59477e-05 0)
(19.6839 2.21449e-05 0)
(19.6825 1.79647e-05 0)
(19.6814 1.33943e-05 0)
(19.6808 8.05444e-06 0)
(19.6805 1.46387e-06 0)
(19.6807 -6.63181e-06 0)
(19.6814 -1.67316e-05 0)
(19.6829 -2.8801e-05 0)
(19.6849 -4.41744e-05 0)
(19.688 -6.26846e-05 0)
(19.6919 -8.49096e-05 0)
(19.697 -0.000111966 0)
(19.7034 -0.000144546 0)
(19.7113 -0.000183999 0)
(19.7209 -0.000230212 0)
(19.7323 -0.00028543 0)
(19.746 -0.000350648 0)
(19.7621 -0.00042773 0)
(19.781 -0.00051851 0)
(19.803 -0.000624691 0)
(19.8285 -0.000750026 0)
(19.8579 -0.000896268 0)
(19.8916 -0.0010688 0)
(19.9304 -0.00127266 0)
(19.9673 -0.00147132 0)
(19.9993 -0.00164172 0)
(20.0331 -0.00182789 0)
(20.0688 -0.00203885 0)
(20.1066 -0.00227222 0)
(20.1466 -0.00252384 0)
(20.1887 -0.00280821 0)
(20.2332 -0.00311215 0)
(20.2795 -0.00346598 0)
(20.3291 -0.0038378 0)
(20.3798 -0.00429637 0)
(20.4356 -0.00474629 0)
(20.4905 -0.00537138 0)
(20.5545 -0.00590041 0)
(20.6129 -0.00682717 0)
(20.6893 -0.00742386 0)
(20.7486 -0.00894459 0)
(20.8457 -0.0095452 0)
(20.9001 -0.0123456 0)
(21.0355 -0.0127135 0)
(21.0732 -0.0182676 0)
(21.2853 -0.019882 0)
(21.2907 -0.0297177 0)
(21.6506 -0.0433134 0)
(21.6552 -0.120589 0)
(25.0076 0.00268553 0)
(24.6991 0.00892683 0)
(24.6101 0.00428262 0)
(24.1156 0.00379376 0)
(23.5976 0.00295914 0)
(23.1828 0.00224347 0)
(22.8545 0.00175743 0)
(22.5936 0.00140389 0)
(22.3872 0.00113656 0)
(22.2223 0.000935675 0)
(22.089 0.000781326 0)
(21.9803 0.000659946 0)
(21.8908 0.000562326 0)
(21.8167 0.000483772 0)
(21.7546 0.000419038 0)
(21.7027 0.000364906 0)
(21.6587 0.000319713 0)
(21.6215 0.000281387 0)
(21.5897 0.000249267 0)
(21.5625 0.000221107 0)
(21.5392 0.000197334 0)
(21.5191 0.000176856 0)
(21.5016 0.000158833 0)
(21.4865 0.000142989 0)
(21.4733 0.000129381 0)
(21.4618 0.000117408 0)
(21.4517 0.00010687 0)
(21.4428 9.74757e-05 0)
(21.435 8.91346e-05 0)
(21.4281 8.18028e-05 0)
(21.422 7.52985e-05 0)
(21.4166 6.94723e-05 0)
(21.4117 6.42226e-05 0)
(21.4074 5.96938e-05 0)
(21.4036 5.46552e-05 0)
(21.4002 5.03654e-05 0)
(21.3971 4.6261e-05 0)
(21.3945 4.19554e-05 0)
(21.3922 3.76356e-05 0)
(21.3902 3.21288e-05 0)
(21.3887 2.60122e-05 0)
(21.3875 1.92818e-05 0)
(21.3867 1.14257e-05 0)
(21.3864 1.75768e-06 0)
(21.3866 -1.01722e-05 0)
(21.3874 -2.50047e-05 0)
(21.3889 -4.2685e-05 0)
(21.3911 -6.52671e-05 0)
(21.3943 -9.25088e-05 0)
(21.3985 -0.000125244 0)
(21.4039 -0.000165071 0)
(21.4107 -0.000212955 0)
(21.4191 -0.000270913 0)
(21.4293 -0.000338957 0)
(21.4415 -0.000420162 0)
(21.4561 -0.000516137 0)
(21.4733 -0.000629425 0)
(21.4934 -0.000762963 0)
(21.5168 -0.000918967 0)
(21.5439 -0.0011032 0)
(21.5752 -0.0013178 0)
(21.611 -0.0015711 0)
(21.6523 -0.00186884 0)
(21.6914 -0.00215991 0)
(21.7253 -0.00241205 0)
(21.7611 -0.00268502 0)
(21.7989 -0.00299264 0)
(21.839 -0.00333351 0)
(21.8813 -0.0037002 0)
(21.9257 -0.0041145 0)
(21.9727 -0.0045548 0)
(22.0215 -0.00506913 0)
(22.0737 -0.00560267 0)
(22.1269 -0.00626719 0)
(22.1854 -0.0069061 0)
(22.2429 -0.00781028 0)
(22.3097 -0.00855104 0)
(22.3706 -0.00988949 0)
(22.4497 -0.0107009 0)
(22.5115 -0.0128903 0)
(22.6109 -0.013652 0)
(22.6678 -0.0176448 0)
(22.8045 -0.0180149 0)
(22.8448 -0.0258872 0)
(23.0548 -0.0272889 0)
(23.0613 -0.0420911 0)
(23.4183 -0.0558689 0)
(23.3739 -0.143355 0)
(25.5797 -0.00161379 0)
(25.7164 0.00890209 0)
(25.932 0.004605 0)
(25.6092 0.00464841 0)
(25.1636 0.00383577 0)
(24.7746 0.00299048 0)
(24.4522 0.00238204 0)
(24.1889 0.00192276 0)
(23.9771 0.00156687 0)
(23.8061 0.00129566 0)
(23.6668 0.00108541 0)
(23.5526 0.000918981 0)
(23.4581 0.0007845 0)
(23.3798 0.000675861 0)
(23.3139 0.000586143 0)
(23.2587 0.000510957 0)
(23.2119 0.000448069 0)
(23.1722 0.000394655 0)
(23.1382 0.000349812 0)
(23.1092 0.000310523 0)
(23.0842 0.000277258 0)
(23.0626 0.000248597 0)
(23.0439 0.000223382 0)
(23.0277 0.0002012 0)
(23.0135 0.000182106 0)
(23.0011 0.000165307 0)
(22.9903 0.000150516 0)
(22.9807 0.000137332 0)
(22.9724 0.000125619 0)
(22.9649 0.000115298 0)
(22.9583 0.000106144 0)
(22.9525 9.79565e-05 0)
(22.9473 9.05221e-05 0)
(22.9426 8.40965e-05 0)
(22.9385 7.70868e-05 0)
(22.9348 7.10219e-05 0)
(22.9315 6.52079e-05 0)
(22.9287 5.91113e-05 0)
(22.9262 5.29818e-05 0)
(22.9241 4.52892e-05 0)
(22.9224 3.66773e-05 0)
(22.9211 2.71551e-05 0)
(22.9202 1.6054e-05 0)
(22.9198 2.43312e-06 0)
(22.92 -1.44113e-05 0)
(22.9208 -3.53304e-05 0)
(22.9223 -6.02279e-05 0)
(22.9246 -9.19781e-05 0)
(22.9279 -0.000130374 0)
(22.9323 -0.000176612 0)
(22.9379 -0.000232793 0)
(22.945 -0.000300266 0)
(22.9538 -0.00038186 0)
(22.9644 -0.000477821 0)
(22.9773 -0.000592245 0)
(22.9925 -0.00072753 0)
(23.0104 -0.000887016 0)
(23.0315 -0.00107511 0)
(23.056 -0.00129463 0)
(23.0843 -0.00155388 0)
(23.117 -0.00185548 0)
(23.1544 -0.0022115 0)
(23.1975 -0.00262817 0)
(23.2383 -0.00303595 0)
(23.2736 -0.0033919 0)
(23.3109 -0.00377492 0)
(23.3502 -0.00420417 0)
(23.3919 -0.00468007 0)
(23.4358 -0.00519128 0)
(23.4819 -0.0057682 0)
(23.5305 -0.00637899 0)
(23.5811 -0.00709325 0)
(23.635 -0.00782791 0)
(23.69 -0.00874638 0)
(23.7501 -0.00961972 0)
(23.8094 -0.0108635 0)
(23.8777 -0.0118676 0)
(23.9405 -0.0136993 0)
(24.0206 -0.01478 0)
(24.0844 -0.017758 0)
(24.1839 -0.0187321 0)
(24.2431 -0.0241021 0)
(24.378 -0.0245255 0)
(24.4218 -0.0349871 0)
(24.6244 -0.0361952 0)
(24.6355 -0.0566825 0)
(24.979 -0.0695033 0)
(24.9141 -0.168145 0)
(26.0785 -0.0076176 0)
(26.5541 0.00816191 0)
(27.0368 0.00447383 0)
(26.903 0.00537309 0)
(26.5568 0.00475193 0)
(26.2131 0.00383688 0)
(25.909 0.00312178 0)
(25.6511 0.00255364 0)
(25.4387 0.00209868 0)
(25.2647 0.00174539 0)
(25.1214 0.00146818 0)
(25.0031 0.00124686 0)
(24.9047 0.00106692 0)
(24.8226 0.000920828 0)
(24.7535 0.000799816 0)
(24.6953 0.00069813 0)
(24.6459 0.000612874 0)
(24.6039 0.000540324 0)
(24.568 0.000479285 0)
(24.5371 0.000425827 0)
(24.5106 0.00038043 0)
(24.4876 0.00034129 0)
(24.4677 0.000306866 0)
(24.4504 0.000276557 0)
(24.4353 0.000250411 0)
(24.4221 0.0002274 0)
(24.4105 0.000207133 0)
(24.4002 0.000189068 0)
(24.3913 0.000173006 0)
(24.3833 0.000158819 0)
(24.3762 0.000146237 0)
(24.3699 0.000135005 0)
(24.3644 0.000124729 0)
(24.3594 0.000115822 0)
(24.3549 0.000106294 0)
(24.351 9.79343e-05 0)
(24.3475 8.9908e-05 0)
(24.3444 8.15008e-05 0)
(24.3417 7.3033e-05 0)
(24.3394 6.25656e-05 0)
(24.3376 5.07808e-05 0)
(24.3362 3.77006e-05 0)
(24.3352 2.24746e-05 0)
(24.3347 3.84809e-06 0)
(24.3348 -1.91967e-05 0)
(24.3356 -4.78127e-05 0)
(24.3371 -8.18684e-05 0)
(24.3394 -0.000125109 0)
(24.3428 -0.000177516 0)
(24.3473 -0.0002408 0)
(24.3531 -0.00031758 0)
(24.3604 -0.000409723 0)
(24.3694 -0.000521008 0)
(24.3804 -0.000652094 0)
(24.3936 -0.000808289 0)
(24.4093 -0.000992979 0)
(24.4278 -0.00121045 0)
(24.4495 -0.001467 0)
(24.4747 -0.00176616 0)
(24.5039 -0.00211937 0)
(24.5376 -0.00252984 0)
(24.5762 -0.00301427 0)
(24.6205 -0.00357933 0)
(24.6624 -0.00413204 0)
(24.6987 -0.0046174 0)
(24.737 -0.00513766 0)
(24.7774 -0.00571766 0)
(24.8201 -0.0063603 0)
(24.865 -0.00705018 0)
(24.9122 -0.00782708 0)
(24.9619 -0.00864814 0)
(25.0136 -0.00960681 0)
(25.0685 -0.0105886 0)
(25.1246 -0.0118141 0)
(25.1855 -0.0129755 0)
(25.2459 -0.0146243 0)
(25.3146 -0.0159537 0)
(25.3786 -0.0183641 0)
(25.4586 -0.0197847 0)
(25.5237 -0.0236689 0)
(25.622 -0.0249375 0)
(25.6831 -0.0318444 0)
(25.8139 -0.0324409 0)
(25.8616 -0.0456908 0)
(26.0542 -0.0468423 0)
(26.0707 -0.0735644 0)
(26.3954 -0.0849279 0)
(26.3259 -0.193605 0)
(26.5308 -0.0156258 0)
(27.2686 0.00657734 0)
(27.9725 0.00373348 0)
(28.0277 0.00582916 0)
(27.8017 0.00562054 0)
(27.5233 0.00474084 0)
(27.252 0.0039631 0)
(27.0089 0.00329815 0)
(26.8021 0.00274083 0)
(26.6291 0.00229667 0)
(26.4845 0.00194239 0)
(26.3639 0.00165621 0)
(26.2628 0.00142158 0)
(26.1779 0.00122985 0)
(26.1062 0.00107034 0)
(26.0455 0.000935828 0)
(25.9938 0.000822697 0)
(25.9498 0.000726192 0)
(25.912 0.000644779 0)
(25.8795 0.000573474 0)
(25.8515 0.000512731 0)
(25.8272 0.000460299 0)
(25.8061 0.000414187 0)
(25.7877 0.000373549 0)
(25.7717 0.00033841 0)
(25.7576 0.000307469 0)
(25.7453 0.000280197 0)
(25.7344 0.000255888 0)
(25.7249 0.000234259 0)
(25.7163 0.000215107 0)
(25.7088 0.00019812 0)
(25.7021 0.000182984 0)
(25.6961 0.000169037 0)
(25.6908 0.000156907 0)
(25.686 0.000144176 0)
(25.6818 0.000132871 0)
(25.6781 0.000122001 0)
(25.6748 0.000110636 0)
(25.6719 9.91705e-05 0)
(25.6694 8.52068e-05 0)
(25.6674 6.94268e-05 0)
(25.6658 5.18617e-05 0)
(25.6648 3.14483e-05 0)
(25.6642 6.55041e-06 0)
(25.6642 -2.42275e-05 0)
(25.6649 -6.24453e-05 0)
(25.6664 -0.000107986 0)
(25.6687 -0.000165487 0)
(25.6721 -0.000235282 0)
(25.6766 -0.000319781 0)
(25.6825 -0.000422168 0)
(25.6899 -0.000544993 0)
(25.699 -0.000693098 0)
(25.7102 -0.00086783 0)
(25.7236 -0.00107586 0)
(25.7396 -0.00132184 0)
(25.7585 -0.00161119 0)
(25.7806 -0.00195249 0)
(25.8063 -0.00235027 0)
(25.836 -0.00281961 0)
(25.8703 -0.00336462 0)
(25.9095 -0.00400744 0)
(25.9546 -0.00475548 0)
(25.9972 -0.00548586 0)
(26.034 -0.00613043 0)
(26.0729 -0.00681955 0)
(26.1139 -0.0075842 0)
(26.1572 -0.00843031 0)
(26.2027 -0.00933834 0)
(26.2504 -0.0103582 0)
(26.3006 -0.0114355 0)
(26.3528 -0.0126892 0)
(26.4081 -0.0139717 0)
(26.4647 -0.0155638 0)
(26.5258 -0.0170757 0)
(26.5866 -0.0192017 0)
(26.6551 -0.0209305 0)
(26.7195 -0.0240097 0)
(26.7986 -0.0258603 0)
(26.8644 -0.0307641 0)
(26.9604 -0.0324485 0)
(27.0231 -0.041022 0)
(27.1486 -0.0419853 0)
(27.1998 -0.0581725 0)
(27.3814 -0.0594978 0)
(27.4027 -0.0927583 0)
(27.7056 -0.102899 0)
(27.6398 -0.218903 0)
(26.9548 -0.0260045 0)
(27.8988 0.00399778 0)
(28.7784 0.00222419 0)
(29.0087 0.00585788 0)
(28.914 0.00631865 0)
(28.7184 0.00562672 0)
(28.4951 0.00486803 0)
(28.2781 0.00414242 0)
(28.0846 0.00349302 0)
(27.9178 0.00295639 0)
(27.7756 0.00251838 0)
(27.6551 0.00215885 0)
(27.553 0.00186066 0)
(27.4667 0.00161482 0)
(27.3931 0.00140906 0)
(27.3306 0.00123469 0)
(27.2771 0.00108743 0)
(27.2314 0.000961402 0)
(27.192 0.000854712 0)
(27.158 0.000761206 0)
(27.1287 0.00068128 0)
(27.1032 0.000612165 0)
(27.081 0.000551359 0)
(27.0616 0.000497712 0)
(27.0447 0.000451208 0)
(27.0299 0.000410223 0)
(27.0168 0.000374062 0)
(27.0053 0.000341825 0)
(26.9951 0.000313117 0)
(26.9861 0.000287633 0)
(26.9781 0.000265018 0)
(26.971 0.000244907 0)
(26.9646 0.000226249 0)
(26.9589 0.000209952 0)
(26.9538 0.000193168 0)
(26.9493 0.000178105 0)
(26.9453 0.000163602 0)
(26.9418 0.000148474 0)
(26.9387 0.00013319 0)
(26.936 0.000114846 0)
(26.9338 9.40771e-05 0)
(26.9321 7.09116e-05 0)
(26.9309 4.4033e-05 0)
(26.9302 1.13475e-05 0)
(26.9301 -2.89876e-05 0)
(26.9307 -7.90494e-05 0)
(26.9321 -0.000138831 0)
(26.9344 -0.000213886 0)
(26.9377 -0.00030506 0)
(26.9422 -0.000415656 0)
(26.9481 -0.00054952 0)
(26.9555 -0.000710089 0)
(26.9647 -0.000903361 0)
(26.9759 -0.00113176 0)
(26.9895 -0.00140341 0)
(27.0056 -0.00172458 0)
(27.0246 -0.00210203 0)
(27.0468 -0.00254717 0)
(27.0728 -0.00306571 0)
(27.1027 -0.00367708 0)
(27.1373 -0.00438652 0)
(27.1768 -0.00522265 0)
(27.2222 -0.0061939 0)
(27.265 -0.00714008 0)
(27.302 -0.00797821 0)
(27.3411 -0.00887298 0)
(27.3822 -0.00986143 0)
(27.4257 -0.0109535 0)
(27.4713 -0.0121253 0)
(27.5191 -0.0134374 0)
(27.5694 -0.0148241 0)
(27.6216 -0.0164304 0)
(27.6767 -0.0180757 0)
(27.7332 -0.0201014 0)
(27.794 -0.0220367 0)
(27.8547 -0.0247197 0)
(27.9224 -0.0269353 0)
(27.9866 -0.0307787 0)
(28.0642 -0.0331717 0)
(28.1302 -0.0392038 0)
(28.2231 -0.0414685 0)
(28.2869 -0.0518132 0)
(28.4065 -0.0534077 0)
(28.4603 -0.072628 0)
(28.6309 -0.0744862 0)
(28.6562 -0.114168 0)
(28.935 -0.124096 0)
(28.8767 -0.24366 0)
(27.3637 -0.0391863 0)
(28.4719 0.00024424 0)
(29.4873 -0.000221292 0)
(29.87 0.00528901 0)
(29.9068 0.00669209 0)
(29.8062 0.00637989 0)
(29.6451 0.00576441 0)
(29.4663 0.00504722 0)
(29.2953 0.00433778 0)
(29.1414 0.00372029 0)
(29.0062 0.00319966 0)
(28.8893 0.00276256 0)
(28.7887 0.00239415 0)
(28.7025 0.00208673 0)
(28.6285 0.00182719 0)
(28.5651 0.00160576 0)
(28.5105 0.0014177 0)
(28.4635 0.00125604 0)
(28.423 0.00111856 0)
(28.3878 0.000997885 0)
(28.3574 0.000894341 0)
(28.3309 0.000804567 0)
(28.3077 0.000725514 0)
(28.2875 0.000655672 0)
(28.2698 0.000594959 0)
(28.2542 0.00054138 0)
(28.2404 0.000494039 0)
(28.2283 0.00045182 0)
(28.2176 0.000414185 0)
(28.208 0.000380689 0)
(28.1996 0.000350942 0)
(28.192 0.000324528 0)
(28.1852 0.000299868 0)
(28.1792 0.000278224 0)
(28.1738 0.000256335 0)
(28.169 0.00023651 0)
(28.1647 0.000217391 0)
(28.161 0.000197505 0)
(28.1576 0.000177387 0)
(28.1548 0.000153579 0)
(28.1524 0.000126628 0)
(28.1505 9.65296e-05 0)
(28.1492 6.16561e-05 0)
(28.1484 1.93761e-05 0)
(28.1481 -3.26794e-05 0)
(28.1486 -9.72126e-05 0)
(28.1499 -0.00017447 0)
(28.1521 -0.000270963 0)
(28.1553 -0.000388205 0)
(28.1597 -0.000530606 0)
(28.1656 -0.000702785 0)
(28.1729 -0.000909335 0)
(28.1821 -0.0011575 0)
(28.1932 -0.00145125 0)
(28.2067 -0.00180018 0)
(28.2228 -0.00221273 0)
(28.2418 -0.00269717 0)
(28.264 -0.00326831 0)
(28.2899 -0.00393331 0)
(28.3198 -0.00471679 0)
(28.3543 -0.00562525 0)
(28.3937 -0.00669516 0)
(28.439 -0.00793624 0)
(28.4817 -0.00914241 0)
(28.5185 -0.0102136 0)
(28.5574 -0.0113566 0)
(28.5984 -0.012614 0)
(28.6416 -0.0140011 0)
(28.687 -0.0154891 0)
(28.7345 -0.0171502 0)
(28.7843 -0.0189071 0)
(28.8361 -0.0209318 0)
(28.8907 -0.0230109 0)
(28.9467 -0.0255468 0)
(29.0066 -0.0279894 0)
(29.0667 -0.0313184 0)
(29.1332 -0.034124 0)
(29.1969 -0.0388322 0)
(29.2724 -0.0419078 0)
(29.338 -0.0491693 0)
(29.4275 -0.0522261 0)
(29.4918 -0.0644193 0)
(29.6052 -0.0669831 0)
(29.6609 -0.0892435 0)
(29.8203 -0.0922067 0)
(29.8491 -0.137599 0)
(30.1022 -0.148999 0)
(30.0522 -0.267787 0)
(27.7683 -0.0556673 0)
(29.0085 -0.00489794 0)
(30.1263 -0.0037834 0)
(30.635 0.00394602 0)
(30.7944 0.00656493 0)
(30.7935 0.00684825 0)
(30.7053 0.00653915 0)
(30.5763 0.00593768 0)
(30.4378 0.00523008 0)
(30.3046 0.00456419 0)
(30.1824 0.00397572 0)
(30.0734 0.00346557 0)
(29.9775 0.00302569 0)
(29.894 0.00265243 0)
(29.8213 0.0023334 0)
(29.7584 0.00205865 0)
(29.7038 0.00182346 0)
(29.6565 0.00162006 0)
(29.6153 0.00144606 0)
(29.5795 0.00129289 0)
(29.5483 0.00116087 0)
(29.521 0.00104599 0)
(29.4972 0.000944654 0)
(29.4762 0.000854962 0)
(29.4579 0.000776744 0)
(29.4416 0.000707585 0)
(29.4273 0.00064636 0)
(29.4146 0.000591717 0)
(29.4034 0.000542945 0)
(29.3934 0.000499424 0)
(29.3845 0.00046073 0)
(29.3765 0.000426395 0)
(29.3694 0.00039415 0)
(29.363 0.000365716 0)
(29.3573 0.000337439 0)
(29.3523 0.000311625 0)
(29.3477 0.000286678 0)
(29.3437 0.000260817 0)
(29.3402 0.000234616 0)
(29.3371 0.000204029 0)
(29.3346 0.000169471 0)
(29.3325 0.000130863 0)
(29.331 8.61726e-05 0)
(29.33 3.21559e-05 0)
(29.3297 -3.41725e-05 0)
(29.33 -0.000116244 0)
(29.3312 -0.000214749 0)
(29.3332 -0.00033723 0)