/*--------------------------------*- C++ -*----------------------------------*\
| =========                 |                                                 |
| \\      /  F ield         | OpenFOAM: The Open Source CFD Toolbox           |
|  \\    /   O peration     | Version:  2306                                  |
|   \\  /    A nd           | Website:  www.openfoam.com                      |
|    \\/     M anipulation  |                                                 |
\*---------------------------------------------------------------------------*/
FoamFile
{
    version     2.0;
    format      ascii;
    arch        "LSB;label=32;scalar=64";
    class       volVectorField;
    location    "1800";
    object      wallShearStress;
}
// * * * * * * * * * * * * * * * * * * * * * * * * * * * * * * * * * * * * * //

dimensions      [0 2 -2 0 0 0 0];

internalField   uniform (0 0 0);

boundaryField
{
    inlet
    {
        type            calculated;
        value           uniform (0 0 0);
    }
    outlet
    {
        type            calculated;
        value           uniform (0 0 0);
    }
    lowerWallStartup
    {
        type            symmetryPlane;
    }
    upperWallStartup
    {
        type            symmetryPlane;
    }
    upperWall
    {
        type            calculated;
        value           nonuniform List<vector> 
218
(
(-10.9208 0.00532621 0)
(-6.23536 0.00114463 0)
(-5.42079 0.000246437 0)
(-4.9628 0.000135937 0)
(-4.68264 8.37946e-05 0)
(-4.50218 5.61895e-05 0)
(-4.37688 4.04908e-05 0)
(-4.28534 3.06204e-05 0)
(-4.21652 2.39306e-05 0)
(-4.16341 1.91895e-05 0)
(-4.12161 1.57018e-05 0)
(-4.08814 1.30475e-05 0)
(-4.06107 1.09816e-05 0)
(-4.03887 9.33597e-06 0)
(-4.02058 8.01601e-06 0)
(-4.0053 6.91622e-06 0)
(-3.99259 6.01198e-06 0)
(-3.98182 5.25646e-06 0)
(-3.97277 4.61878e-06 0)
(-3.96503 4.08793e-06 0)
(-3.95842 3.62225e-06 0)
(-3.95277 3.21706e-06 0)
(-3.94791 2.88647e-06 0)
(-3.94369 2.5863e-06 0)
(-3.94004 2.32833e-06 0)
(-3.93687 2.10203e-06 0)
(-3.9341 1.909e-06 0)
(-3.93167 1.73586e-06 0)
(-3.92953 1.5861e-06 0)
(-3.92765 1.45012e-06 0)
(-3.92598 1.33398e-06 0)
(-3.9245 1.23178e-06 0)
(-3.92319 1.13854e-06 0)
(-3.92199 1.07599e-06 0)
(-3.92092 9.9462e-07 0)
(-3.91995 9.51934e-07 0)
(-3.91907 8.95883e-07 0)
(-3.91823 8.90847e-07 0)
(-3.91745 8.40604e-07 0)
(-3.9167 8.74187e-07 0)
(-3.91598 8.24264e-07 0)
(-3.91529 8.69985e-07 0)
(-3.91459 8.74087e-07 0)
(-3.91385 9.90913e-07 0)
(-3.91308 1.05634e-06 0)
(-3.91219 1.28803e-06 0)
(-3.91122 1.37122e-06 0)
(-3.91016 1.62508e-06 0)
(-3.90895 1.82956e-06 0)
(-3.90756 2.24484e-06 0)
(-3.90595 2.61069e-06 0)
(-3.90408 3.16114e-06 0)
(-3.90193 3.72742e-06 0)
(-3.89945 4.51276e-06 0)
(-3.89658 5.33131e-06 0)
(-3.89331 6.35818e-06 0)
(-3.88954 7.49053e-06 0)
(-3.88531 8.8117e-06 0)
(-3.88049 1.02525e-05 0)
(-3.87516 1.18822e-05 0)
(-3.86917 1.36336e-05 0)
(-3.86265 1.5643e-05 0)
(-3.85536 1.77511e-05 0)
(-3.84885 1.97383e-05 0)
(-3.84345 2.1019e-05 0)
(-3.83804 2.27971e-05 0)
(-3.83247 2.45279e-05 0)
(-3.82685 2.60563e-05 0)
(-3.82115 2.78075e-05 0)
(-3.81546 2.91097e-05 0)
(-3.80973 3.10609e-05 0)
(-3.80404 3.20746e-05 0)
(-3.79835 3.4053e-05 0)
(-3.79275 3.51092e-05 0)
(-3.78718 3.68432e-05 0)
(-3.78172 3.8148e-05 0)
(-3.77633 3.95684e-05 0)
(-3.77105 4.1029e-05 0)
(-3.76589 4.25521e-05 0)
(-3.76078 4.35526e-05 0)
(-3.75586 4.54534e-05 0)
(-3.75107 4.51139e-05 0)
(-3.7463 4.83137e-05 0)
(-3.74207 4.66208e-05 0)
(-3.73707 5.07312e-05 0)
(-3.73408 5.09652e-05 0)
(-3.72751 5.04465e-05 0)
(-3.72778 9.86918e-05 0)
(-3.7197 0.000129625 -1.55145e-20)
(-3.71454 0.000136847 0)
(-3.70874 0.000138645 1.54059e-20)
(-3.70506 0.000145274 -1.53511e-20)
(-3.69855 0.000143505 0)
(-3.6949 0.000142489 -1.52393e-20)
(-3.68841 0.00014213 0)
(-3.68476 0.000142764 0)
(-3.6781 0.000142523 0)
(-3.67442 0.000142641 0)
(-3.66762 0.000142388 1.49384e-20)
(-3.6639 0.000142835 0)
(-3.65697 0.000142195 -1.48085e-20)
(-3.65318 0.000142976 0)
(-3.64611 0.000142108 -1.46734e-20)
(-3.64229 0.000142725 1.46026e-20)
(-3.63508 0.000141936 0)
(-3.6312 0.000142112 1.44597e-20)
(-3.62389 0.00014182 0)
(-3.61996 0.000141321 -1.43117e-20)
(-3.61253 0.000141636 0)
(-3.60854 0.000140951 0)
(-3.601 0.000141434 0)
(-3.59695 0.000140606 0)
(-3.5893 0.000141065 0)
(-3.58519 0.00014006 0)
(-3.57745 0.000140497 0)
(-3.57329 0.000140089 1.3669e-20)
(-3.56545 0.000139714 -1.35845e-20)
(-3.56124 0.000139638 1.34961e-20)
(-3.55331 0.000139062 -1.34093e-20)
(-3.54906 0.000138728 0)
(-3.54106 0.000138059 -1.32294e-20)
(-3.53678 0.000137767 0)
(-3.52872 0.000137136 -1.3045e-20)
(-3.52442 0.00013673 0)
(-3.5163 0.00013656 0)
(-3.51199 0.000135316 -1.27589e-20)
(-3.50382 0.000135624 0)
(-3.49949 0.000134159 -1.25639e-20)
(-3.49128 0.000134511 0)
(-3.48696 0.000133066 -1.23649e-20)
(-3.47871 0.000133532 0)
(-3.47439 0.000132039 -1.21622e-20)
(-3.46611 0.000132362 0)
(-3.46179 0.0001314 0)
(-3.45348 0.000130859 -1.18529e-20)
(-3.44918 0.000130226 0)
(-3.44086 0.000129548 -1.16419e-20)
(-3.43659 0.0001288 0)
(-3.42827 0.000127958 -1.14278e-20)
(-3.42404 0.000127258 0)
(-3.41573 0.000126391 -1.1211e-20)
(-3.41154 0.000125562 0)
(-3.40324 0.000125223 0)
(-3.3991 0.000123597 -1.088e-20)
(-3.39081 0.000123755 0)
(-3.38672 0.000121953 -1.06574e-20)
(-3.37847 0.000122002 0)
(-3.37444 0.000120201 -1.0433e-20)
(-3.36623 0.000120313 0)
(-3.36227 0.000118577 0)
(-3.3541 0.000118541 -1.00945e-20)
(-3.35022 0.000117403 -9.97949e-21)
(-3.3421 0.000116414 0)
(-3.3383 0.000115746 -9.75102e-21)
(-3.33023 0.000114636 0)
(-3.32652 0.000113891 -9.52176e-21)
(-3.31851 0.000112668 0)
(-3.3149 0.000111983 -9.29193e-21)
(-3.30697 0.000110769 0)
(-3.30346 0.000109891 -9.06179e-21)
(-3.29561 0.000109214 -8.94769e-21)
(-3.2922 0.000107509 0)
(-3.28444 0.000107374 -8.71758e-21)
(-3.28114 0.000105655 0)
(-3.27345 0.000105529 -8.48783e-21)
(-3.27026 0.000103796 0)
(-3.26265 0.000103553 0)
(-3.25957 0.000102242 -8.14346e-21)
(-3.25207 0.000101093 8.03032e-21)
(-3.24911 0.000100274 -7.91566e-21)
(-3.24172 9.90503e-05 7.80304e-21)
(-3.23887 9.82301e-05 0)
(-3.23159 9.70491e-05 0)
(-3.22887 9.61834e-05 0)
(-3.22171 9.49396e-05 7.35254e-21)
(-3.21911 9.40515e-05 0)
(-3.21205 9.34748e-05 0)
(-3.20959 9.14938e-05 0)
(-3.20261 9.17292e-05 0)
(-3.20034 8.92886e-05 0)
(-3.19339 9.00997e-05 0)
(-3.19138 8.65155e-05 0)
(-3.18434 8.93055e-05 -6.47367e-21)
(-3.18278 8.66307e-05 6.36444e-21)
(-3.17475 6.55771e-05 0)
(-3.17394 6.29845e-05 0)
(-3.17125 6.21173e-05 -1.60385e-21)
(-3.16748 5.84066e-05 1.37458e-21)
(-3.16338 5.8037e-05 2.34927e-21)
(-3.15866 5.92098e-05 2.00075e-21)
(-3.15327 5.93895e-05 3.39422e-21)
(-3.14724 5.97666e-05 2.86556e-21)
(-3.14048 6.09451e-05 2.40581e-21)
(-3.13302 6.22485e-05 0)
(-3.12476 6.37346e-05 3.32041e-21)
(-3.11581 6.70208e-05 0)
(-3.10609 6.98776e-05 -4.40862e-21)
(-3.09588 7.52948e-05 0)
(-3.08499 8.04188e-05 0)
(-3.07394 8.74999e-05 0)
(-3.0628 9.63164e-05 0)
(-3.05176 0.000106866 0)
(-3.04158 0.000116815 0)
(-3.03232 0.000128436 3.74574e-21)
(-3.02447 0.000138054 0)
(-3.01827 0.000146038 -1.18101e-21)
(-3.01473 0.000148801 -7.36665e-22)
(-3.01218 0.000148854 1.92805e-21)
(-3.01385 0.000133892 0)
(-3.01465 0.000120367 5.71705e-21)
(-3.0214 7.00704e-05 0)
(-3.02389 5.66085e-05 0)
(-3.03703 -9.45317e-05 0)
(-3.03708 -2.99956e-05 0)
(-3.06239 -0.000571762 0)
(-3.05025 3.97688e-05 0)
(-3.12613 -0.00290173 -2.95008e-20)
(-2.90129 -0.000976347 0)
)
;
    }
    lowerWall
    {
        type            calculated;
        value           nonuniform List<vector> 
266
(
(-11.0459 -0.00530639 0)
(-6.28832 -0.00121553 0)
(-5.46373 -0.00026088 0)
(-5.00098 -0.000144118 0)
(-4.71588 -8.93341e-05 0)
(-4.53142 -6.0116e-05 0)
(-4.40302 -4.34147e-05 0)
(-4.30905 -3.28796e-05 0)
(-4.23831 -2.57197e-05 0)
(-4.1837 -2.06463e-05 0)
(-4.14064 -1.69087e-05 0)
(-4.10618 -1.40729e-05 0)
(-4.07819 -1.18494e-05 0)
(-4.05532 -1.0101e-05 0)
(-4.0363 -8.67636e-06 0)
(-4.02056 -7.50233e-06 0)
(-4.00728 -6.53418e-06 0)
(-3.99615 -5.72218e-06 0)
(-3.98666 -5.04885e-06 0)
(-3.9786 -4.45459e-06 0)
(-3.97171 -3.96646e-06 0)
(-3.96577 -3.54361e-06 0)
(-3.96066 -3.17067e-06 0)
(-3.95623 -2.84513e-06 0)
(-3.9524 -2.5707e-06 0)
(-3.94903 -2.32817e-06 0)
(-3.94612 -2.11457e-06 0)
(-3.94353 -1.92461e-06 0)
(-3.94129 -1.75767e-06 0)
(-3.93928 -1.61224e-06 0)
(-3.93753 -1.483e-06 0)
(-3.93595 -1.37029e-06 0)
(-3.93456 -1.27301e-06 0)
(-3.9333 -1.1873e-06 0)
(-3.93218 -1.08043e-06 0)
(-3.93121 -1.00576e-06 0)
(-3.93031 -9.35726e-07 0)
(-3.92954 -8.64797e-07 0)
(-3.92884 -7.98144e-07 0)
(-3.92824 -6.99904e-07 0)
(-3.92776 -6.05025e-07 0)
(-3.92737 -5.12784e-07 0)
(-3.92708 -4.06598e-07 0)
(-3.92689 -2.73161e-07 0)
(-3.92684 -1.28002e-07 0)
(-3.92691 8.33366e-08 0)
(-3.92718 3.31366e-07 0)
(-3.9276 5.98651e-07 0)
(-3.92825 9.38329e-07 0)
(-3.92913 1.36243e-06 0)
(-3.9303 1.85576e-06 0)
(-3.93177 2.45945e-06 0)
(-3.93362 3.19498e-06 0)
(-3.93588 4.01257e-06 0)
(-3.9386 5.01518e-06 0)
(-3.94186 6.16773e-06 0)
(-3.94569 7.55637e-06 0)
(-3.95024 9.15114e-06 0)
(-3.95549 1.10606e-05 0)
(-3.96164 1.32799e-05 0)
(-3.96868 1.59671e-05 0)
(-3.97684 1.91333e-05 0)
(-3.98617 2.32768e-05 0)
(-3.99523 2.6455e-05 0)
(-4.00302 2.86339e-05 0)
(-4.01132 3.17309e-05 0)
(-4.02 3.5637e-05 0)
(-4.02936 3.96004e-05 0)
(-4.03911 4.47397e-05 0)
(-4.04954 4.97186e-05 0)
(-4.06042 5.66481e-05 0)
(-4.07198 6.32745e-05 0)
(-4.08408 7.32368e-05 0)
(-4.09692 8.18972e-05 0)
(-4.11053 9.5964e-05 0)
(-4.12484 0.0001061 0)
(-4.14045 0.000126649 0)
(-4.15624 0.000138666 0)
(-4.17462 0.000174334 0)
(-4.19165 0.000189023 0)
(-4.21453 0.000257512 0)
(-4.23186 0.000274112 0)
(-4.26504 0.000392403 0)
(-4.27719 0.000371378 0)
(-4.33421 0.000879901 0)
(-4.35411 0.000100058 0)
(-4.43641 0.00289778 0)
(-4.37538 0.0686339 0)
(0.514396 -3.30156 0)
(-0.0126266 -0.00173417 0)
(-0.00814105 -0.000456302 8.86163e-24)
(-0.00503509 0.000196611 -7.6129e-24)
(-0.00164867 0.000391952 -0)
(-0.00244885 0.000541899 0)
(-0.00289548 0.000657543 0)
(-0.00300849 0.000754979 0)
(-0.00292595 0.000829513 0)
(-0.00280962 0.000888006 -2.07444e-22)
(-0.00267482 0.000938451 2.43265e-22)
(-0.00250993 0.000984722 -5.85236e-22)
(-0.00231428 0.00102861 7.43412e-22)
(-0.00209383 0.00107176 -0)
(-0.00185683 0.00111698 2.59452e-21)
(-0.00161245 0.00116928 -3.6048e-21)
(-0.00136879 0.00123682 -0)
(-0.00112597 0.00133026 0)
(-0.00086062 0.00145608 -0)
(-0.000500807 0.00159541 7.47448e-20)
(0.000107818 0.00166187 -1.25681e-19)
(0.00127242 0.00141494 4.51168e-19)
(0.00358223 9.71867e-05 -8.44617e-19)
(0.00712095 -0.0045258 0)
(0.00893591 -0.0109438 2.2424e-18)
(0.00988102 -0.0168241 -1.7329e-18)
(0.0102789 -0.0220383 0)
(0.0102813 -0.0264343 0)
(0.00988678 -0.0301998 0)
(0.00887002 -0.0330909 0)
(0.00713094 -0.0352109 0)
(0.00462957 -0.036794 0)
(0.00116967 -0.0376917 -1.18163e-18)
(-0.00135465 -0.0380779 1.89028e-22)
(-0.0101451 -0.0514529 1.22353e-18)
(-0.0244248 -0.0421517 0)
(-0.0218151 -0.0285333 0)
(-0.0252977 -0.0270529 0)
(-0.0261402 -0.0232856 0)
(-0.0244059 -0.0163638 -0)
(-0.0201044 -0.00879393 3.25471e-19)
(-0.0159004 0.000601399 -3.05395e-19)
(-0.012401 0.00133428 -0)
(-0.0124121 -0.0295312 0)
(-0.0298026 -0.182873 0)
(-0.0862634 -0.509502 -7.87169e-20)
(-0.169041 -0.859073 7.35935e-20)
(-0.253406 -1.12625 0)
(-0.186498 -0.100124 0)
(0.280072 -0.167406 -6.01394e-25)
(-0.0618627 -0.0516846 0)
(-0.00564126 0.000142522 -3.7154e-22)
(-0.012427 1.14824e-06 -0)
(-0.0102776 4.82597e-05 0)
(-0.00311456 7.22809e-05 0)
(0.00669953 7.82356e-05 0)
(0.017058 9.30884e-05 0)
(0.0298121 0.000111945 -3.48937e-22)
(0.0446029 0.000129937 0)
(0.0618987 0.000147533 0)
(0.081893 0.000161002 0)
(0.104672 0.000166323 0)
(0.127022 -0.00133672 0)
(3.20315 -0.0473507 0)
(0.184265 -0.000885543 0)
(0.21679 -0.000182542 0)
(0.254513 -0.000212226 0)
(0.297126 -0.000239928 0)
(0.344513 -0.000270324 2.38916e-22)
(0.396962 -0.00029793 0)
(0.454264 -0.000326559 2.39117e-22)
(0.516555 -0.000353874 0)
(0.583882 -0.000385403 2.3927e-22)
(0.656211 -0.000416433 0)
(0.733275 -0.000447861 2.39247e-22)
(0.814596 -0.000474363 0)
(0.899632 -0.000496922 0)
(0.98783 -0.000514426 0)
(1.07873 -0.00052955 2.38005e-22)
(1.17188 -0.00054363 2.37327e-22)
(1.26677 -0.000556662 2.36461e-22)
(1.36285 -0.000569882 2.35382e-22)
(1.45942 -0.0005813 2.34063e-22)
(1.55577 -0.000592308 0)
(1.65109 -0.000602074 0)
(1.74462 -0.000611348 2.28362e-22)
(1.83551 -0.00062043 2.25789e-22)
(1.92298 -0.000627307 2.22845e-22)
(2.00614 -0.000631674 2.19517e-22)
(2.08398 -0.000627983 2.15806e-22)
(2.15533 -0.0006191 2.11721e-22)
(2.21972 -0.000605012 0)
(2.27712 -0.000587019 2.02492e-22)
(2.32709 -0.000563551 1.97397e-22)
(2.36947 -0.00053626 1.92026e-22)
(2.4041 -0.000508413 1.86409e-22)
(2.43096 -0.000478609 1.80579e-22)
(2.44997 -0.000452245 1.74559e-22)
(2.46112 -0.00042489 0)
(2.46431 -0.000402438 1.62048e-22)
(2.45944 -0.000378864 1.5559e-22)
(2.44638 -0.000359023 1.49015e-22)
(2.42494 -0.000337273 1.42338e-22)
(2.39501 -0.000316236 1.35571e-22)
(2.35634 -0.000292038 1.2873e-22)
(2.30882 -0.000265577 0)
(2.25227 -0.000234595 1.14892e-22)
(2.18656 -0.000198509 0)
(2.11156 -0.000156827 0)
(2.02716 -0.000107704 0)
(1.93332 -5.13056e-05 -8.72038e-23)
(1.82985 1.48431e-05 -0)
(1.71682 9.12721e-05 0)
(1.5936 0.000182099 0)
(1.46059 0.000286411 0)
(1.31622 0.000411628 0)
(1.16225 0.00055789 0)
(0.992644 0.000746771 -4.27488e-23)
(0.812791 0.00426008 -0)
(0.78024 0.00790975 0)
(0.537864 -0.00580928 0)
(0.267958 -0.00592298 -4.39207e-23)
(-0.015801 -0.00152778 -0)
(-0.218235 0.00150279 0)
(-0.409333 0.00121404 0)
(-0.590248 0.00101752 0)
(-0.758559 0.000848301 0)
(-0.916885 0.000705257 -0)
(-1.06501 0.000585496 1.09576e-24)
(-1.20432 0.000485925 0)
(-1.33501 0.000403463 -0)
(-1.45814 0.000336243 9.62447e-24)
(-1.57374 0.000280344 -0)
(-1.683 0.000236168 1.46501e-23)
(-1.7853 0.000197913 0)
(-1.88269 0.000170759 0)
(-1.97297 0.000142424 -2.11085e-23)
(-2.0604 0.000129511 -0)
(-2.13926 0.000102964 2.47114e-23)
(-2.219 0.000106498 0)
(-2.28599 7.02139e-05 -0)
(-2.36123 9.92704e-05 0)
(-2.41416 3.74686e-05 0)
(-2.48977 9.97272e-05 -0)
(-2.5264 4.10393e-06 3.22306e-23)
(-2.57756 0.000209834 0)
(-2.63618 8.0244e-05 -0)
(-2.67504 0.000133922 4.14933e-21)
(-2.73417 9.32114e-05 7.3386e-21)
(-2.78488 9.28693e-05 0)
(-2.8446 7.75013e-05 0)
(-2.90213 6.90143e-05 0)
(-2.96252 5.90518e-05 -0)
(-3.021 5.12047e-05 0)
(-3.07806 4.52502e-05 -1.39766e-20)
(-3.13069 4.20436e-05 0)
(-3.17806 4.22483e-05 -2.08879e-20)
(-3.21729 4.64463e-05 1.78172e-20)
(-3.24818 5.45183e-05 0)
(-3.26749 6.65837e-05 0)
(-3.27772 8.09611e-05 -0)
(-3.27431 9.70995e-05 3.37806e-20)
(-3.26477 0.000112626 -2.72399e-20)
(-3.24139 0.000126666 0)
(-3.21953 0.000138339 3.42741e-20)
(-3.18454 0.000145973 0)
(-3.16304 0.000154296 4.20049e-20)
(-3.12791 0.000155469 0)
(-3.1205 0.000167949 0)
(-3.09475 0.000163173 0)
(-3.10905 0.000193901 0)
(-3.09512 0.000178886 0)
(-3.12891 0.000249329 8.36625e-20)
(-3.12143 0.000203969 -4.21068e-20)
(-3.16142 0.000346017 0)
(-3.16237 0.000230367 9.40514e-21)
(-3.16418 0.000460879 0)
(-3.23478 8.9817e-05 0)
)
;
    }
    front
    {
        type            empty;
    }
    back
    {
        type            empty;
    }
}


// ************************************************************************* //
