/*--------------------------------*- C++ -*----------------------------------*\
| =========                 |                                                 |
| \\      /  F ield         | OpenFOAM: The Open Source CFD Toolbox           |
|  \\    /   O peration     | Version:  2306                                  |
|   \\  /    A nd           | Website:  www.openfoam.com                      |
|    \\/     M anipulation  |                                                 |
\*---------------------------------------------------------------------------*/
FoamFile
{
    version     2.0;
    format      ascii;
    arch        "LSB;label=32;scalar=64";
    class       volScalarField;
    location    "900";
    object      cp;
}
// * * * * * * * * * * * * * * * * * * * * * * * * * * * * * * * * * * * * * //

dimensions      [0 0 0 0 0 0 0];

internalField   nonuniform List<scalar> 
20540
(
86.9349
86.9239
86.9349
86.9239
86.9349
86.9239
86.9349
86.9239
86.9349
86.9239
86.9349
86.9239
86.9349
86.9239
86.9349
86.9238
86.9349
86.9238
86.9349
86.9238
86.9349
86.9238
86.9349
86.9238
86.9349
86.9238
86.9349
86.9238
86.9349
86.9238
86.9349
86.9237
86.9349
86.9237
86.9349
86.9237
86.9349
86.9237
86.9349
86.9236
86.9349
86.9236
86.9349
86.9235
86.9349
86.9234
86.9349
86.9233
86.9349
86.9232
86.9348
86.9231
86.9348
86.923
86.9348
86.9228
86.9348
86.9227
86.9348
86.9225
86.9348
86.9224
86.9348
86.9223
86.9348
86.9222
86.9348
86.9222
86.9348
86.9223
86.9349
86.9223
86.9349
86.9224
86.9349
86.9225
86.935
86.9226
86.935
86.9227
86.935
86.9228
86.935
86.9229
86.935
86.923
86.9351
86.923
86.9351
86.9231
86.9351
86.9231
86.9351
86.9231
86.9351
86.9232
86.9351
86.9232
86.9351
86.9232
86.9351
86.9232
86.9351
86.9233
86.9351
86.9233
86.9351
86.9233
86.9351
86.9233
86.9351
86.9233
86.9351
86.9233
86.9351
86.9233
86.9351
86.9233
86.9351
86.9233
86.9351
86.9233
86.9351
86.9233
86.9351
86.9233
86.9351
86.9233
86.9351
86.9233
86.9047
86.8742
86.8592
86.8516
86.8571
86.8607
86.8723
86.8794
86.8928
86.9029
86.9185
86.9317
86.9491
86.9644
86.9824
86.9984
87.0155
87.0308
87.046
87.0592
87.0714
87.0815
87.0901
87.0966
87.1012
87.1038
87.1044
87.1031
87.1006
87.0965
87.0907
87.0838
87.0758
87.0671
87.0577
87.0476
87.0372
87.0263
87.0153
87.0041
86.9928
86.9814
86.9699
86.9585
86.947
86.9356
86.9241
86.9127
86.9013
86.8899
86.8783
86.8666
86.8552
86.8436
86.8307
86.8171
86.8021
86.7863
86.7688
86.7508
86.7314
86.7118
86.6915
86.6769
86.6644
86.6528
86.6399
86.6272
86.613
86.5977
86.5804
86.5607
86.5386
86.5147
86.4894
86.4636
86.4374
86.4109
86.3838
86.3547
86.3237
86.2879
86.2491
86.2018
86.1516
86.0847
86.0159
85.8886
86.9047
86.8742
86.8592
86.8516
86.8571
86.8607
86.8723
86.8794
86.8928
86.9029
86.9185
86.9317
86.9491
86.9644
86.9824
86.9984
87.0155
87.0308
87.046
87.0592
87.0714
87.0815
87.0901
87.0966
87.1012
87.1038
87.1044
87.1031
87.1006
87.0965
87.0907
87.0838
87.0758
87.0671
87.0577
87.0476
87.0372
87.0263
87.0153
87.0041
86.9928
86.9814
86.9699
86.9585
86.947
86.9356
86.9241
86.9127
86.9013
86.8899
86.8783
86.8666
86.8552
86.8436
86.8307
86.8171
86.8021
86.7863
86.7688
86.7508
86.7314
86.7118
86.6915
86.6769
86.6644
86.6528
86.6399
86.6272
86.613
86.5977
86.5803
86.5607
86.5386
86.5147
86.4894
86.4636
86.4374
86.4109
86.3838
86.3546
86.3236
86.2879
86.249
86.2018
86.1516
86.0846
86.016
85.8891
86.9047
86.8742
86.8592
86.8517
86.8571
86.8607
86.8723
86.8794
86.8928
86.9029
86.9185
86.9317
86.9491
86.9644
86.9824
86.9984
87.0155
87.0308
87.046
87.0592
87.0714
87.0815
87.0901
87.0966
87.1012
87.1038
87.1044
87.1031
87.1006
87.0965
87.0907
87.0838
87.0758
87.0671
87.0577
87.0476
87.0372
87.0263
87.0153
87.0041
86.9928
86.9814
86.9699
86.9585
86.947
86.9356
86.9241
86.9127
86.9013
86.8899
86.8783
86.8666
86.8552
86.8436
86.8307
86.8171
86.8021
86.7863
86.7688
86.7508
86.7314
86.7118
86.6915
86.6769
86.6644
86.6528
86.6399
86.6272
86.613
86.5977
86.5803
86.5607
86.5386
86.5147
86.4894
86.4636
86.4374
86.4109
86.3837
86.3546
86.3236
86.2879
86.249
86.2018
86.1516
86.0846
86.0164
85.8907
86.9047
86.8742
86.8592
86.8517
86.8571
86.8607
86.8723
86.8794
86.8928
86.9029
86.9185
86.9317
86.9491
86.9644
86.9824
86.9984
87.0155
87.0308
87.046
87.0592
87.0714
87.0815
87.0901
87.0966
87.1012
87.1038
87.1044
87.1031
87.1006
87.0965
87.0907
87.0838
87.0758
87.0671
87.0577
87.0476
87.0372
87.0263
87.0153
87.0041
86.9928
86.9814
86.9699
86.9585
86.947
86.9356
86.9241
86.9127
86.9013
86.8899
86.8783
86.8666
86.8552
86.8436
86.8307
86.8171
86.8021
86.7863
86.7688
86.7508
86.7314
86.7118
86.6915
86.6769
86.6644
86.6528
86.6399
86.6272
86.613
86.5977
86.5803
86.5607
86.5386
86.5147
86.4894
86.4636
86.4374
86.4109
86.3837
86.3546
86.3236
86.2879
86.249
86.2017
86.1516
86.0845
86.017
85.8932
86.9047
86.8742
86.8592
86.8517
86.8571
86.8607
86.8723
86.8794
86.8928
86.9029
86.9185
86.9317
86.9491
86.9644
86.9824
86.9984
87.0155
87.0308
87.046
87.0592
87.0714
87.0815
87.0901
87.0966
87.1012
87.1038
87.1044
87.1031
87.1006
87.0965
87.0907
87.0838
87.0758
87.0671
87.0577
87.0476
87.0372
87.0263
87.0153
87.0041
86.9928
86.9814
86.9699
86.9585
86.947
86.9356
86.9241
86.9127
86.9013
86.8899
86.8783
86.8666
86.8552
86.8436
86.8307
86.8171
86.8021
86.7863
86.7688
86.7508
86.7314
86.7118
86.6915
86.6769
86.6644
86.6528
86.6399
86.6272
86.6129
86.5977
86.5803
86.5607
86.5386
86.5147
86.4894
86.4636
86.4374
86.4109
86.3837
86.3546
86.3236
86.2879
86.249
86.2017
86.1516
86.0845
86.0179
85.897
86.9047
86.8742
86.8592
86.8517
86.8571
86.8607
86.8723
86.8794
86.8928
86.9029
86.9185
86.9317
86.9491
86.9644
86.9824
86.9984
87.0155
87.0308
87.046
87.0592
87.0714
87.0815
87.0901
87.0966
87.1012
87.1038
87.1044
87.1031
87.1006
87.0965
87.0907
87.0838
87.0758
87.0671
87.0577
87.0476
87.0372
87.0263
87.0153
87.0041
86.9928
86.9814
86.9699
86.9585
86.947
86.9356
86.9241
86.9127
86.9013
86.8899
86.8783
86.8666
86.8552
86.8436
86.8307
86.8171
86.8021
86.7863
86.7688
86.7508
86.7314
86.7118
86.6915
86.6769
86.6644
86.6528
86.6399
86.6272
86.6129
86.5977
86.5803
86.5606
86.5386
86.5147
86.4894
86.4636
86.4374
86.4109
86.3837
86.3546
86.3236
86.2878
86.2489
86.2017
86.1516
86.0845
86.019
85.9019
86.9047
86.8742
86.8592
86.8517
86.8571
86.8607
86.8723
86.8794
86.8928
86.9029
86.9185
86.9317
86.9491
86.9644
86.9824
86.9984
87.0155
87.0308
87.046
87.0592
87.0714
87.0815
87.0901
87.0966
87.1012
87.1038
87.1044
87.1031
87.1006
87.0965
87.0907
87.0838
87.0758
87.0671
87.0577
87.0476
87.0372
87.0263
87.0153
87.0041
86.9928
86.9814
86.9699
86.9585
86.947
86.9356
86.9241
86.9127
86.9013
86.8899
86.8783
86.8666
86.8552
86.8436
86.8307
86.8171
86.8021
86.7863
86.7688
86.7508
86.7314
86.7118
86.6915
86.6769
86.6644
86.6528
86.6398
86.6272
86.6129
86.5977
86.5803
86.5606
86.5385
86.5146
86.4893
86.4636
86.4374
86.4108
86.3836
86.3545
86.3235
86.2878
86.2489
86.2016
86.1517
86.0847
86.0203
85.9083
86.9047
86.8742
86.8593
86.8517
86.8571
86.8607
86.8723
86.8794
86.8928
86.9029
86.9185
86.9317
86.9491
86.9644
86.9824
86.9984
87.0155
87.0308
87.046
87.0592
87.0714
87.0815
87.0901
87.0966
87.1012
87.1038
87.1044
87.1031
87.1006
87.0965
87.0907
87.0838
87.0758
87.0671
87.0577
87.0476
87.0372
87.0263
87.0153
87.0041
86.9928
86.9814
86.9699
86.9585
86.947
86.9356
86.9241
86.9127
86.9013
86.8899
86.8783
86.8666
86.8552
86.8436
86.8307
86.8171
86.8021
86.7863
86.7688
86.7508
86.7314
86.7118
86.6915
86.6769
86.6644
86.6528
86.6398
86.6271
86.6129
86.5976
86.5802
86.5605
86.5385
86.5146
86.4893
86.4635
86.4373
86.4108
86.3836
86.3545
86.3234
86.2877
86.2487
86.2016
86.1517
86.0851
86.0218
85.9161
86.9047
86.8742
86.8593
86.8517
86.8571
86.8607
86.8723
86.8794
86.8928
86.9029
86.9185
86.9317
86.9491
86.9644
86.9824
86.9984
87.0155
87.0308
87.046
87.0592
87.0714
87.0815
87.0901
87.0966
87.1012
87.1038
87.1044
87.1031
87.1006
87.0965
87.0907
87.0838
87.0758
87.0671
87.0577
87.0476
87.0372
87.0263
87.0153
87.0041
86.9928
86.9814
86.9699
86.9585
86.947
86.9356
86.9241
86.9127
86.9013
86.8899
86.8783
86.8666
86.8552
86.8436
86.8307
86.8171
86.8021
86.7863
86.7688
86.7508
86.7314
86.7118
86.6915
86.6768
86.6644
86.6528
86.6398
86.6271
86.6129
86.5976
86.5802
86.5605
86.5384
86.5145
86.4892
86.4634
86.4372
86.4107
86.3835
86.3543
86.3232
86.2875
86.2486
86.2015
86.1518
86.0858
86.0236
85.9254
86.9047
86.8742
86.8593
86.8517
86.8571
86.8607
86.8723
86.8794
86.8928
86.9029
86.9185
86.9317
86.9491
86.9644
86.9824
86.9984
87.0155
87.0308
87.046
87.0592
87.0714
87.0815
87.0901
87.0966
87.1012
87.1038
87.1044
87.1031
87.1006
87.0965
87.0907
87.0838
87.0758
87.0671
87.0577
87.0476
87.0372
87.0263
87.0153
87.0041
86.9928
86.9814
86.9699
86.9585
86.947
86.9356
86.9241
86.9127
86.9013
86.8899
86.8783
86.8666
86.8552
86.8436
86.8307
86.8171
86.8021
86.7863
86.7688
86.7508
86.7314
86.7118
86.6915
86.6768
86.6644
86.6527
86.6398
86.627
86.6128
86.5975
86.5801
86.5604
86.5383
86.5144
86.4891
86.4633
86.4371
86.4106
86.3833
86.3542
86.323
86.2873
86.2483
86.2014
86.1518
86.0868
86.0258
85.9362
86.9047
86.8742
86.8593
86.8517
86.8571
86.8607
86.8723
86.8794
86.8928
86.9029
86.9185
86.9317
86.9491
86.9644
86.9824
86.9984
87.0155
87.0308
87.046
87.0592
87.0714
87.0815
87.0901
87.0966
87.1012
87.1038
87.1044
87.1031
87.1006
87.0965
87.0907
87.0838
87.0758
87.0671
87.0577
87.0476
87.0372
87.0263
87.0153
87.0041
86.9928
86.9814
86.97
86.9585
86.947
86.9356
86.9241
86.9127
86.9013
86.8899
86.8783
86.8666
86.8552
86.8436
86.8307
86.8171
86.8021
86.7863
86.7688
86.7508
86.7314
86.7118
86.6915
86.6768
86.6644
86.6527
86.6397
86.627
86.6127
86.5974
86.5799
86.5602
86.5381
86.5142
86.4889
86.4631
86.4369
86.4104
86.3831
86.3539
86.3227
86.287
86.248
86.2013
86.1519
86.0884
86.0285
85.9482
86.9047
86.8742
86.8593
86.8517
86.8571
86.8607
86.8723
86.8794
86.8928
86.9029
86.9185
86.9317
86.9491
86.9644
86.9824
86.9984
87.0155
87.0308
87.046
87.0592
87.0714
87.0815
87.0901
87.0966
87.1012
87.1038
87.1044
87.1031
87.1006
87.0965
87.0907
87.0838
87.0758
87.0671
87.0577
87.0476
87.0372
87.0263
87.0153
87.0041
86.9928
86.9814
86.97
86.9585
86.9471
86.9356
86.9241
86.9127
86.9013
86.8899
86.8783
86.8666
86.8552
86.8436
86.8307
86.8171
86.8021
86.7863
86.7688
86.7508
86.7314
86.7117
86.6915
86.6768
86.6644
86.6526
86.6397
86.6268
86.6126
86.5972
86.5797
86.5599
86.5378
86.5139
86.4886
86.4628
86.4367
86.4101
86.3827
86.3535
86.3222
86.2865
86.2475
86.2013
86.152
86.0906
86.0319
85.9613
86.9047
86.8743
86.8593
86.8517
86.8571
86.8607
86.8723
86.8794
86.8928
86.9029
86.9185
86.9317
86.9491
86.9644
86.9824
86.9984
87.0155
87.0308
87.046
87.0592
87.0714
87.0815
87.0901
87.0966
87.1012
87.1038
87.1044
87.1031
87.1006
87.0965
87.0907
87.0838
87.0758
87.0671
87.0577
87.0476
87.0372
87.0263
87.0153
87.0041
86.9928
86.9814
86.97
86.9585
86.9471
86.9356
86.9241
86.9127
86.9013
86.8899
86.8783
86.8666
86.8552
86.8436
86.8307
86.8171
86.8021
86.7863
86.7688
86.7508
86.7314
86.7117
86.6915
86.6767
86.6643
86.6525
86.6396
86.6267
86.6124
86.5969
86.5793
86.5595
86.5374
86.5135
86.4882
86.4625
86.4363
86.4096
86.3822
86.3529
86.3215
86.2859
86.2469
86.2012
86.1523
86.0936
86.0364
85.9749
86.9047
86.8743
86.8593
86.8517
86.8571
86.8607
86.8723
86.8794
86.8928
86.9029
86.9185
86.9317
86.9491
86.9644
86.9824
86.9984
87.0155
87.0308
87.046
87.0592
87.0714
87.0815
87.0901
87.0966
87.1012
87.1038
87.1044
87.1031
87.1006
87.0965
87.0907
87.0838
87.0758
87.0671
87.0577
87.0476
87.0372
87.0264
87.0153
87.0041
86.9928
86.9814
86.97
86.9585
86.9471
86.9356
86.9241
86.9127
86.9013
86.8899
86.8783
86.8666
86.8552
86.8436
86.8307
86.8171
86.8021
86.7863
86.7688
86.7508
86.7314
86.7117
86.6915
86.6767
86.6643
86.6524
86.6394
86.6264
86.612
86.5965
86.5788
86.559
86.5368
86.5129
86.4877
86.4619
86.4357
86.409
86.3815
86.3522
86.3206
86.2851
86.2461
86.2013
86.1529
86.0973
86.0421
85.9887
86.9047
86.8743
86.8593
86.8517
86.8571
86.8607
86.8723
86.8794
86.8928
86.9029
86.9185
86.9317
86.9491
86.9644
86.9824
86.9984
87.0155
87.0308
87.046
87.0592
87.0714
87.0815
87.0901
87.0966
87.1012
87.1038
87.1044
87.1031
87.1006
87.0965
87.0907
87.0838
87.0758
87.0671
87.0577
87.0476
87.0372
87.0264
87.0153
87.0041
86.9928
86.9814
86.97
86.9585
86.9471
86.9356
86.9242
86.9127
86.9013
86.89
86.8784
86.8667
86.8553
86.8436
86.8307
86.8171
86.8021
86.7863
86.7688
86.7508
86.7314
86.7117
86.6915
86.6766
86.6642
86.6521
86.6391
86.626
86.6116
86.5959
86.5781
86.5582
86.536
86.5121
86.4869
86.4612
86.435
86.4082
86.3806
86.3512
86.3195
86.2842
86.2452
86.2014
86.1539
86.1016
86.0492
86.0022
86.9047
86.8743
86.8593
86.8517
86.8571
86.8607
86.8723
86.8794
86.8928
86.9029
86.9185
86.9317
86.9491
86.9644
86.9824
86.9984
87.0155
87.0308
87.046
87.0592
87.0714
87.0815
87.0901
87.0966
87.1012
87.1038
87.1044
87.1031
87.1006
87.0965
87.0907
87.0838
87.0758
87.0671
87.0577
87.0476
87.0372
87.0264
87.0153
87.0041
86.9928
86.9814
86.97
86.9586
86.9471
86.9356
86.9242
86.9128
86.9013
86.89
86.8784
86.8667
86.8553
86.8437
86.8308
86.8171
86.8021
86.7863
86.7689
86.7508
86.7315
86.7117
86.6915
86.6765
86.664
86.6519
86.6388
86.6255
86.611
86.5951
86.5772
86.5571
86.5349
86.511
86.4859
86.4602
86.434
86.4072
86.3794
86.3499
86.318
86.2829
86.2443
86.2016
86.1554
86.1065
86.0573
86.015
86.9047
86.8743
86.8593
86.8517
86.8571
86.8607
86.8723
86.8794
86.8928
86.9029
86.9185
86.9317
86.9491
86.9644
86.9824
86.9984
87.0155
87.0308
87.046
87.0592
87.0714
87.0815
87.0901
87.0966
87.1011
87.1038
87.1044
87.1031
87.1006
87.0965
87.0907
87.0838
87.0758
87.0671
87.0577
87.0476
87.0372
87.0264
87.0153
87.0041
86.9928
86.9814
86.97
86.9586
86.9471
86.9357
86.9242
86.9128
86.9014
86.8901
86.8785
86.8668
86.8554
86.8437
86.8308
86.8172
86.8022
86.7863
86.7689
86.7508
86.7315
86.7117
86.6914
86.6763
86.6638
86.6515
86.6383
86.6249
86.6101
86.594
86.5759
86.5558
86.5335
86.5096
86.4845
86.4589
86.4326
86.4058
86.3778
86.3482
86.3163
86.2815
86.2433
86.202
86.1575
86.1118
86.0661
86.027
86.9046
86.8744
86.8593
86.8517
86.8572
86.8607
86.8723
86.8794
86.8928
86.9029
86.9185
86.9317
86.9491
86.9644
86.9824
86.9984
87.0155
87.0308
87.046
87.0592
87.0714
87.0815
87.0901
87.0966
87.1011
87.1038
87.1044
87.1031
87.1006
87.0965
87.0907
87.0838
87.0758
87.0671
87.0577
87.0476
87.0372
87.0264
87.0153
87.0041
86.9928
86.9814
86.97
86.9586
86.9472
86.9357
86.9243
86.9129
86.9015
86.8901
86.8786
86.8669
86.8555
86.8438
86.8309
86.8172
86.8022
86.7863
86.769
86.7508
86.7315
86.7117
86.6914
86.6762
86.6635
86.6509
86.6377
86.624
86.609
86.5926
86.5743
86.554
86.5316
86.5078
86.4828
86.4572
86.4309
86.404
86.3759
86.3462
86.3143
86.2798
86.2424
86.2025
86.1601
86.1174
86.0751
86.038
86.9046
86.8744
86.8593
86.8517
86.8572
86.8607
86.8723
86.8794
86.8928
86.9029
86.9185
86.9317
86.9491
86.9644
86.9824
86.9984
87.0155
87.0308
87.046
87.0592
87.0714
87.0815
87.0901
87.0966
87.1011
87.1038
87.1044
87.1032
87.1006
87.0965
87.0907
87.0838
87.0758
87.0671
87.0577
87.0477
87.0372
87.0264
87.0153
87.0042
86.9928
86.9815
86.9701
86.9587
86.9472
86.9358
86.9244
86.913
86.9016
86.8902
86.8787
86.8671
86.8556
86.8439
86.831
86.8173
86.8023
86.7864
86.769
86.7508
86.7316
86.7116
86.6913
86.6759
86.6631
86.6503
86.6368
86.6228
86.6075
86.5908
86.5722
86.5517
86.5293
86.5055
86.4806
86.455
86.4288
86.4018
86.3736
86.3438
86.312
86.2781
86.2416
86.2032
86.1632
86.1232
86.0838
86.0482
86.9046
86.8744
86.8593
86.8517
86.8572
86.8607
86.8723
86.8794
86.8928
86.903
86.9185
86.9317
86.9491
86.9644
86.9824
86.9984
87.0155
87.0308
87.046
87.0592
87.0714
87.0815
87.0901
87.0966
87.1011
87.1038
87.1044
87.1032
87.1006
87.0965
87.0907
87.0838
87.0758
87.0671
87.0577
87.0477
87.0372
87.0264
87.0154
87.0042
86.9929
86.9815
86.9701
86.9587
86.9473
86.9359
86.9245
86.9131
86.9017
86.8904
86.8789
86.8673
86.8558
86.844
86.8312
86.8174
86.8024
86.7865
86.7691
86.7509
86.7316
86.7116
86.6913
86.6756
86.6626
86.6494
86.6356
86.6213
86.6056
86.5885
86.5697
86.549
86.5265
86.5027
86.4779
86.4524
86.4261
86.3991
86.3708
86.3412
86.3097
86.2764
86.2411
86.2044
86.1667
86.1292
86.0922
86.0578
86.9046
86.8745
86.8593
86.8517
86.8572
86.8607
86.8723
86.8794
86.8928
86.903
86.9185
86.9317
86.9491
86.9645
86.9824
86.9984
87.0155
87.0308
87.046
87.0592
87.0714
87.0815
87.0901
87.0966
87.1011
87.1038
87.1044
87.1032
87.1005
87.0965
87.0907
87.0837
87.0758
87.0671
87.0577
87.0477
87.0372
87.0264
87.0154
87.0042
86.9929
86.9816
86.9702
86.9588
86.9475
86.9361
86.9247
86.9133
86.9019
86.8906
86.8791
86.8676
86.856
86.8442
86.8313
86.8176
86.8026
86.7866
86.7693
86.751
86.7317
86.7116
86.6912
86.6752
86.6619
86.6483
86.6342
86.6193
86.6032
86.5857
86.5665
86.5456
86.5231
86.4994
86.4747
86.4493
86.4231
86.396
86.3678
86.3384
86.3074
86.2749
86.241
86.2062
86.1706
86.1353
86.1004
86.067
86.9045
86.8745
86.8594
86.8517
86.8572
86.8607
86.8723
86.8794
86.8928
86.903
86.9185
86.9317
86.9491
86.9645
86.9824
86.9984
87.0155
87.0308
87.046
87.0592
87.0714
87.0815
87.0901
87.0966
87.1011
87.1038
87.1044
87.1032
87.1005
87.0964
87.0907
87.0837
87.0758
87.0671
87.0577
87.0477
87.0372
87.0264
87.0154
87.0043
86.993
86.9817
86.9703
86.959
86.9476
86.9362
86.9249
86.9135
86.9022
86.8909
86.8795
86.8679
86.8563
86.8445
86.8316
86.8178
86.8028
86.7868
86.7695
86.7512
86.7319
86.7116
86.6911
86.6746
86.6611
86.6469
86.6323
86.6169
86.6003
86.5824
86.5628
86.5417
86.5192
86.4956
86.471
86.4457
86.4197
86.3927
86.3648
86.3357
86.3054
86.274
86.2416
86.2085
86.175
86.1417
86.1085
86.0763
86.9045
86.8746
86.8594
86.8517
86.8572
86.8607
86.8723
86.8795
86.8928
86.903
86.9185
86.9317
86.9491
86.9645
86.9824
86.9984
87.0155
87.0308
87.046
87.0592
87.0714
87.0815
87.0901
87.0965
87.1011
87.1038
87.1044
87.1032
87.1005
87.0964
87.0907
87.0837
87.0758
87.0671
87.0577
87.0477
87.0372
87.0265
87.0155
87.0043
86.9931
86.9818
86.9705
86.9592
86.9478
86.9365
86.9252
86.9139
86.9026
86.8913
86.8799
86.8684
86.8567
86.8448
86.8319
86.8181
86.8031
86.7871
86.7698
86.7514
86.7321
86.7117
86.6909
86.674
86.6599
86.6453
86.6301
86.6141
86.597
86.5785
86.5586
86.5374
86.5149
86.4914
86.4671
86.442
86.4161
86.3895
86.3619
86.3335
86.3041
86.2739
86.243
86.2116
86.18
86.1486
86.1169
86.0861
86.9045
86.8747
86.8594
86.8517
86.8572
86.8608
86.8723
86.8795
86.8929
86.903
86.9185
86.9317
86.9491
86.9645
86.9824
86.9984
87.0156
87.0308
87.046
87.0592
87.0714
87.0815
87.09
87.0965
87.1011
87.1037
87.1044
87.1032
87.1005
87.0964
87.0907
87.0837
87.0758
87.0671
87.0577
87.0477
87.0373
87.0265
87.0156
87.0044
86.9932
86.982
86.9707
86.9594
86.9481
86.9368
86.9256
86.9143
86.9031
86.8918
86.8805
86.8689
86.8573
86.8453
86.8324
86.8185
86.8036
86.7875
86.7702
86.7518
86.7324
86.7118
86.6908
86.6733
86.6586
86.6433
86.6275
86.6109
86.5932
86.5743
86.5542
86.5328
86.5105
86.4872
86.4631
86.4384
86.4129
86.3867
86.3597
86.332
86.3037
86.2748
86.2454
86.2157
86.1858
86.1561
86.1261
86.0968
86.9044
86.8748
86.8594
86.8517
86.8572
86.8608
86.8723
86.8795
86.8929
86.903
86.9185
86.9317
86.9491
86.9645
86.9824
86.9984
87.0156
87.0308
87.046
87.0592
87.0713
87.0815
87.09
87.0965
87.1011
87.1037
87.1044
87.1032
87.1005
87.0963
87.0906
87.0837
87.0758
87.0671
87.0577
87.0477
87.0373
87.0266
87.0157
87.0046
86.9934
86.9822
86.971
86.9597
86.9485
86.9373
86.9261
86.9149
86.9037
86.8925
86.8812
86.8697
86.858
86.846
86.8331
86.8192
86.8042
86.7881
86.7709
86.7524
86.7329
86.7121
86.6907
86.6725
86.6572
86.6413
86.6248
86.6076
86.5893
86.5701
86.5498
86.5285
86.5063
86.4833
86.4596
86.4353
86.4103
86.3847
86.3585
86.3318
86.3045
86.2769
86.249
86.2209
86.1926
86.1645
86.1361
86.1083
86.9043
86.8749
86.8595
86.8518
86.8572
86.8608
86.8723
86.8795
86.8929
86.903
86.9185
86.9317
86.9491
86.9644
86.9824
86.9984
87.0156
87.0308
87.046
87.0592
87.0713
87.0815
87.09
87.0965
87.1011
87.1037
87.1043
87.1032
87.1004
87.0963
87.0906
87.0837
87.0758
87.0671
87.0577
87.0478
87.0374
87.0267
87.0158
87.0048
86.9936
86.9825
86.9713
86.9602
86.9491
86.9379
86.9268
86.9157
86.9046
86.8935
86.8822
86.8708
86.8591
86.8469
86.834
86.8201
86.8052
86.7891
86.7719
86.7533
86.7337
86.7127
86.6908
86.6719
86.656
86.6393
86.6222
86.6044
86.5858
86.5663
86.5459
86.5248
86.5029
86.4803
86.457
86.4332
86.4088
86.384
86.3586
86.3329
86.3068
86.2804
86.2539
86.2272
86.2004
86.1737
86.1468
86.1206
86.9043
86.875
86.8595
86.8518
86.8573
86.8608
86.8723
86.8794
86.8929
86.903
86.9186
86.9317
86.9492
86.9644
86.9824
86.9984
87.0156
87.0308
87.046
87.0591
87.0713
87.0814
87.09
87.0964
87.101
87.1036
87.1043
87.1032
87.1004
87.0963
87.0906
87.0837
87.0758
87.0671
87.0578
87.0479
87.0375
87.0268
87.016
87.005
86.9939
86.9829
86.9718
86.9608
86.9498
86.9388
86.9278
86.9168
86.9058
86.8947
86.8835
86.8721
86.8604
86.8482
86.8353
86.8215
86.8066
86.7906
86.7734
86.7548
86.735
86.7137
86.6913
86.6718
86.6552
86.6379
86.6202
86.602
86.5831
86.5635
86.5432
86.5223
86.5007
86.4785
86.4558
86.4326
86.4089
86.3848
86.3604
86.3356
86.3106
86.2854
86.26
86.2346
86.209
86.1837
86.1581
86.1331
86.9042
86.8751
86.8596
86.8518
86.8573
86.8608
86.8724
86.8794
86.8929
86.9029
86.9186
86.9317
86.9492
86.9644
86.9825
86.9984
87.0156
87.0307
87.046
87.0591
87.0713
87.0814
87.09
87.0964
87.101
87.1036
87.1043
87.1031
87.1004
87.0962
87.0906
87.0837
87.0758
87.0672
87.0578
87.048
87.0376
87.027
87.0162
87.0053
86.9944
86.9834
86.9725
86.9616
86.9507
86.9399
86.9291
86.9182
86.9074
86.8964
86.8853
86.8739
86.8622
86.85
86.8372
86.8235
86.8088
86.7929
86.7757
86.7571
86.7372
86.7156
86.6929
86.6727
86.6555
86.6377
86.6196
86.6011
86.5821
86.5624
86.5423
86.5216
86.5004
86.4786
86.4564
86.4338
86.4108
86.3875
86.3639
86.34
86.316
86.2918
86.2674
86.2431
86.2185
86.1942
86.1696
86.1456
86.9041
86.8752
86.8597
86.8518
86.8573
86.8607
86.8724
86.8794
86.893
86.9029
86.9186
86.9317
86.9492
86.9644
86.9825
86.9983
87.0156
87.0307
87.046
87.0591
87.0713
87.0814
87.0899
87.0964
87.101
87.1036
87.1043
87.1031
87.1004
87.0962
87.0906
87.0837
87.0759
87.0672
87.0579
87.0481
87.0378
87.0273
87.0166
87.0058
86.9949
86.9841
86.9733
86.9626
86.952
86.9414
86.9307
86.9201
86.9094
86.8986
86.8876
86.8763
86.8647
86.8526
86.8399
86.8264
86.8119
86.7963
86.7793
86.7608
86.7408
86.7191
86.696
86.6754
86.6578
86.6397
86.6213
86.6026
86.5835
86.5639
86.5439
86.5234
86.5025
86.4812
86.4595
86.4374
86.4151
86.3925
86.3696
86.3466
86.3233
86.3
86.2765
86.2529
86.2292
86.2057
86.1819
86.1585
86.904
86.8753
86.8598
86.8518
86.8574
86.8607
86.8724
86.8793
86.893
86.9029
86.9187
86.9316
86.9493
86.9643
86.9826
86.9983
87.0157
87.0307
87.046
87.059
87.0713
87.0813
87.0899
87.0964
87.101
87.1036
87.1043
87.1032
87.1004
87.0962
87.0906
87.0838
87.076
87.0674
87.0581
87.0483
87.0381
87.0277
87.017
87.0063
86.9957
86.985
86.9744
86.964
86.9536
86.9432
86.9329
86.9225
86.9121
86.9015
86.8906
86.8795
86.868
86.8561
86.8437
86.8306
86.8167
86.8015
86.7849
86.7666
86.7467
86.725
86.702
86.6812
86.6633
86.6449
86.6264
86.6077
86.5885
86.569
86.5491
86.5288
86.5082
86.4872
86.466
86.4445
86.4227
86.4008
86.3787
86.3564
86.3339
86.3113
86.2886
86.2658
86.2428
86.2198
86.1966
86.1737
86.904
86.8754
86.8598
86.8517
86.8574
86.8606
86.8725
86.8792
86.8931
86.9028
86.9188
86.9315
86.9494
86.9643
86.9826
86.9982
87.0157
87.0306
87.0461
87.059
87.0714
87.0814
87.09
87.0964
87.1011
87.1036
87.1044
87.1033
87.1006
87.0964
87.0908
87.084
87.0762
87.0676
87.0583
87.0486
87.0385
87.0281
87.0176
87.007
86.9965
86.986
86.9757
86.9655
86.9554
86.9454
86.9354
86.9253
86.9152
86.9048
86.8942
86.8832
86.8719
86.8603
86.8484
86.836
86.8228
86.8085
86.7926
86.7748
86.7552
86.7336
86.7108
86.6901
86.6722
86.6537
86.6351
86.6163
86.5971
86.5775
86.5576
86.5374
86.517
86.4963
86.4755
86.4545
86.4334
86.4121
86.3907
86.3693
86.3476
86.3259
86.304
86.282
86.2597
86.2375
86.215
86.1927
86.904
86.8754
86.8599
86.8516
86.8575
86.8605
86.8726
86.8791
86.8932
86.9026
86.9189
86.9314
86.9495
86.9642
86.9827
86.9981
87.0158
87.0306
87.0461
87.059
87.0715
87.0814
87.0901
87.0965
87.1012
87.1038
87.1046
87.1035
87.1008
87.0966
87.091
87.0843
87.0764
87.0679
87.0586
87.049
87.0388
87.0286
87.0181
87.0077
86.9973
86.987
86.9769
86.967
86.9572
86.9476
86.9379
86.9282
86.9184
86.9083
86.8979
86.8871
86.876
86.8646
86.8533
86.8418
86.8298
86.8167
86.8017
86.7846
86.7654
86.744
86.7214
86.7009
86.683
86.6646
86.646
86.627
86.6076
86.5878
86.5677
86.5473
86.5267
86.5061
86.4854
86.4647
86.444
86.4233
86.4027
86.382
86.3613
86.3405
86.3196
86.2985
86.2773
86.2559
86.2343
86.2128
86.904
86.8753
86.8599
86.8515
86.8575
86.8603
86.8726
86.879
86.8932
86.9025
86.919
86.9313
86.9496
86.964
86.9828
86.998
87.0159
87.0305
87.0462
87.059
87.0716
87.0814
87.0902
87.0966
87.1013
87.104
87.1047
87.1037
87.101
87.0969
87.0913
87.0846
87.0767
87.0682
87.059
87.0493
87.0392
87.029
87.0186
87.0083
86.9981
86.9881
86.9782
86.9686
86.9591
86.9498
86.9406
86.9313
86.9219
86.9121
86.9019
86.8911
86.8802
86.8691
86.8584
86.8481
86.8377
86.8264
86.8128
86.7966
86.7777
86.756
86.7333
86.7132
86.6956
86.6774
86.6588
86.6398
86.6201
86.5998
86.5791
86.558
86.5368
86.5155
86.4944
86.4736
86.453
86.4328
86.4129
86.3932
86.3736
86.354
86.3344
86.3147
86.2947
86.2746
86.2542
86.2337
86.904
86.8752
86.8599
86.8514
86.8576
86.8602
86.8727
86.8788
86.8933
86.9023
86.9191
86.9312
86.9497
86.9639
86.9829
86.9979
87.016
87.0305
87.0464
87.059
87.0717
87.0815
87.0904
87.0968
87.1015
87.1042
87.105
87.104
87.1013
87.0972
87.0916
87.0849
87.077
87.0686
87.0593
87.0497
87.0397
87.0295
87.0192
87.009
86.9989
86.9891
86.9794
86.9701
86.961
86.9521
86.9433
86.9345
86.9255
86.9161
86.9061
86.8954
86.8844
86.8732
86.8632
86.8545
86.8463
86.8378
86.8261
86.8112
86.7921
86.7691
86.7457
86.7262
86.7094
86.692
86.674
86.6552
86.6353
86.6143
86.5924
86.5698
86.5468
86.5238
86.5011
86.479
86.4578
86.4376
86.4183
86.3997
86.3817
86.3639
86.3463
86.3286
86.3106
86.2925
86.2739
86.2552
86.9041
86.875
86.8599
86.8513
86.8576
86.86
86.8727
86.8786
86.8934
86.9022
86.9192
86.931
86.9498
86.9638
86.9831
86.9978
87.0161
87.0304
87.0465
87.059
87.0718
87.0817
87.0906
87.097
87.1018
87.1045
87.1053
87.1044
87.1016
87.0976
87.0919
87.0853
87.0774
87.069
87.0597
87.0502
87.0401
87.03
87.0197
87.0097
86.9996
86.99
86.9806
86.9716
86.9629
86.9545
86.9461
86.9379
86.9294
86.9205
86.9107
86.8999
86.8884
86.8767
86.8672
86.8605
86.8556
86.8516
86.8425
86.8293
86.8093
86.7822
86.7567
86.7387
86.724
86.7087
86.6927
86.6753
86.6558
86.6341
86.6103
86.5847
86.5578
86.5304
86.5033
86.4775
86.4537
86.4323
86.4133
86.3963
86.3808
86.3663
86.3522
86.3382
86.3239
86.3091
86.2938
86.2779
86.9042
86.8748
86.8598
86.8511
86.8576
86.8598
86.8728
86.8784
86.8935
86.902
86.9193
86.9308
86.9499
86.9636
86.9832
86.9977
87.0163
87.0304
87.0466
87.0591
87.072
87.0818
87.0907
87.0972
87.102
87.1048
87.1055
87.1048
87.1019
87.0981
87.0923
87.0858
87.0777
87.0694
87.06
87.0506
87.0404
87.0305
87.0201
87.0102
87.0003
86.9908
86.9816
86.973
86.9645
86.9566
86.9487
86.9412
86.9332
86.9249
86.9154
86.9044
86.8918
86.8785
86.8688
86.8646
86.8645
86.8671
86.8618
86.8512
86.8284
86.792
86.7617
86.7466
86.7364
86.726
86.7148
86.7013
86.6842
86.6629
86.637
86.6066
86.5721
86.5351
86.4972
86.4609
86.4291
86.4033
86.3835
86.3688
86.358
86.3497
86.3426
86.3357
86.3283
86.32
86.3104
86.2997
86.9043
86.8746
86.8598
86.8509
86.8576
86.8597
86.8728
86.8783
86.8936
86.9018
86.9193
86.9307
86.95
86.9635
86.9832
86.9977
87.0163
87.0304
87.0467
87.0592
87.0721
87.082
87.0909
87.0975
87.1022
87.1052
87.1058
87.1051
87.1021
87.0985
87.0925
87.0862
87.078
87.0698
87.0603
87.051
87.0407
87.0309
87.0205
87.0107
87.0007
86.9915
86.9824
86.974
86.9658
86.9583
86.9508
86.9439
86.9364
86.929
86.9197
86.9088
86.8944
86.8783
86.8675
86.8655
86.8715
86.8825
86.8822
86.8761
86.8487
86.7953
86.7564
86.7455
86.7421
86.7398
86.7367
86.7307
86.7197
86.702
86.6761
86.6407
86.5948
86.5412
86.481
86.4205
86.369
86.3312
86.3076
86.296
86.2934
86.2968
86.3032
86.3101
86.3157
86.3193
86.3202
86.3185
86.9044
86.8744
86.8597
86.8508
86.8576
86.8596
86.8729
86.8782
86.8936
86.9017
86.9194
86.9305
86.9501
86.9634
86.9833
86.9976
87.0164
87.0304
87.0468
87.0592
87.0722
87.0821
87.091
87.0977
87.1023
87.1055
87.1059
87.1055
87.1023
87.0989
87.0928
87.0866
87.0782
87.0702
87.0605
87.0514
87.0409
87.0312
87.0207
87.0111
87.0011
86.992
86.9829
86.9748
86.9668
86.9596
86.9525
86.9462
86.9392
86.9327
86.9238
86.9133
86.8965
86.8765
86.8633
86.863
86.8766
86.897
86.9035
86.9046
86.8708
86.7905
86.7388
86.7331
86.7391
86.7477
86.7557
86.7603
86.759
86.749
86.7266
86.6875
86.6274
86.5504
86.4462
86.332
86.2383
86.1762
86.1453
86.1403
86.1547
86.182
86.2149
86.2478
86.2772
86.3018
86.3206
86.3342
86.9045
86.8742
86.8597
86.8507
86.8576
86.8595
86.8729
86.8781
86.8936
86.9016
86.9194
86.9305
86.9501
86.9633
86.9834
86.9975
87.0165
87.0304
87.0468
87.0593
87.0722
87.0822
87.091
87.0979
87.1024
87.1057
87.106
87.1057
87.1025
87.0992
87.0929
87.0869
87.0783
87.0705
87.0606
87.0517
87.041
87.0315
87.0208
87.0114
87.0013
86.9924
86.9833
86.9754
86.9675
86.9607
86.9538
86.9481
86.9415
86.9361
86.9276
86.918
86.8984
86.8734
86.8563
86.8574
86.8802
86.91
86.9245
86.9361
86.8948
86.7765
86.7076
86.7078
86.7257
86.7477
86.7685
86.785
86.7958
86.7978
86.7857
86.752
86.688
86.5911
86.4104
86.1964
86.029
85.9224
85.874
85.8756
85.9165
85.985
86.0641
86.1408
86.2083
86.2647
86.3101
86.3456
86.9046
86.8741
86.8596
86.8507
86.8576
86.8594
86.8729
86.878
86.8937
86.9015
86.9195
86.9304
86.9501
86.9633
86.9834
86.9975
87.0165
87.0304
87.0469
87.0593
87.0723
87.0823
87.0911
87.098
87.1024
87.1059
87.1061
87.1059
87.1026
87.0995
87.093
87.0872
87.0784
87.0707
87.0607
87.0519
87.0411
87.0317
87.0209
87.0116
87.0014
86.9927
86.9836
86.9759
86.9681
86.9615
86.9549
86.9496
86.9435
86.939
86.9312
86.9231
86.9004
86.8697
86.847
86.8492
86.8823
86.9212
86.9439
86.9684
86.9187
86.7511
86.6608
86.6681
86.7016
86.7393
86.7727
86.7999
86.8224
86.8369
86.8354
86.8097
86.7489
86.6314
86.3778
86.0725
85.8417
85.6851
85.599
85.5836
85.6331
85.7429
85.8787
86.01
86.1237
86.2173
86.2923
86.3518
86.9046
86.8739
86.8596
86.8506
86.8576
86.8593
86.8729
86.8779
86.8937
86.9015
86.9195
86.9303
86.9502
86.9632
86.9834
86.9975
87.0165
87.0304
87.0469
87.0594
87.0723
87.0824
87.0911
87.0982
87.1025
87.1061