/*--------------------------------*- C++ -*----------------------------------*\
| =========                 |                                                 |
| \\      /  F ield         | OpenFOAM: The Open Source CFD Toolbox           |
|  \\    /   O peration     | Version:  2306                                  |
|   \\  /    A nd           | Website:  www.openfoam.com                      |
|    \\/     M anipulation  |                                                 |
\*---------------------------------------------------------------------------*/
FoamFile
{
    version     2.0;
    format      ascii;
    arch        "LSB;label=32;scalar=64";
    class       volScalarField;
    location    "900";
    object      nut;
}
// * * * * * * * * * * * * * * * * * * * * * * * * * * * * * * * * * * * * * //

dimensions      [0 2 -1 0 0 0 0];

internalField   uniform 0;

boundaryField
{
    inlet
    {
        type            calculated;
        value           uniform 0;
    }
    outlet
    {
        type            calculated;
        value           uniform 0;
    }
    lowerWallStartup
    {
        type            symmetryPlane;
    }
    upperWallStartup
    {
        type            symmetryPlane;
    }
    upperWall
    {
        type            nutUBlendedWallFunction;
        value           nonuniform List<scalar> 
218
(
1.20707e-08
4.23087e-09
3.22223e-09
2.69657e-09
2.44413e-09
2.20067e-09
2.09044e-09
1.94823e-09
1.88675e-09
1.7897e-09
1.74658e-09
1.67083e-09
1.63604e-09
1.57511e-09
1.54504e-09
1.49665e-09
1.4695e-09
1.43333e-09
1.40904e-09
1.38581e-09
1.36526e-09
1.35505e-09
1.33962e-09
1.34097e-09
1.32397e-09
1.34392e-09
1.33105e-09
0.00888714
1.36296e-09
1.38882e-09
1.40966e-09
1.425e-09
1.44578e-09
1.43078e-09
1.49603e-09
1.48601e-09
1.54593e-09
1.50393e-09
1.57984e-09
1.49926e-09
1.60501e-09
1.44864e-09
1.6013e-09
1.38989e-09
1.5419e-09
1.27783e-09
1.39076e-09
1.10088e-09
1.11609e-09
8.28741e-10
7.77012e-10
1.62107e-09
3.44875e-09
2.76754e-09
1.52757e-09
6.30336e-09
7.92454e-09
6.26238e-09
8.59401e-10
3.03573e-09
2.91714e-08
3.5985e-08
4.48942e-09
1.27418e-08
9.50636e-09
3.29379e-09
1.15725e-09
1.93665e-09
1.44603e-10
7.69788e-10
4.21748e-09
7.36828e-09
2.91863e-09
1.22053e-09
1.95913e-08
5.33641e-08
5.66612e-08
6.89276e-08
4.9272e-08
0
2.53451e-08
3.3923e-08
3.42309e-08
3.01238e-08
2.42405e-08
1.84778e-08
1.38417e-08
1.10392e-08
7.52202e-09
5.62592e-09
0
0
0
9.35214e-09
1.26516e-08
1.3639e-08
9.89372e-09
9.28265e-09
1.04401e-08
1.58816e-08
1.35311e-08
1.10591e-08
7.5922e-09
1.40622e-08
1.96181e-08
1.57155e-08
1.1773e-09
0
0
4.078e-09
1.7723e-09
4.19301e-09
0
8.94927e-10
0
0
0
4.26371e-10
9.47027e-10
2.03862e-09
0
0
1.89113e-08
3.23409e-08
2.73652e-08
2.23954e-08
2.55959e-08
2.91035e-08
2.00755e-08
0
7.40704e-09
5.11401e-09
3.03705e-09
0
3.05284e-09
0
8.50151e-09
1.18799e-08
2.06132e-08
3.4971e-08
6.01482e-08
9.72575e-08
1.40417e-07
1.43611e-07
8.31429e-08
6.06711e-08
1.68328e-07
1.01525e-07
5.36951e-08
5.65824e-08
3.2536e-08
1.29875e-09
2.24394e-09
3.95039e-09
6.15339e-09
0
0
5.18128e-09
5.05074e-09
3.15053e-09
1.7901e-08
4.98466e-08
6.59171e-08
1.06937e-08
1.81107e-08
0
3.13823e-08
4.72203e-08
5.17477e-08
3.78372e-08
0
1.71953e-08
1.48621e-08
0
5.60238e-09
3.82264e-09
5.48294e-09
2.65719e-08
1.84176e-08
2.38997e-09
6.50542e-08
1.20109e-07
1.44051e-07
1.61755e-07
1.62682e-07
1.50451e-07
1.26496e-07
0
2.68949e-07
4.49791e-07
3.1903e-07
1.26741e-07
2.23527e-08
4.48898e-08
8.69526e-08
1.18971e-07
1.39027e-07
5.08808e-08
1.51452e-08
5.14435e-08
7.84354e-08
8.86268e-08
7.20868e-08
5.11483e-08
1.76334e-08
6.6251e-09
6.72626e-09
5.45404e-09
3.93907e-08
1.13928e-07
1.07044e-07
6.74721e-08
5.14736e-08
4.46722e-08
3.21513e-08
1.14459e-08
0
0
)
;
    }
    lowerWall
    {
        type            nutUBlendedWallFunction;
        value           nonuniform List<scalar> 
266
(
1.30636e-08
4.56299e-09
3.43935e-09
2.89781e-09
2.59122e-09
2.35647e-09
2.20847e-09
2.07991e-09
1.98908e-09
1.9056e-09
1.83746e-09
1.77388e-09
1.71778e-09
1.66702e-09
1.61984e-09
1.57879e-09
1.53948e-09
1.50725e-09
1.47663e-09
1.45386e-09
1.43332e-09
1.42046e-09
1.41113e-09
1.40798e-09
1.40084e-09
1.41393e-09
1.41415e-09
1.3419e-09
1.45852e-09
1.4852e-09
1.51195e-09
1.53528e-09
1.55292e-09
1.58406e-09
1.61223e-09
1.63994e-09
1.66748e-09
1.69684e-09
1.72846e-09
1.76198e-09
1.79741e-09
1.83605e-09
1.87885e-09
1.92722e-09
1.98104e-09
2.04107e-09
2.1084e-09
2.18138e-09
2.25399e-09
2.3424e-09
2.39921e-09
2.40159e-09
2.5453e-09
2.68352e-09
2.82723e-09
3.02784e-09
3.24175e-09
3.54726e-09
3.84344e-09
4.22086e-09
4.56138e-09
4.94353e-09
5.22024e-09
5.67553e-09
5.96426e-09
6.3344e-09
6.64174e-09
7.0233e-09
7.42421e-09
7.91008e-09
8.51657e-09
9.171e-09
9.96549e-09
1.07208e-08
1.15569e-08
1.23323e-08
1.31812e-08
1.40214e-08
1.50327e-08
1.60878e-08
1.75111e-08
1.8943e-08
2.1144e-08
2.29072e-08
2.71594e-08
2.80766e-08
4.27584e-08
0
1.8758e-05
0
0
0
0
0
0
0
0
0
0
0
0
2.66009e-06
6.68689e-06
1.09122e-05
1.51197e-05
1.88641e-05
2.11123e-05
2.03691e-05
1.5092e-05
6.06297e-06
0
0
3.78488e-06
4.81857e-06
0
0
0
0
2.46178e-07
2.0969e-06
4.23764e-06
2.88803e-06
1.74022e-06
7.1755e-07
5.25759e-07
1.82289e-07
3.87902e-06
0
1.57452e-05
0
0
0
0
0
0
0
0
3.62208e-09
3.96441e-09
1.82974e-09
0
7.43343e-10
1.44323e-09
1.32997e-09
9.47178e-10
2.04564e-09
2.12588e-09
0
3.09991e-09
5.2647e-09
6.51626e-09
6.97402e-09
6.69678e-09
5.89272e-09
4.83358e-09
3.74703e-09
2.77398e-09
1.97892e-09
1.39195e-09
7.08075e-10
0
0.000669416
1.01454e-09
1.34797e-09
1.52374e-09
1.80566e-09
2.28515e-09
2.98308e-09
3.70399e-09
4.35048e-09
4.64004e-09
4.5366e-09
4.20681e-09
3.85224e-09
3.43877e-09
3.92319e-09
5.39448e-09
7.19136e-09
8.63899e-09
9.64085e-09
7.52391e-09
1.52132e-09
0
2.8259e-09
3.22768e-09
2.77459e-09
1.94963e-09
0
0.487595
9.7344e-10
1.63264e-09
2.19885e-09
2.68551e-09
3.12119e-09
3.48334e-09
3.80599e-09
4.07492e-09
4.3274e-09
4.5414e-09
4.75236e-09
4.9337e-09
5.12045e-09
5.28366e-09
5.45806e-09
5.6128e-09
5.7824e-09
5.93404e-09
6.10187e-09
6.24819e-09
6.41021e-09
6.53845e-09
6.68439e-09
6.78339e-09
6.90728e-09
6.97852e-09
7.08133e-09
7.13449e-09
7.21375e-09
7.24638e-09
7.28816e-09
7.28472e-09
7.29347e-09
7.29185e-09
7.32067e-09
7.38305e-09
7.45166e-09
7.53817e-09
7.57106e-09
7.58691e-09
7.52127e-09
7.43765e-09
7.31008e-09
7.16894e-09
7.05316e-09
7.33541e-09
8.03234e-09
9.07135e-09
1.01477e-08
1.1214e-08
1.21858e-08
1.295e-08
1.35025e-08
1.37257e-08
1.36549e-08
1.30739e-08
1.20429e-08
1.0211e-08
7.69998e-09
3.84806e-09
0
1.76295e-09
5.18261e-09
7.50107e-09
6.52798e-09
9.73497e-09
0
3.10748e-07
9.99941e-07
8.88571e-07
3.20574e-07
9.20987e-08
7.12002e-08
3.86684e-07
1.94037e-06
2.72911e-06
4.20232e-06
)
;
    }
    front
    {
        type            empty;
    }
    back
    {
        type            empty;
    }
}


// ************************************************************************* //
