/*--------------------------------*- C++ -*----------------------------------*\
| =========                 |                                                 |
| \\      /  F ield         | OpenFOAM: The Open Source CFD Toolbox           |
|  \\    /   O peration     | Version:  2306                                  |
|   \\  /    A nd           | Website:  www.openfoam.com                      |
|    \\/     M anipulation  |                                                 |
\*---------------------------------------------------------------------------*/
FoamFile
{
    version     2.0;
    format      ascii;
    arch        "LSB;label=32;scalar=64";
    class       volScalarField;
    location    "900";
    object      p;
}
// * * * * * * * * * * * * * * * * * * * * * * * * * * * * * * * * * * * * * //

dimensions      [0 2 -2 0 0 0 0];

internalField   nonuniform List<scalar> 
20540
(
84919.8
84909
84919.8
84909
84919.8
84909
84919.8
84909
84919.8
84909
84919.8
84909
84919.8
84909
84919.8
84909
84919.8
84908.9
84919.8
84908.9
84919.8
84908.9
84919.8
84908.9
84919.8
84908.9
84919.8
84908.9
84919.8
84908.9
84919.8
84908.9
84919.8
84908.8
84919.8
84908.8
84919.8
84908.8
84919.8
84908.7
84919.7
84908.7
84919.7
84908.6
84919.7
84908.5
84919.7
84908.5
84919.7
84908.4
84919.7
84908.2
84919.7
84908.1
84919.7
84908
84919.6
84907.8
84919.6
84907.6
84919.6
84907.5
84919.6
84907.4
84919.6
84907.4
84919.7
84907.4
84919.7
84907.4
84919.7
84907.5
84919.8
84907.6
84919.8
84907.7
84919.8
84907.8
84919.8
84907.9
84919.9
84907.9
84919.9
84908
84919.9
84908.1
84919.9
84908.1
84919.9
84908.2
84919.9
84908.2
84919.9
84908.3
84919.9
84908.3
84919.9
84908.3
84919.9
84908.3
84919.9
84908.4
84919.9
84908.4
84919.9
84908.4
84919.9
84908.4
84919.9
84908.4
84919.9
84908.4
84919.9
84908.4
84919.9
84908.4
84919.9
84908.4
84919.9
84908.4
84919.9
84908.4
84919.9
84908.5
84919.9
84908.5
84919.9
84908.5
84919.9
84908.5
84890.3
84860.5
84845.9
84838.4
84843.8
84847.3
84858.6
84865.6
84878.7
84888.5
84903.7
84916.6
84933.6
84948.6
84966.1
84981.8
84998.5
85013.4
85028.2
85041.2
85053.1
85063
85071.3
85077.7
85082.1
85084.8
85085.3
85084.1
85081.6
85077.6
85072
85065.2
85057.4
85048.9
85039.7
85029.9
85019.6
85009.1
84998.3
84987.3
84976.3
84965.1
84954
84942.8
84931.6
84920.4
84909.2
84898
84886.9
84875.8
84864.4
84853
84841.9
84830.5
84817.9
84804.6
84790
84774.6
84757.5
84739.9
84721
84701.8
84682
84667.7
84655.6
84644.2
84631.5
84619.2
84605.3
84590.4
84573.4
84554.2
84532.6
84509.3
84484.6
84459.4
84433.8
84407.9
84381.4
84353
84322.7
84287.8
84249.8
84203.6
84154.6
84089.2
84022.1
83897.7
84890.3
84860.5
84845.9
84838.4
84843.8
84847.3
84858.6
84865.6
84878.7
84888.5
84903.7
84916.6
84933.6
84948.6
84966.1
84981.8
84998.5
85013.4
85028.2
85041.2
85053.1
85063
85071.3
85077.7
85082.1
85084.8
85085.3
85084.1
85081.6
85077.6
85072
85065.2
85057.4
85048.9
85039.7
85029.9
85019.6
85009.1
84998.3
84987.3
84976.3
84965.1
84954
84942.8
84931.6
84920.4
84909.2
84898
84886.9
84875.8
84864.4
84853
84841.9
84830.5
84817.9
84804.6
84790
84774.6
84757.5
84739.9
84721
84701.8
84682
84667.7
84655.6
84644.2
84631.5
84619.2
84605.3
84590.4
84573.4
84554.2
84532.6
84509.3
84484.6
84459.4
84433.8
84407.9
84381.4
84352.9
84322.7
84287.8
84249.8
84203.6
84154.6
84089.2
84022.2
83898.2
84890.3
84860.5
84845.9
84838.4
84843.8
84847.3
84858.6
84865.6
84878.7
84888.5
84903.7
84916.6
84933.6
84948.6
84966.1
84981.8
84998.5
85013.4
85028.2
85041.2
85053.1
85063
85071.3
85077.7
85082.1
85084.8
85085.3
85084.1
85081.6
85077.6
85072
85065.2
85057.4
85048.9
85039.7
85029.9
85019.6
85009.1
84998.3
84987.3
84976.3
84965.1
84954
84942.8
84931.6
84920.4
84909.2
84898
84886.9
84875.8
84864.4
84853
84841.9
84830.5
84817.9
84804.6
84790
84774.6
84757.5
84739.9
84721
84701.8
84682
84667.7
84655.6
84644.2
84631.5
84619.2
84605.3
84590.4
84573.4
84554.2
84532.6
84509.3
84484.6
84459.4
84433.8
84407.9
84381.4
84352.9
84322.7
84287.7
84249.8
84203.6
84154.6
84089.1
84022.5
83899.7
84890.3
84860.5
84845.9
84838.4
84843.8
84847.3
84858.6
84865.6
84878.7
84888.5
84903.7
84916.6
84933.6
84948.6
84966.1
84981.8
84998.5
85013.4
85028.2
85041.2
85053.1
85063
85071.3
85077.7
85082.1
85084.8
85085.3
85084.1
85081.6
85077.6
85072
85065.2
85057.4
85048.9
85039.7
85029.9
85019.6
85009.1
84998.3
84987.3
84976.3
84965.1
84954
84942.8
84931.6
84920.4
84909.2
84898
84886.9
84875.8
84864.4
84853
84841.9
84830.5
84817.9
84804.6
84790
84774.6
84757.5
84739.9
84721
84701.8
84682
84667.7
84655.6
84644.2
84631.5
84619.2
84605.3
84590.4
84573.4
84554.2
84532.6
84509.3
84484.6
84459.4
84433.8
84407.9
84381.4
84352.9
84322.6
84287.7
84249.8
84203.6
84154.6
84089.1
84023.1
83902.2
84890.3
84860.5
84845.9
84838.4
84843.8
84847.3
84858.6
84865.6
84878.7
84888.5
84903.7
84916.6
84933.6
84948.6
84966.1
84981.8
84998.5
85013.4
85028.2
85041.2
85053.1
85063
85071.3
85077.7
85082.1
85084.8
85085.3
85084.1
85081.6
85077.6
85072
85065.2
85057.4
85048.9
85039.7
85029.9
85019.6
85009.1
84998.3
84987.3
84976.3
84965.1
84954
84942.8
84931.6
84920.4
84909.2
84898
84886.9
84875.8
84864.4
84853
84841.9
84830.5
84817.9
84804.6
84790
84774.6
84757.5
84739.9
84721
84701.8
84682
84667.7
84655.6
84644.2
84631.5
84619.2
84605.3
84590.4
84573.4
84554.2
84532.6
84509.3
84484.6
84459.4
84433.8
84407.9
84381.3
84352.9
84322.6
84287.7
84249.7
84203.6
84154.6
84089.1
84024
83905.9
84890.3
84860.5
84845.9
84838.4
84843.8
84847.3
84858.6
84865.6
84878.7
84888.5
84903.7
84916.6
84933.6
84948.6
84966.1
84981.8
84998.5
85013.4
85028.2
85041.2
85053.1
85063
85071.3
85077.7
85082.1
85084.8
85085.3
85084.1
85081.6
85077.6
85072
85065.2
85057.4
85048.9
85039.7
85029.9
85019.6
85009.1
84998.3
84987.3
84976.3
84965.1
84954
84942.8
84931.6
84920.4
84909.2
84898
84886.9
84875.8
84864.4
84853
84841.9
84830.5
84817.9
84804.6
84790
84774.6
84757.5
84739.9
84721
84701.8
84682
84667.7
84655.6
84644.2
84631.5
84619.2
84605.3
84590.4
84573.4
84554.2
84532.6
84509.3
84484.5
84459.4
84433.8
84407.9
84381.3
84352.9
84322.6
84287.7
84249.7
84203.5
84154.6
84089.1
84025.1
83910.7
84890.3
84860.5
84845.9
84838.4
84843.8
84847.3
84858.6
84865.6
84878.7
84888.5
84903.7
84916.6
84933.6
84948.6
84966.1
84981.8
84998.5
85013.4
85028.2
85041.2
85053.1
85063
85071.3
85077.7
85082.1
85084.8
85085.3
85084.1
85081.6
85077.6
85072
85065.2
85057.4
85048.9
85039.7
85029.9
85019.6
85009.1
84998.3
84987.3
84976.3
84965.1
84954
84942.8
84931.6
84920.4
84909.2
84898
84886.9
84875.8
84864.4
84853
84841.9
84830.5
84817.9
84804.6
84790
84774.6
84757.5
84739.9
84721
84701.8
84682
84667.7
84655.5
84644.2
84631.5
84619.1
84605.2
84590.4
84573.4
84554.1
84532.6
84509.2
84484.5
84459.3
84433.7
84407.8
84381.3
84352.8
84322.5
84287.6
84249.6
84203.5
84154.7
84089.3
84026.3
83916.9
84890.3
84860.5
84845.9
84838.4
84843.8
84847.3
84858.6
84865.6
84878.7
84888.5
84903.7
84916.6
84933.6
84948.6
84966.1
84981.8
84998.5
85013.4
85028.2
85041.2
85053.1
85063
85071.3
85077.7
85082.1
85084.8
85085.3
85084.1
85081.6
85077.6
85072
85065.2
85057.4
85048.9
85039.7
85029.9
85019.6
85009.1
84998.3
84987.3
84976.3
84965.1
84954
84942.8
84931.6
84920.4
84909.2
84898
84886.9
84875.8
84864.4
84853
84841.9
84830.5
84817.9
84804.6
84790
84774.6
84757.5
84739.9
84721
84701.8
84682
84667.7
84655.5
84644.2
84631.5
84619.1
84605.2
84590.3
84573.3
84554.1
84532.5
84509.2
84484.5
84459.3
84433.7
84407.8
84381.2
84352.8
84322.4
84287.5
84249.5
84203.4
84154.7
84089.6
84027.8
83924.6
84890.3
84860.5
84845.9
84838.4
84843.8
84847.3
84858.6
84865.6
84878.7
84888.5
84903.7
84916.6
84933.6
84948.6
84966.1
84981.8
84998.5
85013.4
85028.2
85041.2
85053.1
85063
85071.3
85077.7
85082.1
85084.8
85085.3
85084.1
85081.6
85077.6
85072
85065.2
85057.4
85048.9
85039.7
85029.9
85019.6
85009.1
84998.3
84987.3
84976.3
84965.1
84954
84942.8
84931.6
84920.4
84909.2
84898
84886.9
84875.8
84864.4
84853
84841.9
84830.5
84817.9
84804.6
84790
84774.6
84757.5
84739.9
84721
84701.8
84682
84667.7
84655.5
84644.2
84631.5
84619.1
84605.2
84590.3
84573.3
84554
84532.4
84509.1
84484.4
84459.2
84433.6
84407.7
84381.1
84352.6
84322.3
84287.4
84249.3
84203.3
84154.8
84090.3
84029.6
83933.7
84890.3
84860.5
84845.9
84838.4
84843.8
84847.3
84858.6
84865.6
84878.7
84888.5
84903.7
84916.6
84933.6
84948.6
84966.1
84981.8
84998.5
85013.4
85028.2
85041.2
85053.1
85063
85071.3
85077.7
85082.1
85084.8
85085.3
85084.1
85081.6
85077.6
85072
85065.2
85057.4
85048.9
85039.7
85029.9
85019.6
85009.1
84998.3
84987.3
84976.3
84965.1
84954
84942.8
84931.6
84920.4
84909.2
84898
84886.9
84875.8
84864.4
84853
84841.9
84830.6
84817.9
84804.6
84790
84774.6
84757.5
84739.9
84721
84701.8
84682
84667.7
84655.5
84644.1
84631.5
84619
84605.1
84590.2
84573.2
84553.9
84532.3
84508.9
84484.3
84459.1
84433.5
84407.6
84381
84352.5
84322
84287.2
84249.1
84203.3
84154.8
84091.3
84031.7
83944.2
84890.3
84860.5
84845.9
84838.4
84843.8
84847.3
84858.6
84865.6
84878.7
84888.5
84903.7
84916.6
84933.6
84948.6
84966.1
84981.8
84998.5
85013.4
85028.2
85041.2
85053.1
85063
85071.3
85077.7
85082.1
85084.8
85085.3
85084.1
85081.6
85077.6
85072
85065.2
85057.4
85048.9
85039.7
85029.9
85019.6
85009.1
84998.3
84987.3
84976.3
84965.1
84954
84942.8
84931.6
84920.4
84909.2
84898
84886.9
84875.8
84864.4
84853
84841.9
84830.6
84817.9
84804.6
84790
84774.5
84757.5
84739.9
84721
84701.8
84682
84667.6
84655.5
84644.1
84631.4
84619
84605
84590.1
84573
84553.7
84532.1
84508.8
84484.1
84458.9
84433.3
84407.4
84380.7
84352.2
84321.7
84286.8
84248.7
84203.2
84154.9
84092.9
84034.3
83955.9
84890.2
84860.5
84845.9
84838.4
84843.8
84847.3
84858.6
84865.6
84878.7
84888.5
84903.7
84916.6
84933.6
84948.6
84966.1
84981.8
84998.5
85013.4
85028.2
85041.2
85053.1
85063
85071.3
85077.7
85082.1
85084.8
85085.3
85084.1
85081.6
85077.6
85072
85065.2
85057.4
85048.9
85039.7
85029.9
85019.6
85009.1
84998.3
84987.3
84976.3
84965.1
84954
84942.8
84931.6
84920.4
84909.2
84898.1
84886.9
84875.8
84864.4
84853
84841.9
84830.6
84817.9
84804.6
84790
84774.5
84757.5
84739.9
84721
84701.8
84682
84667.6
84655.5
84644
84631.4
84618.8
84604.9
84589.9
84572.8
84553.4
84531.8
84508.5
84483.8
84458.6
84433.1
84407.1
84380.4
84351.8
84321.2
84286.4
84248.3
84203.1
84155
84095
84037.7
83968.7
84890.2
84860.5
84845.9
84838.4
84843.8
84847.3
84858.6
84865.6
84878.7
84888.5
84903.7
84916.6
84933.6
84948.6
84966.1
84981.8
84998.5
85013.4
85028.2
85041.2
85053.1
85063
85071.3
85077.7
85082.1
85084.8
85085.3
85084.1
85081.6
85077.6
85072
85065.2
85057.4
85048.9
85039.7
85029.9
85019.6
85009.1
84998.3
84987.3
84976.3
84965.1
84954
84942.8
84931.6
84920.4
84909.2
84898.1
84886.9
84875.8
84864.5
84853
84841.9
84830.6
84817.9
84804.6
84790
84774.5
84757.5
84739.9
84721
84701.8
84682
84667.6
84655.4
84643.9
84631.3
84618.7
84604.7
84589.6
84572.4
84553.1
84531.4
84508.1
84483.4
84458.3
84432.7
84406.7
84379.9
84351.3
84320.6
84285.8
84247.7
84203.1
84155.3
84097.9
84042.1
83982
84890.2
84860.5
84845.9
84838.4
84843.8
84847.3
84858.6
84865.6
84878.7
84888.5
84903.7
84916.6
84933.6
84948.6
84966.1
84981.8
84998.5
85013.4
85028.2
85041.2
85053.1
85063
85071.3
85077.7
85082.1
85084.8
85085.3
85084.1
85081.6
85077.6
85072
85065.2
85057.4
85048.9
85039.7
85029.9
85019.6
85009.1
84998.3
84987.3
84976.3
84965.2
84954
84942.8
84931.6
84920.4
84909.2
84898.1
84886.9
84875.8
84864.5
84853
84841.9
84830.6
84818
84804.6
84790
84774.5
84757.5
84739.9
84721
84701.7
84682
84667.5
84655.4
84643.8
84631.1
84618.4
84604.4
84589.2
84571.9
84552.5
84530.9
84507.5
84482.9
84457.7
84432.1
84406.1
84379.2
84350.6
84319.7
84285.1
84246.9
84203.1
84155.9
84101.5
84047.7
83995.5
84890.2
84860.5
84845.9
84838.4
84843.8
84847.3
84858.6
84865.6
84878.7
84888.5
84903.7
84916.6
84933.6
84948.6
84966.1
84981.8
84998.5
85013.4
85028.2
85041.2
85053.1
85063
85071.3
85077.7
85082.1
85084.8
85085.3
85084.1
85081.6
85077.6
85072
85065.2
85057.4
85048.9
85039.7
85029.9
85019.6
85009.1
84998.3
84987.3
84976.3
84965.2
84954
84942.8
84931.6
84920.4
84909.3
84898.1
84886.9
84875.8
84864.5
84853.1
84842
84830.6
84818
84804.7
84790
84774.6
84757.5
84739.9
84721
84701.7
84682
84667.4
84655.3
84643.5
84630.8
84618.1
84603.9
84588.6
84571.3
84551.8
84530.1
84506.7
84482.1
84457
84431.4
84405.3
84378.3
84349.6
84318.6
84284.1
84246
84203.3
84156.8
84105.8
84054.6
84008.7
84890.2
84860.6
84845.9
84838.4
84843.8
84847.3
84858.6
84865.6
84878.7
84888.5
84903.7
84916.6
84933.6
84948.6
84966.1
84981.8
84998.5
85013.4
85028.2
85041.2
85053.1
85063
85071.3
85077.7
85082.1
85084.8
85085.3
85084.1
85081.6
85077.6
85072
85065.2
85057.4
85048.9
85039.7
85029.9
85019.6
85009.1
84998.3
84987.3
84976.3
84965.2
84954
84942.9
84931.7
84920.5
84909.3
84898.1
84887
84875.9
84864.6
84853.1
84842
84830.6
84818
84804.7
84790.1
84774.6
84757.6
84739.9
84721
84701.7
84681.9
84667.3
84655.1
84643.3
84630.5
84617.6
84603.3
84587.8
84570.3
84550.7
84529
84505.7
84481.1
84456
84430.4
84404.3
84377.1
84348.3
84317.2
84282.9
84245.1
84203.5
84158.3
84110.6
84062.5
84021.2
84890.2
84860.6
84845.9
84838.4
84843.8
84847.3
84858.6
84865.6
84878.7
84888.5
84903.7
84916.7
84933.6
84948.6
84966.1
84981.8
84998.5
85013.5
85028.2
85041.2
85053.1
85063
85071.3
85077.7
85082.1
85084.8
85085.3
85084.1
85081.6
85077.6
85072
85065.2
85057.4
85048.9
85039.7
85029.9
85019.6
85009.1
84998.3
84987.4
84976.3
84965.2
84954
84942.9
84931.7
84920.5
84909.3
84898.2
84887
84875.9
84864.6
84853.2
84842.1
84830.7
84818.1
84804.7
84790.1
84774.6
84757.6
84739.9
84721
84701.7
84681.9
84667.2
84654.9
84642.9
84630
84616.9
84602.5
84586.8
84569.1
84549.4
84527.6
84504.3
84479.8
84454.7
84429.1
84402.9
84375.6
84346.7
84315.5
84281.5
84244.2
84203.8
84160.4
84115.8
84071.1
84032.9
84890.2
84860.6
84845.9
84838.5
84843.8
84847.3
84858.6
84865.6
84878.7
84888.5
84903.7
84916.7
84933.6
84948.6
84966.1
84981.8
84998.5
85013.5
85028.2
85041.2
85053.1
85063
85071.3
85077.7
85082.1
85084.8
85085.3
85084.1
85081.6
85077.6
85072
85065.2
85057.4
85048.9
85039.7
85029.9
85019.7
85009.1
84998.3
84987.4
84976.3
84965.2
84954.1
84942.9
84931.7
84920.6
84909.4
84898.2
84887.1
84876
84864.7
84853.4
84842.2
84830.8
84818.2
84804.8
84790.2
84774.6
84757.7
84739.9
84721.1
84701.7
84681.9
84667
84654.7
84642.4
84629.4
84616
84601.4
84585.4
84567.5
84547.7
84525.8
84502.5
84478.1
84453.1
84427.5
84401.1
84373.7
84344.7
84313.5
84279.9
84243.3
84204.3
84162.9
84121.2
84079.8
84043.6
84890.2
84860.7
84845.9
84838.5
84843.8
84847.3
84858.6
84865.6
84878.7
84888.5
84903.7
84916.7
84933.6
84948.6
84966.1
84981.8
84998.5
85013.5
85028.2
85041.2
85053.1
85063
85071.3
85077.7
85082.1
85084.7
85085.3
85084.1
85081.6
85077.6
85072
85065.2
85057.4
85048.9
85039.7
85029.9
85019.7
85009.1
84998.3
84987.4
84976.4
84965.3
84954.1
84943
84931.8
84920.6
84909.5
84898.3
84887.2
84876.1
84864.9
84853.5
84842.3
84830.8
84818.3
84804.9
84790.2
84774.7
84757.7
84740
84721.1
84701.7
84681.8
84666.8
84654.3
84641.7
84628.5
84614.9
84599.9
84583.6
84565.5
84545.5
84523.6
84500.3
84476
84451
84425.4
84399
84371.4
84342.4
84311.3
84278.1
84242.5
84205.1
84166
84126.8
84088.4
84053.6
84890.1
84860.7
84845.9
84838.5
84843.8
84847.3
84858.6
84865.6
84878.7
84888.5
84903.7
84916.7
84933.6
84948.6
84966.1
84981.8
84998.5
85013.5
85028.2
85041.2
85053.1
85063
85071.3
85077.7
85082.1
85084.7
85085.3
85084.1
85081.6
85077.6
85072
85065.2
85057.4
85048.9
85039.7
85029.9
85019.7
85009.1
84998.4
84987.4
84976.4
84965.3
84954.2
84943
84931.9
84920.7
84909.6
84898.5
84887.3
84876.3
84865.1
84853.7
84842.5
84831
84818.4
84805
84790.4
84774.8
84757.8
84740
84721.2
84701.7
84681.8
84666.4
84653.8
84640.9
84627.4
84613.4
84598.1
84581.4
84563
84542.8
84520.8
84497.6
84473.4
84448.4
84422.8
84396.3
84368.8
84339.8
84309
84276.5
84242
84206.2
84169.4
84132.7
84096.6
84063
84890.1
84860.7
84845.9
84838.5
84843.8
84847.3
84858.6
84865.6
84878.7
84888.5
84903.7
84916.7
84933.6
84948.6
84966.1
84981.8
84998.5
85013.4
85028.2
85041.2
85053.1
85063
85071.3
85077.7
85082.1
85084.7
85085.3
85084.1
85081.6
85077.6
85071.9
85065.1
85057.4
85048.9
85039.7
85029.9
85019.7
85009.1
84998.4
84987.5
84976.4
84965.4
84954.3
84943.1
84932
84920.9
84909.8
84898.6
84887.5
84876.5
84865.3
84854
84842.7
84831.2
84818.6
84805.1
84790.5
84774.9
84758
84740.1
84721.3
84701.7
84681.7
84666
84653.1
84639.8
84626
84611.5
84595.8
84578.7
84559.9
84539.5
84517.5
84494.3
84470.2
84445.4
84419.8
84393.4
84365.8
84337
84306.8
84275.1
84242
84207.9
84173.2
84138.7
84104.5
84072
84890.1
84860.8
84846
84838.5
84843.8
84847.3
84858.6
84865.6
84878.7
84888.5
84903.7
84916.7
84933.6
84948.6
84966.1
84981.8
84998.5
85013.4
85028.2
85041.2
85053
85063
85071.3
85077.7
85082.1
85084.7
85085.3
85084.1
85081.5
85077.5
85071.9
85065.1
85057.4
85048.9
85039.7
85029.9
85019.7
85009.2
84998.4
84987.5
84976.5
84965.4
84954.4
84943.3
84932.2
84921.1
84910
84898.9
84887.8
84876.8
84865.6
84854.3
84843
84831.4
84818.8
84805.4
84790.7
84775.1
84758.2
84740.3
84721.4
84701.7
84681.6
84665.5
84652.2
84638.5
84624.2
84609.2
84592.9
84575.4
84556.3
84535.7
84513.7
84490.6
84466.6
84441.9
84416.4
84390.1
84362.8
84334.4
84304.9
84274.2
84242.5
84210.2
84177.5
84144.9
84112.5
84081.1
84890.1
84860.9
84846
84838.5
84843.8
84847.3
84858.6
84865.6
84878.7
84888.6
84903.7
84916.7
84933.6
84948.6
84966.1
84981.8
84998.5
85013.4
85028.2
85041.2
85053
85063
85071.3
85077.7
85082.1
85084.7
85085.3
85084.1
85081.5
85077.5
85071.9
85065.1
85057.4
85048.9
85039.7
85029.9
85019.7
85009.2
84998.5
84987.6
84976.6
84965.6
84954.5
84943.4
84932.4
84921.3
84910.3
84899.2
84888.2
84877.1
84866
84854.7
84843.4
84831.7
84819.2
84805.7
84791
84775.3
84758.4
84740.5
84721.6
84701.7
84681.4
84664.9
84651.2
84636.8
84622
84606.4
84589.6
84571.6
84552.2
84531.4
84509.5
84486.6
84462.8
84438.3
84413
84387
84360.1
84332.3
84303.5
84274
84243.9
84213.3
84182.4
84151.6
84120.8
84090.6
84890
84860.9
84846
84838.5
84843.8
84847.3
84858.6
84865.6
84878.7
84888.6
84903.7
84916.7
84933.6
84948.6
84966.1
84981.8
84998.5
85013.4
85028.2
85041.2
85053
85063
85071.3
85077.6
85082.1
85084.7
85085.3
85084.1
85081.5
85077.5
85071.9
85065.1
85057.4
85048.9
85039.7
85029.9
85019.8
85009.3
84998.5
84987.7
84976.7
84965.7
84954.7
84943.7
84932.7
84921.6
84910.6
84899.6
84888.6
84877.6
84866.6
84855.3
84843.9
84832.2
84819.6
84806.1
84791.5
84775.8
84758.9
84740.9
84721.9
84701.9
84681.3
84664.2
84649.9
84635
84619.5
84603.3
84586
84567.5
84547.8
84527
84505.2
84482.4
84458.9
84434.7
84409.8
84384.2
84357.9
84330.9
84303.2
84274.9
84246.2
84217.3
84188
84159
84129.7
84101
84890
84861
84846
84838.5
84843.9
84847.3
84858.6
84865.6
84878.7
84888.6
84903.7
84916.7
84933.6
84948.6
84966.1
84981.8
84998.5
85013.4
85028.2
85041.1
85053
85062.9
85071.3
85077.6
85082.1
85084.6
85085.3
85084.1
85081.5
85077.4
85071.9
85065.1
85057.4
85048.9
85039.7
85030
85019.8
85009.3
84998.6
84987.8
84976.9
84965.9
84955
84944
84933.1
84922.1
84911.2
84900.2
84889.3
84878.3
84867.3
84856.1
84844.7
84832.9
84820.3
84806.7
84792.1
84776.4
84759.5
84741.5
84722.4
84702.1
84681.2
84663.4
84648.5
84632.9
84616.8
84600
84582.2
84563.4
84543.5
84522.8
84501.1
84478.6
84455.5
84431.7
84407.3
84382.3
84356.7
84330.6
84304
84277
84249.7
84222.3
84194.6
84167.2
84139.4
84112.3
84889.9
84861.1
84846.1
84838.5
84843.9
84847.3
84858.6
84865.6
84878.7
84888.6
84903.8
84916.7
84933.7
84948.6
84966.2
84981.8
84998.5
85013.4
85028.2
85041.1
85053
85062.9
85071.3
85077.6
85082.1
85084.6
85085.3
85084.1
85081.5
85077.4
85071.8
85065.1
85057.4
85048.9
85039.7
85030
85019.9
85009.4
84998.8
84988
84977.1
84966.2
84955.3
84944.4
84933.6
84922.7
84911.9
84901
84890.2
84879.3
84868.3
84857.1
84845.7
84833.8
84821.2
84807.6
84793
84777.4
84760.5
84742.4
84723.2
84702.7
84681.3
84662.9
84647.3
84631
84614.3
84596.9
84578.7
84559.7
84539.8
84519.1
84497.7
84475.6
84452.9
84429.7
84405.9
84381.6
84356.9
84331.7
84306.2
84280.5
84254.5
84228.5
84202.2
84176.2
84150
84124.3
84889.8
84861.2
84846.1
84838.5
84843.9
84847.3
84858.6
84865.6
84878.7
84888.5
84903.8
84916.7
84933.7
84948.6
84966.2
84981.8
84998.6
85013.4
85028.2
85041.1
85053
85062.9
85071.2
85077.6
85082
85084.6
85085.2
85084.1
85081.4
85077.4
85071.8
85065.1
85057.4
85048.9
85039.8
85030.1
85020
85009.6
84999
84988.2
84977.4
84966.6
84955.8
84945
84934.3
84923.5
84912.8
84902.1
84891.3
84880.5
84869.6
84858.4
84847
84835.1
84822.5
84809
84794.4
84778.8
84762
84743.8
84724.5
84703.7
84681.8
84662.7
84646.5
84629.6
84612.4
84594.6
84576.1
84556.9
84537.1
84516.7
84495.6
84473.9
84451.7
84429.1
84405.9
84382.4
84358.5
84334.3
84309.9
84285.3
84260.5
84235.7
84210.7
84186
84161
84136.5
84889.8
84861.4
84846.2
84838.6
84843.9
84847.3
84858.7
84865.6
84878.8
84888.5
84903.8
84916.6
84933.7
84948.6
84966.2
84981.7
84998.6
85013.4
85028.2
85041.1
85053
85062.9
85071.2
85077.5
85082
85084.5
85085.2
85084.1
85081.4
85077.3
85071.8
85065.1
85057.4
85048.9
85039.8
85030.2
85020.1
85009.8
84999.2
84988.5
84977.8
84967.1
84956.5
84945.8
84935.2
84924.6
84914.1
84903.5
84892.9
84882.1
84871.3
84860.2
84848.8
84836.9
84824.3
84810.9
84796.5
84781
84764.2
84746.1
84726.6
84705.6
84683.3
84663.6
84646.8
84629.4
84611.8
84593.7
84575.1
84555.9
84536.2
84516
84495.3
84474
84452.4
84430.3
84407.8
84385
84362
84338.7
84315.2
84291.5
84267.8
84243.9
84220
84196.2
84172.2
84148.7
84889.7
84861.5
84846.3
84838.6
84844
84847.3
84858.7
84865.5
84878.8
84888.5
84903.9
84916.6
84933.8
84948.6
84966.2
84981.7
84998.6
85013.3
85028.3
85041
85053
85062.8
85071.2
85077.5
85082
85084.5
85085.2
85084.1
85081.4
85077.3
85071.8
85065.1
85057.5
85049
85039.9
85030.3
85020.3
85010
84999.5
84989
84978.4
84967.8
84957.3
84946.8
84936.4
84926.1
84915.7
84905.3
84894.9
84884.3
84873.5
84862.5
84851.2
84839.3
84826.9
84813.8
84799.6
84784.4
84767.8
84749.7
84730.1
84708.9
84686.4
84666.3
84649.1
84631.3
84613.4
84595.2
84576.5
84557.3
84537.8
84517.8
84497.4
84476.5
84455.3
84433.8
84412
84389.9
84367.6
84345
84322.4
84299.5
84276.6
84253.6
84230.4
84207.4
84184.2
84161.3
84889.6
84861.6
84846.4
84838.6
84844
84847.3
84858.7
84865.5
84878.8
84888.5
84903.9
84916.6
84933.8
84948.5
84966.3
84981.7
84998.6
85013.3
85028.3
85041
85053
85062.8
85071.2
85077.5
85082
85084.5
85085.2
85084.1
85081.4
85077.4
85071.9
85065.2
85057.6
85049.2
85040.1
85030.5
85020.6
85010.4
85000
84989.5
84979.1
84968.7
84958.4
84948.2
84938
84927.9
84917.8
84907.7
84897.5
84887.1
84876.5
84865.6
84854.4
84842.8
84830.7
84817.9
84804.2
84789.5
84773.2
84755.4
84735.9
84714.7
84692.2
84671.9
84654.5
84636.5
84618.4
84600.1
84581.4
84562.3
84542.9
84523.1
84502.9
84482.4
84461.7
84440.7
84419.5
84398
84376.4
84354.6
84332.7
84310.6
84288.4
84266.1
84243.7
84221.3
84198.6
84176.2
84889.6
84861.6
84846.4
84838.5
84844.1
84847.2
84858.8
84865.4
84878.9
84888.4
84904
84916.5
84933.9
84948.4
84966.4
84981.6
84998.7
85013.3
85028.3
85041
85053.1
85062.8
85071.3
85077.5
85082.1
85084.6
85085.3
85084.3
85081.6
85077.5
85072
85065.4
85057.8
85049.4
85040.3
85030.8
85020.9
85010.8
85000.5
84990.2
84979.9
84969.7
84959.6
84949.6
84939.8
84930
84920.2
84910.4
84900.5
84890.4
84880
84869.2
84858.2
84846.9
84835.2
84823.1
84810.3
84796.3
84780.7
84763.3
84744.2
84723.2
84700.9
84680.6
84663.1
84645.1
84626.9
84608.5
84589.8
84570.6
84551.2
84531.5
84511.5
84491.3
84471
84450.5
84429.8
84409.1
84388.2
84367.2
84346.1
84324.8
84303.5
84281.9
84260.2
84238.5
84216.6
84194.8
84889.5
84861.6
84846.5
84838.4
84844.1
84847.1
84858.8
84865.3
84879
84888.2
84904.1
84916.4
84934
84948.3
84966.5
84981.5
84998.8
85013.2
85028.4
85041
85053.1
85062.8
85071.4
85077.6
85082.2
85084.7
85085.5
85084.4
85081.8
85077.7
85072.2
85065.6
85058
85049.7
85040.6
85031.2
85021.3
85011.2
85001
84990.8
84980.7
84970.7
84960.8
84951.1
84941.6
84932.1
84922.7
84913.3
84903.6
84893.8
84883.6
84873
84862.2
84851.1
84840
84828.9
84817.1
84804.3
84789.7
84773
84754.2
84733.3
84711.2
84691.2
84673.7
84655.7
84637.5
84619
84600
84580.7
84561
84541.1
84521.1
84500.9
84480.6
84460.4
84440.2
84420
84399.9
84379.7
84359.5
84339.1
84318.7
84298.1
84277.3
84256.5
84235.4
84214.3
84889.5
84861.5
84846.5
84838.3
84844.2
84846.9
84858.9
84865.1
84879.1
84888.1
84904.2
84916.2
84934.1
84948.2
84966.6
84981.4
84998.9
85013.2
85028.5
85041
85053.2
85062.9
85071.5
85077.7
85082.3
85084.9
85085.7
85084.7
85082
85078
85072.5
85065.9
85058.3
85050
85040.9
85031.5
85021.7
85011.7
85001.6
84991.5
84981.5
84971.7
84962
84952.6
84943.4
84934.3
84925.3
84916.3
84907
84897.4
84887.5
84877
84866.3
84855.4
84845
84835
84824.8
84813.8
84800.5
84784.7
84766.2
84745
84722.9
84703.2
84686
84668.2
84650.1
84631.5
84612.2
84592.4
84572.2
84551.6
84530.8
84510.1
84489.5
84469.1
84449.1
84429.3
84409.9
84390.6
84371.5
84352.4
84333.2
84313.9
84294.4
84274.7
84254.8
84234.8
84889.6
84861.4
84846.5
84838.2
84844.2
84846.8
84859
84865
84879.1
84888
84904.3
84916.1
84934.2
84948.1
84966.7
84981.3
84999
85013.1
85028.6
85041
85053.4
85063
85071.6
85077.9
85082.5
85085.1
85085.9
85085
85082.3
85078.3
85072.8
85066.3
85058.6
85050.3
85041.3
85031.9
85022.1
85012.2
85002.1
84992.1
84982.3
84972.6
84963.2
84954.1
84945.2
84936.6
84928
84919.4
84910.6
84901.4
84891.6
84881.2
84870.4
84859.5
84849.7
84841.2
84833.2
84824.9
84813.5
84798.9
84780.3
84757.8
84734.9
84715.9
84699.5
84682.4
84664.9
84646.5
84627.1
84606.6
84585.2
84563.1
84540.6
84518.1
84496
84474.4
84453.8
84434
84415.1
84397
84379.3
84362
84344.8
84327.5
84310
84292.2
84274.1
84255.8
84889.7
84861.2
84846.4
84838.1
84844.2
84846.6
84859
84864.8
84879.2
84887.8
84904.4
84915.9
84934.3
84948
84966.8
84981.2
84999.1
85013.1
85028.7
85041
85053.5
85063.1
85071.8
85078.1
85082.7
85085.4
85086.2
85085.3
85082.6
85078.7
85073.1
85066.7
85058.9
85050.7
85041.6
85032.4
85022.5
85012.7
85002.6
84992.8
84983
84973.6
84964.4
84955.6
84947.1
84938.9
84930.7
84922.7
84914.4
84905.7
84896.1
84885.6
84874.4
84862.9
84853.6
84847.1
84842.3
84838.4
84829.5
84816.6
84797
84770.6
84745.7
84728.1
84713.7
84698.8
84683.2
84666.1
84647.1
84625.9
84602.7
84577.6
84551.4
84524.6
84498.2
84473
84449.7
84428.8
84410.2
84393.6
84378.5
84364.3
84350.6
84336.9
84322.9
84308.5
84293.5
84277.9
84889.8
84861
84846.4
84837.9
84844.3
84846.4
84859.1
84864.6
84879.3
84887.6
84904.5
84915.8
84934.4
84947.8
84966.9
84981.1
84999.2
85013
85028.9
85041.1
85053.6
85063.2
85072
85078.3
85083
85085.8
85086.4
85085.7
85082.9
85079.2
85073.5
85067.2
85059.3
85051.2
85041.9
85032.8
85022.8
85013.1
85003
84993.3
84983.6
84974.4
84965.4
84956.9
84948.7
84940.9
84933.2
84925.9
84918.1
84910
84900.7
84889.9
84877.7
84864.6
84855.2
84851
84851
84853.5
84848.3
84838
84815.7
84780.2
84750.6
84735.8
84725.8
84715.7
84704.7
84691.5
84674.9
84654.1
84628.8
84599
84565.4
84529.2
84492.2
84456.8
84425.7
84400.5
84381.1
84366.8
84356.3
84348.1
84341.2
84334.5
84327.2
84319.1
84309.8
84299.2
84889.9
84860.8
84846.3
84837.7
84844.3
84846.3
84859.1
84864.4
84879.4
84887.4
84904.5
84915.6
84934.5
84947.7
84967
84981.1
84999.3
85013
85029
85041.1
85053.8
85063.4
85072.1
85078.6
85083.1
85086.1
85086.6
85086
85083.1
85079.6
85073.7
85067.6
85059.5
85051.6
85042.2
85033.2
85023.1
85013.5
85003.3
84993.8
84984.1
84975
84966.1
84957.9
84949.9
84942.6
84935.3
84928.5
84921.2
84914
84904.9
84894.2
84880.2
84864.5
84853.9
84851.9
84857.8
84868.5
84868.2
84862.4
84835.5
84783.3
84745.4
84734.7
84731.4
84729.1
84726.2
84720.3
84709.5
84692.2
84666.9
84632.3
84587.6
84535.2
84476.4
84417.3
84367
84330.1
84307
84295.7
84293.1
84296.5
84302.7
84309.4
84314.9
84318.5
84319.3
84317.7
84889.9
84860.6
84846.3
84837.6
84844.3
84846.1
84859.2
84864.3
84879.4
84887.3
84904.6
84915.5
84934.6
84947.6
84967
84981
84999.4
85013
85029
85041.2
85053.8
85063.5
85072.2
85078.8
85083.3
85086.4
85086.8
85086.4
85083.3
85080
85074
85067.9
85059.7
85051.9
85042.4
85033.5
85023.3
85013.8
85003.5
84994.1
84984.4
84975.5
84966.7
84958.7
84950.9
84943.9
84936.9
84930.8
84924
84917.6
84908.9
84898.6
84882.3
84862.7
84849.8
84849.5
84862.8
84882.7
84889.1
84890.2
84857.2
84778.7
84728.2
84722.6
84728.5
84736.9
84744.7
84749.2
84747.9
84738.1
84716.3
84678.1
84619.3
84544.1
84442.4
84330.8
84239.3
84178.6
84148.4
84143.5
84157.7
84184.3
84216.4
84248.6
84277.3
84301.3
84319.7
84333
84890
84860.5
84846.2
84837.5
84844.3
84846
84859.2
84864.2
84879.4
84887.2
84904.6
84915.4
84934.6
84947.5
84967.1
84980.9
84999.4
85013
85029.1
85041.2
85053.9
85063.6
85072.3
85079
85083.4
85086.6
85086.9
85086.6
85083.4
85080.3
85074.1
85068.2
85059.9
85052.2
85042.5
85033.8
85023.4
85014.1
85003.7
84994.4
84984.6
84975.9
84967.1
84959.3
84951.6
84944.9
84938.2
84932.6
84926.2
84920.9
84912.6
84903.3
84884.1
84859.7
84843
84844.1
84866.3
84895.4
84909.6
84920.9
84880.6
84765
84697.7
84697.9
84715.4
84736.9
84757.2
84773.4
84783.8
84785.8
84774
84741
84678.6
84583.9
84407.4
84198.4
84034.8
83930.7
83883.5
83885
83924.9
83991.8
84069.2
84144.1
84210
84265.1
84309.4
84344.1
84890.1
84860.3
84846.2
84837.5
84844.3
84846
84859.2
84864.1
84879.5
84887.2
84904.7
84915.3
84934.6
84947.5
84967.1
84980.9
84999.5
85013
85029.1
85041.3
85053.9
85063.7
85072.3
85079.1
85083.4
85086.8
85087
85086.8
85083.5
85080.5
85074.2
85068.5
85060
85052.4
85042.6
85034
85023.5
85014.3
85003.8
84994.7
84984.7
84976.2
84967.3
84959.8
84952.2
84945.8
84939.3
84934.1
84928.1
84923.7
84916.1
84908.2
84886
84856.1
84833.9
84836
84868.4
84906.3
84928.5
84952.5
84903.9
84740.2
84652
84659.1
84691.8
84728.7
84761.3
84787.9
84809.8
84824
84822.5
84797.5
84738
84623.3
84375.5
84077.3
83851.9
83698.9
83614.8
83599.7
83648.1
83755.4
83888
84016.3
84127.3
84218.7
84292.1
84350.2
84890.2
84860.2
84846.2
84837.4
84844.3
84845.9
84859.2
84864.1
84879.5
84887.1
84904.7
84915.3
84934.7
84947.4
84967.2
84980.9
84999.5
85013
85029.1
85041.3
85054
85063.8
85072.3
85079.2
85083.4
85087
85087
85087
85083.6
85080.8
85074.3
85068.7
85060
85052.6
85042.7
85034.2
85023.5
85014.5
85003.8
84994.9
84984.8
84976.4
84967.5
84960.2
84952.6
84946.4
84940.1
84935.3
84929.7
84926.1
84919.3
84913.4
84888.2
84852.1
84822.9
84826
84869.4
84915.6
84946.1
84982.7
84926.6
84705.1
84591.8
84606.6
84659.6
84714.3
84757.7
84791.4
84820.4
84839.7
84839.2
84816.3
84760.4
84645.8
84353.2
83988.3
83727
83546.1
83436.9