/*--------------------------------*- C++ -*----------------------------------*\
| =========                 |                                                 |
| \\      /  F ield         | OpenFOAM: The Open Source CFD Toolbox           |
|  \\    /   O peration     | Version:  2306                                  |
|   \\  /    A nd           | Website:  www.openfoam.com                      |
|    \\/     M anipulation  |                                                 |
\*---------------------------------------------------------------------------*/
FoamFile
{
    version     2.0;
    format      ascii;
    arch        "LSB;label=32;scalar=64";
    class       surfaceScalarField;
    location    "900";
    object      phi;
}
// * * * * * * * * * * * * * * * * * * * * * * * * * * * * * * * * * * * * * //

dimensions      [0 3 -1 0 0 0 0];

oriented        oriented;

internalField   nonuniform List<scalar> 
40747
(
1.75401e-05
-2.65821e-06
7.49201e-06
1.00541e-05
2.11979e-05
-5.84922e-06
1.52898e-05
1.34194e-05
2.55554e-05
-9.61755e-06
2.30999e-05
1.77791e-05
3.06934e-05
-1.39493e-05
3.05322e-05
2.33166e-05
3.66746e-05
-1.87263e-05
3.7096e-05
3.01974e-05
4.35367e-05
-2.3666e-05
4.22366e-05
3.85247e-05
5.13063e-05
-2.82676e-05
4.54269e-05
4.82993e-05
6.00608e-05
-3.18117e-05
4.6336e-05
5.94055e-05
7.0081e-05
-3.35013e-05
4.50668e-05
7.16943e-05
8.20975e-05
-3.28371e-05
4.23713e-05
8.52532e-05
9.74744e-05
-3.01633e-05
3.95944e-05
0.000100856
0.000117905
-2.68896e-05
3.80446e-05
0.00012023
0.000144403
-2.46785e-05
3.79801e-05
0.000145433
0.000176699
-2.39963e-05
3.84124e-05
0.00017745
0.000214569
-2.39652e-05
3.84007e-05
0.000216026
0.000259468
-2.38092e-05
3.79263e-05
0.000261707
0.000313733
-2.3453e-05
3.72646e-05
0.000316548
0.000379502
-2.29799e-05
3.64857e-05
0.000382908
0.000459099
-2.24046e-05
3.55757e-05
0.0004632
0.00055542
-2.17382e-05
3.45422e-05
0.000560315
0.000671952
-2.09728e-05
3.33797e-05
0.000677796
0.000812932
-2.00942e-05
3.2074e-05
0.000819917
0.000983487
-1.90863e-05
3.06029e-05
0.000991847
0.00118983
-1.79341e-05
2.89364e-05
0.00119984
0.00143947
-1.66266e-05
2.70333e-05
0.00145147
0.00174149
-1.51594e-05
2.48347e-05
0.00175588
0.00210691
-1.35372e-05
2.22608e-05
0.00212416
0.00254903
-1.20715e-05
1.86171e-05
0.0025697
0.00308395
-1.13568e-05
1.19727e-05
0.00310872
0.00373115
-1.17824e-05
1.9235e-06
0.0037608
0.00357537
-1.07201e-05
-4.67452e-06
0.00360351
0.00357562
-9.21154e-06
-1.01809e-05
0.00360351
0.00357579
-7.71157e-06
-1.54932e-05
0.00360348
0.00357589
-6.94927e-06
-2.24043e-05
0.00360343
0.00361882
-7.02081e-06
-3.11572e-05
0.00364657
0.0030104
-5.36048e-06
-3.60633e-05
0.00303346
0.00250423
-2.75946e-06
-3.86324e-05
0.00252345
0.00208314
2.42653e-07
-3.98429e-05
0.0020992
0.00173285
3.30506e-06
-4.03084e-05
0.00174629
0.00144146
6.22879e-06
-4.03977e-05
0.00145273
0.00119907
8.91175e-06
-4.03251e-05
0.00120853
0.000997438
1.13119e-05
-4.02092e-05
0.00100538
0.000829713
1.34247e-05
-4.01122e-05
0.000836394
0.00069019
1.52657e-05
-4.00624e-05
0.000695815
0.000574129
1.68581e-05
-4.00559e-05
0.000578869
0.000477588
1.82271e-05
-4.00597e-05
0.000481582
0.000397282
1.93968e-05
-4.00784e-05
0.000400644
0.000330497
2.03743e-05
-4.01105e-05
0.000333307
0.000274993
2.11314e-05
-4.01352e-05
0.000277316
0.000228897
2.16225e-05
-3.99688e-05
0.000230632
0.000190208
2.2234e-05
-3.93831e-05
0.000191202
0.000157074
2.38964e-05
-3.87816e-05
0.000157788
0.00012897
2.69714e-05
-3.92151e-05
0.000130488
0.000106358
3.04451e-05
-4.11673e-05
0.000109187
8.9062e-05
3.2727e-05
-4.3918e-05
9.25083e-05
7.58406e-05
3.28463e-05
-4.61507e-05
7.86171e-05
6.52215e-05
3.07877e-05
-4.67759e-05
6.62675e-05
5.61714e-05
2.71364e-05
-4.52868e-05
5.50042e-05
4.81772e-05
2.26296e-05
-4.17079e-05
4.48406e-05
4.10513e-05
1.78902e-05
-3.63927e-05
3.59143e-05
3.47431e-05
1.33413e-05
-2.98319e-05
2.83092e-05
2.923e-05
9.22256e-06
-2.25164e-05
2.20086e-05
2.44769e-05
5.63949e-06
-1.48688e-05
1.69134e-05
2.04267e-05
2.57932e-06
-7.27487e-06
1.28753e-05
1.70084e-05
9.73353e-06
7.38129e-07
9.3289e-06
3.89015e-07
3.57523e-07
3.15754e-07
8.37922e-08
2.75588e-07
4.25689e-08
2.49996e-07
3.21911e-08
2.30506e-07
1.77391e-08
2.1707e-07
1.6801e-08
2.05357e-07
8.94285e-09
1.96725e-07
1.00406e-08
1.88373e-07
5.28958e-09
1.81727e-07
6.61812e-09
1.7501e-07
3.30496e-09
1.69518e-07
4.30325e-09
1.63952e-07
1.90354e-09
1.5932e-07
2.49416e-09
1.54723e-07
8.76609e-10
1.50882e-07
1.01037e-09
1.47279e-07
1.18404e-11
1.44355e-07
-2.68116e-10
1.41873e-07
-8.22703e-10
1.40016e-07
-1.34309e-09
1.3875e-07
-1.63437e-09
1.3805e-07
-2.21546e-09
1.37472e-07
-1.85598e-09
1.37806e-07
-2.7851e-09
1.38584e-07
-2.74051e-09
1.34399e-07
2.25877e-09
1.37064e-07
-4.20131e-09
1.45121e-07
-9.50945e-09
1.48161e-07
-4.23652e-09
1.50937e-07
-3.88444e-09
1.53211e-07
-3.27006e-09
1.55918e-07
-3.65978e-09
1.59189e-07
-4.2295e-09
1.62265e-07
-4.05371e-09
1.65283e-07
-4.07224e-09
1.6838e-07
-4.21296e-09
1.71686e-07
-4.51742e-09
1.75199e-07
-4.80249e-09
1.789e-07
-5.08222e-09
1.82856e-07
-5.42224e-09
1.87182e-07
-5.89507e-09
1.91998e-07
-6.50415e-09
1.97363e-07
-7.20444e-09
2.033e-07
-7.97553e-09
2.09885e-07
-8.87056e-09
2.17082e-07
-9.79059e-09
2.24492e-07
-1.03558e-08
2.3256e-07
-1.14033e-08
2.39863e-07
-1.10088e-08
2.42798e-07
-6.93672e-09
2.49988e-07
-1.12151e-08
2.63744e-07
-1.7449e-08
2.7755e-07
-1.62203e-08
2.93892e-07
-1.69868e-08
3.13397e-07
-1.6937e-08
3.37237e-07
-1.82424e-08
3.6441e-07
-1.76849e-08
3.93967e-07
-1.84927e-08
4.24845e-07
-1.74577e-08
4.55286e-07
-1.97503e-08
4.82888e-07
-1.61428e-08
5.1539e-07
-2.71463e-08
5.41768e-07
-1.74023e-08
5.67261e-07
-2.36877e-08
5.93778e-07
-1.73437e-08
6.19558e-07
-1.84956e-08
6.48849e-07
-1.1933e-08
6.81753e-07
-9.18042e-09
7.20853e-07
-8.57161e-09
7.66531e-07
-4.53848e-09
8.16371e-07
-1.28454e-08
8.69574e-07
-8.38308e-09
9.22124e-07
-1.69593e-08
9.74244e-07
-1.51187e-08
1.02575e-06
-1.88981e-08
1.0781e-06
-2.32015e-08
1.13426e-06
-2.73398e-08
1.19686e-06
-3.91187e-08
1.26792e-06
-4.92407e-08
1.35277e-06
-6.78052e-08
1.44895e-06
-8.48466e-08
1.56514e-06
-1.05822e-07
1.70567e-06
-1.39358e-07
1.86113e-06
-1.48811e-07
2.17106e-06
-3.18333e-07
1.7862e-06
3.72929e-07
-4.66896e-06
6.46312e-06
2.68836e-06
2.00987e-05
1.47545e-06
1.59481e-06
1.19204e-06
3.98795e-07
1.03621e-06
2.04742e-07
9.43251e-07
1.44777e-07
8.74095e-07
8.12207e-08
8.2202e-07
7.88366e-08
7.83531e-07
3.88169e-08
7.45692e-07
5.19178e-08
7.19726e-07
2.17178e-08
6.89344e-07
3.66624e-08
6.69572e-07
1.24708e-08
6.45104e-07
2.48883e-08
6.29858e-07
5.81314e-09
6.10486e-07
1.50995e-08
5.99055e-07
8.3221e-10
5.84233e-07
6.99455e-09
5.76308e-07
-3.1059e-09
5.65827e-07
3.33711e-10
5.61211e-07
-6.3326e-09
5.54855e-07
-4.82489e-09
5.53297e-07
-8.93506e-09
5.50767e-07
-8.5971e-09
5.49944e-07
-8.44844e-09
5.50506e-07
-1.08022e-08
5.52715e-07
-1.0916e-08
5.37451e-07
1.16828e-08
5.45395e-07
-1.68093e-08
5.70559e-07
-3.90728e-08
5.7873e-07
-1.60439e-08
5.86252e-07
-1.47797e-08
5.92189e-07
-1.22564e-08
6.00525e-07
-1.49273e-08
6.11109e-07
-1.77779e-08
6.21464e-07
-1.74426e-08
6.32004e-07
-1.78804e-08
6.43081e-07
-1.87519e-08
6.55004e-07
-2.01917e-08
6.67692e-07
-2.14755e-08
6.81208e-07
-2.28609e-08
6.95646e-07
-2.43828e-08
7.11537e-07
-2.66225e-08
7.29054e-07
-2.92291e-08
7.48533e-07
-3.23623e-08
7.69898e-07
-3.5635e-08
7.93596e-07
-3.96243e-08
8.19429e-07
-4.36151e-08
8.46657e-07
-4.66313e-08
8.77165e-07
-5.21053e-08
9.06293e-07
-5.13835e-08
9.24012e-07
-3.66695e-08
9.6049e-07
-5.95092e-08
1.01995e-06
-8.73978e-08
1.0722e-06
-7.46496e-08
1.1382e-06
-8.35443e-08
1.19629e-06
-6.59232e-08
1.2778e-06
-8.20618e-08
1.34629e-06
-5.78087e-08
1.44511e-06
-8.57262e-08
1.52295e-06
-5.7989e-08
1.6355e-06
-1.03905e-07
1.71963e-06
-7.017e-08
1.86942e-06
-1.64052e-07
1.93211e-06
-5.80167e-08
2.0856e-06
-1.72412e-07
2.16971e-06
-7.83996e-08
2.3197e-06
-1.48514e-07
2.41435e-06
-6.34842e-08
2.57928e-06
-1.158e-07
2.6967e-06
-5.53961e-08
2.87748e-06
-9.2348e-08
3.00575e-06
-6.03048e-08
3.17536e-06
-8.27042e-08
3.30496e-06
-7.16282e-08
3.45859e-06
-9.30667e-08
3.60819e-06
-1.02112e-07
3.77739e-06
-1.34512e-07
3.97592e-06
-1.69613e-07
4.19508e-06
-2.1348e-07
4.45804e-06
-2.71965e-07
4.7406e-06
-3.19445e-07
5.0679e-06
-3.9288e-07
5.412e-06
-4.31994e-07
5.85379e-06
-5.80073e-07
6.21896e-06
-5.02724e-07
7.18558e-06
-1.30002e-06
7.05581e-06
4.78452e-07
-8.54339e-06
1.09472e-05
5.64177e-06
3.23027e-05
3.27282e-06
4.00541e-06
2.64555e-06
1.08154e-06
2.3053e-06
5.55354e-07
2.09793e-06
3.86622e-07
1.94436e-06
2.24383e-07
1.82917e-06
2.11505e-07
1.74243e-06
1.10046e-07
1.66098e-06
1.40332e-07
1.60224e-06
6.32671e-08
1.53786e-06
1.00211e-07
1.4929e-06
3.83406e-08
1.44103e-06
6.96002e-08
1.4058e-06
2.0679e-08
1.3643e-06
4.4319e-08
1.33708e-06
7.47633e-09
1.30473e-06
2.34178e-08
1.28489e-06
-3.0237e-09
1.26136e-06
6.1383e-09
1.24869e-06
-1.17269e-08
1.23374e-06
-7.45447e-09
1.22791e-06
-1.8877e-08
1.22112e-06
-1.76689e-08
1.21743e-06
-1.79292e-08
1.21739e-06
-2.39874e-08
1.22046e-06
-2.45509e-08
1.19205e-06
2.976e-08
1.208e-06
-4.1004e-08
1.25599e-06
-9.48287e-08
1.2727e-06
-3.9161e-08
1.28793e-06
-3.59637e-08
1.29997e-06
-2.96826e-08
1.31671e-06
-3.68472e-08
1.33814e-06
-4.4454e-08
1.35909e-06
-4.37618e-08
1.38037e-06
-4.49414e-08
1.40279e-06
-4.72683e-08
1.42704e-06
-5.10344e-08
1.45301e-06
-5.44265e-08
1.48076e-06
-5.80569e-08
1.51053e-06
-6.20299e-08
1.54337e-06
-6.78571e-08
1.57976e-06
-7.46234e-08
1.62034e-06
-8.2743e-08
1.66505e-06
-9.11691e-08
1.71476e-06
-1.01407e-07
1.76921e-06
-1.11663e-07
1.82648e-06
-1.19192e-07
1.8905e-06
-1.33216e-07
1.95126e-06
-1.3084e-07
1.98907e-06
-9.42213e-08
2.06164e-06
-1.51136e-07
2.17917e-06
-2.21373e-07
2.28629e-06
-1.90763e-07
2.41883e-06
-2.15737e-07
2.54449e-06
-1.76003e-07
2.71341e-06
-2.2263e-07
2.87074e-06
-1.71478e-07
3.07875e-06
-2.46914e-07
3.26331e-06
-1.88771e-07
3.49841e-06
-2.99642e-07
3.69736e-06
-2.28312e-07
4.0054e-06
-4.56037e-07
4.18142e-06
-2.07314e-07
4.45172e-06
-4.36834e-07
4.64618e-06
-2.45516e-07
4.90305e-06
-3.81015e-07
5.10875e-06
-2.19488e-07
5.38405e-06
-3.24911e-07
5.62602e-06
-2.20186e-07
5.93384e-06
-3.00394e-07
6.20445e-06
-2.46113e-07
6.51929e-06
-2.99455e-07
6.80351e-06
-2.79325e-07
7.11357e-06
-3.27354e-07
7.42476e-06
-3.47162e-07
7.75673e-06
-4.09712e-07
8.12114e-06
-4.79451e-07
8.50849e-06
-5.57891e-07
8.9446e-06
-6.70206e-07
9.40514e-06
-7.51029e-07
9.92855e-06
-8.9881e-07
1.04652e-05
-9.52071e-07
1.11663e-05
-1.28064e-06
1.17554e-05
-1.08134e-06
1.30409e-05
-2.60024e-06
1.40599e-05
-5.65191e-07
-1.15905e-05
1.71271e-05
9.9432e-06
4.57855e-05
6.10879e-06
7.9085e-06
4.94278e-06
2.3416e-06
4.31264e-06
1.20228e-06
3.92657e-06
8.31583e-07
3.64046e-06
4.92207e-07
3.42623e-06
4.55638e-07
3.26368e-06
2.45631e-07
3.11358e-06
3.02245e-07
3.00357e-06
1.43358e-07
2.88594e-06
2.16174e-07
2.80192e-06
8.91667e-08
2.7074e-06
1.51517e-07
2.64145e-06
5.12978e-08
2.56568e-06
9.86496e-08
2.51438e-06
2.31652e-08
2.45494e-06
5.51888e-08
2.41693e-06
8.60939e-10
2.3731e-06
1.93109e-08
2.34789e-06
-1.76543e-08
2.31918e-06
-9.01897e-09
2.30617e-06
-3.29589e-08
2.29183e-06
-3.05423e-08
2.28291e-06
-3.15556e-08
2.28052e-06
-4.41849e-08
2.28305e-06
-4.50966e-08
2.2395e-06
5.57289e-08
2.26508e-06
-8.05909e-08
2.33879e-06
-1.81651e-07
2.36593e-06
-7.7132e-08
2.39031e-06
-7.03569e-08
2.40951e-06
-5.79546e-08
2.43654e-06
-7.25885e-08
2.47175e-06
-8.84657e-08
2.50654e-06
-8.75358e-08
2.54201e-06
-9.00414e-08
2.57954e-06
-9.49411e-08
2.62043e-06
-1.02818e-07
2.66455e-06
-1.10033e-07
2.71199e-06
-1.17672e-07
2.76313e-06
-1.2599e-07
2.81974e-06
-1.38048e-07
2.88269e-06
-1.52089e-07
2.95316e-06
-1.68881e-07
3.03108e-06
-1.86291e-07
3.11786e-06
-2.07246e-07
3.21344e-06
-2.28515e-07
3.31419e-06
-2.4365e-07
3.42689e-06
-2.72139e-07
3.53488e-06
-2.67192e-07
3.6077e-06
-1.96635e-07
3.73278e-06
-3.04267e-07
3.92909e-06
-4.41321e-07
4.11376e-06
-3.87618e-07
4.33792e-06
-4.38355e-07
4.55805e-06
-3.73118e-07
4.8455e-06
-4.69949e-07
5.12761e-06
-3.93677e-07
5.48428e-06
-5.41118e-07
5.82151e-06
-4.55885e-07
6.22648e-06
-6.54726e-07
6.59611e-06
-5.47257e-07
7.11998e-06
-9.61061e-07
7.45787e-06
-5.14773e-07
7.88031e-06
-8.52565e-07
8.22876e-06
-5.6343e-07
8.62439e-06
-7.49204e-07
8.97538e-06
-5.16011e-07
9.3839e-06
-6.61489e-07
9.77104e-06
-5.24904e-07
1.02178e-05
-6.41478e-07
1.06391e-05
-5.7856e-07
1.11042e-05
-6.62506e-07
1.15483e-05
-6.44052e-07
1.20205e-05
-7.21626e-07
1.25012e-05
-7.59994e-07
1.30046e-05
-8.55067e-07
1.35439e-05
-9.63299e-07
1.41063e-05
-1.07678e-06
1.47199e-05
-1.24569e-06
1.53556e-05
-1.35753e-06
1.60668e-05
-1.5926e-06
1.67819e-05
-1.65057e-06
1.76854e-05
-2.18363e-06
1.8525e-05
-1.91037e-06
1.99154e-05
-4.00583e-06
2.16228e-05
-2.29858e-06
-1.40641e-05
2.41169e-05
1.60117e-05
6.01406e-05
1.04617e-05
1.35657e-05
8.49404e-06
4.46042e-06
7.41935e-06
2.30294e-06
6.75968e-06
1.58722e-06
6.26911e-06
9.52201e-07
5.90247e-06
8.71239e-07
5.62245e-06
4.80855e-07
5.36662e-06
5.7726e-07
5.17743e-06
2.8282e-07
4.97842e-06
4.12086e-07
4.83465e-06
1.77842e-07
4.67547e-06
2.89542e-07
4.56295e-06
1.0532e-07
4.43559e-06
1.90352e-07
4.34807e-06
5.1896e-08
4.24802e-06
1.09475e-07
4.18277e-06
9.98226e-09
4.1084e-06
4.32409e-08
4.06417e-06
-2.44273e-08
4.01432e-06
-8.71356e-09
3.98979e-06
-5.25863e-08
3.96308e-06
-4.80876e-08
3.94555e-06
-5.05642e-08
3.93805e-06
-7.31751e-08
3.93747e-06
-7.35489e-08
3.87802e-06
8.69727e-08
3.91453e-06
-1.39495e-07
4.01434e-06
-3.02319e-07
4.05344e-06
-1.33407e-07
4.08776e-06
-1.20487e-07
4.11463e-06
-9.91116e-08
4.15309e-06
-1.24725e-07
4.20427e-06
-1.53416e-07
4.25572e-06
-1.52977e-07
4.30845e-06
-1.57691e-07
4.36458e-06
-1.66685e-07
4.42619e-06
-1.81114e-07
4.49331e-06
-1.94617e-07
4.56605e-06
-2.08802e-07
4.64495e-06
-2.24113e-07
4.73265e-06
-2.45971e-07
4.8306e-06
-2.71479e-07
4.94064e-06
-3.01903e-07
5.06282e-06
-3.33461e-07
5.19906e-06
-3.70925e-07
5.3499e-06
-4.09692e-07
5.50937e-06
-4.36545e-07
5.68774e-06
-4.87072e-07
5.86095e-06
-4.79482e-07
5.98869e-06
-3.64639e-07
6.18425e-06
-5.37344e-07
6.47835e-06
-7.66408e-07
6.76473e-06
-6.89283e-07
7.10643e-06
-7.77179e-07
7.45115e-06
-6.87511e-07
7.88843e-06
-8.55905e-07
8.33371e-06
-7.63965e-07
8.87646e-06
-1.0072e-06
9.4121e-06
-9.06791e-07
1.00302e-05
-1.21361e-06
1.06214e-05
-1.07914e-06
1.13948e-05
-1.71305e-06
1.19203e-05
-1.00662e-06
1.25135e-05
-1.43828e-06
1.30427e-05
-1.05922e-06
1.3597e-05
-1.27334e-06
1.41117e-05
-9.71605e-07
1.46657e-05
-1.13781e-06
1.52047e-05
-9.75429e-07
1.57942e-05
-1.11799e-06
1.6365e-05
-1.05452e-06
1.69777e-05
-1.16682e-06
1.75777e-05
-1.15972e-06
1.82068e-05
-1.26819e-06
1.88516e-05
-1.33276e-06
1.95187e-05
-1.46078e-06
2.02246e-05
-1.61046e-06
2.09497e-05
-1.75588e-06
2.17282e-05
-1.98384e-06
2.25192e-05
-2.11756e-06
2.33957e-05
-2.45064e-06
2.42661e-05
-2.50325e-06
2.53172e-05
-3.2341e-06
2.63786e-05
-2.9604e-06
2.78194e-05
-5.46278e-06
2.9848e-05
-4.35533e-06
-1.61787e-05
3.19826e-05
2.4295e-05
7.46168e-05
1.69546e-05
2.10621e-05
1.38799e-05
7.7614e-06
1.21475e-05
4.07266e-06
1.10791e-05
2.80181e-06
1.02795e-05
1.70388e-06
9.68345e-06
1.54233e-06
9.22382e-06
8.70702e-07
8.80951e-06
1.02075e-06
8.49913e-06
5.15667e-07
8.17944e-06
7.26425e-07
7.94479e-06
3.26775e-07
7.69047e-06
5.10602e-07
7.50743e-06
1.97682e-07
7.30444e-06
3.37863e-07
7.16212e-06
1.035e-07
7.00243e-06
1.98469e-07
6.89561e-06
3.06474e-08
6.77584e-06
8.56395e-08
6.70174e-06
-2.81337e-08
6.61944e-06
-1.84682e-09
6.57534e-06
-7.53905e-08
6.52802e-06
-6.76131e-08
6.49539e-06
-7.28649e-08
6.47715e-06
-1.09572e-07
6.4676e-06
-1.07281e-07
6.39039e-06
1.22314e-07
6.43727e-06
-2.1944e-07
6.55971e-06
-4.55381e-07
6.61002e-06
-2.08824e-07
6.65273e-06
-1.8621e-07
6.6857e-06
-1.52813e-07
6.73439e-06
-1.9316e-07
6.80128e-06
-2.40117e-07
6.87015e-06
-2.41867e-07
6.94137e-06
-2.50137e-07
7.01788e-06
-2.6526e-07
7.10282e-06
-2.89462e-07
7.19657e-06
-3.12698e-07
7.29932e-06
-3.36981e-07
7.41175e-06
-3.6291e-07
7.53743e-06
-3.99193e-07
7.67858e-06
-4.4158e-07
7.83785e-06
-4.91944e-07
8.01544e-06
-5.44249e-07
8.2136e-06
-6.05178e-07
8.434e-06
-6.6963e-07
8.66751e-06
-7.132e-07
8.92814e-06
-7.94404e-07
9.18439e-06
-7.85134e-07
9.39004e-06
-6.20612e-07
9.67482e-06
-8.684e-07
1.00815e-05
-1.21074e-06
1.04912e-05
-1.117e-06
1.09729e-05
-1.25468e-06
1.14705e-05
-1.1483e-06
1.20831e-05
-1.40721e-06
1.27239e-05
-1.31638e-06
1.34799e-05
-1.67386e-06
1.42485e-05
-1.57741e-06
1.51094e-05
-2.00676e-06
1.59577e-05
-1.85999e-06
1.69866e-05
-2.71794e-06
1.76999e-05
-1.68274e-06
1.84606e-05
-2.19069e-06
1.91735e-05
-1.73544e-06
1.98884e-05
-1.95518e-06
2.05673e-05
-1.58591e-06
2.12679e-05
-1.75353e-06
2.19564e-05
-1.56744e-06
2.26892e-05
-1.72779e-06
2.3408e-05
-1.67017e-06
2.41681e-05
-1.80909e-06
2.49222e-05
-1.82218e-06
2.57045e-05
-1.96066e-06
2.65072e-05
-2.05722e-06
2.73288e-05
-2.21555e-06
2.81908e-05
-2.4086e-06
2.9067e-05
-2.58175e-06
2.99964e-05
-2.8692e-06
3.09373e-05
-3.02463e-06
3.1957e-05
-3.44996e-06
3.29918e-05
-3.51853e-06
3.41729e-05
-4.41422e-06
3.54419e-05
-4.21687e-06
3.69699e-05
-7.0079e-06
3.92848e-05
-6.70144e-06
-1.81699e-05
4.12966e-05
3.51809e-05
8.80736e-05
2.63165e-05
3.01381e-05
2.18772e-05
1.25127e-05
1.92281e-05
6.771e-06
1.7571e-05
4.6637e-06
1.63174e-05
2.88832e-06
1.53859e-05
2.57974e-06
1.4656e-05
1.50051e-06
1.40117e-05
1.70587e-06
1.35175e-05
8.98605e-07
1.3025e-05
1.21053e-06
1.26526e-05
5.76575e-07
1.22628e-05
8.52352e-07
1.19725e-05
3.58908e-07
1.16615e-05
5.69608e-07
1.14349e-05
2.01679e-07
1.11891e-05
3.44226e-07
1.10168e-05
8.17653e-08
1.08297e-05
1.64103e-07
1.07063e-05
-1.33769e-08
1.05734e-05
2.5982e-08
1.0494e-05
-8.86059e-08
1.04113e-05
-7.71369e-08
1.03502e-05
-8.72754e-08
1.03095e-05
-1.43594e-07
1.02782e-05
-1.34923e-07
1.01766e-05
1.67176e-07
1.02285e-05
-3.15932e-07
1.03635e-05
-6.31449e-07
1.04185e-05
-2.97336e-07
1.04625e-05
-2.60873e-07
1.04951e-05
-2.12952e-07
1.05478e-05
-2.71927e-07
1.06249e-05
-3.43302e-07
1.07071e-05
-3.50292e-07
1.07937e-05
-3.64408e-07
1.08884e-05
-3.88587e-07
1.09957e-05
-4.26862e-07
1.11165e-05
-4.6462e-07
1.12511e-05
-5.03906e-07
1.14004e-05
-5.45405e-07
1.15686e-05
-6.01948e-07
1.17589e-05
-6.67905e-07
1.19747e-05
-7.45746e-07
1.22164e-05
-8.26715e-07
1.24859e-05
-9.18765e-07
1.27866e-05
-1.01819e-06
1.31056e-05
-1.08404e-06
1.34599e-05
-1.20445e-06
1.38114e-05
-1.19526e-06
1.41153e-05
-9.83666e-07
1.45058e-05
-1.31291e-06
1.50328e-05
-1.78129e-06
1.5579e-05
-1.68369e-06
1.62135e-05
-1.88387e-06
1.68839e-05
-1.77592e-06
1.76864e-05
-2.13933e-06
1.8543e-05
-2.0719e-06
1.95263e-05
-2.55564e-06
2.05472e-05
-2.48736e-06
2.16659e-05
-3.04887e-06
2.2791e-05
-2.90908e-06
2.40735e-05
-3.97365e-06
2.49682e-05
-2.53619e-06
2.58869e-05
-3.10014e-06
2.67738e-05
-2.5818e-06
2.76421e-05
-2.78678e-06
2.84787e-05
-2.35104e-06
2.93251e-05
-2.50603e-06
3.01643e-05
-2.30001e-06
3.10479e-05
-2.47561e-06
3.19247e-05
-2.43286e-06
3.28451e-05
-2.59956e-06
3.37664e-05
-2.64212e-06
3.4715e-05
-2.81025e-06
3.56878e-05
-2.94346e-06
3.66771e-05
-3.13096e-06
3.77065e-05
-3.36728e-06
3.87524e-05
-3.5718e-06
3.98433e-05
-3.91115e-06
4.09646e-05
-4.10807e-06
4.21393e-05
-4.60168e-06
4.33746e-05
-4.73209e-06
4.47156e-05
-5.75359e-06
4.62164e-05
-5.70395e-06
4.78828e-05
-8.69156e-06
5.05216e-05
-9.37355e-06
-2.01637e-05
5.2537e-05
4.88458e-05
9.90782e-05
3.92371e-05
4.00167e-05
3.3409e-05
1.87391e-05
2.96112e-05
1.0629e-05
2.71605e-05
7.37764e-06
2.52718e-05
4.68608e-06
2.38697e-05
4.11847e-06
2.27452e-05
2.49389e-06
2.17795e-05
2.72378e-06
2.10121e-05
1.52029e-06
2.02808e-05
1.92989e-06
1.97023e-05
9.95061e-07
1.91257e-05
1.36571e-06
1.86732e-05
6.43784e-07
1.82119e-05
9.27822e-07
1.78556e-05
3.9231e-07
1.74871e-05
5.83521e-07
1.72109e-05
2.02699e-07
1.69243e-05
3.11635e-07
1.67187e-05
5.40437e-08
1.65066e-05
1.04678e-07
1.63633e-05
-6.23266e-08
1.62194e-05
-4.94971e-08
1.61049e-05
-6.73761e-08
1.60192e-05
-1.51323e-07
1.59418e-05
-1.309e-07
1.57989e-05
2.39757e-07
1.58406e-05
-4.12707e-07
1.59672e-05
-8.08524e-07
1.60089e-05
-3.80237e-07
1.60365e-05
-3.25972e-07
1.60528e-05
-2.6288e-07
1.60941e-05
-3.45083e-07
1.61668e-05
-4.47663e-07
1.62493e-05
-4.64563e-07
1.63401e-05
-4.88583e-07
1.64436e-05
-5.26433e-07
1.65654e-05
-5.84651e-07
1.67071e-05
-6.43377e-07
1.68692e-05
-7.04157e-07
1.70522e-05
-7.67703e-07
1.72613e-05
-8.51501e-07
1.75e-05
-9.48687e-07
1.77721e-05
-1.06212e-06
1.80783e-05
-1.18024e-06
1.84195e-05
-1.31081e-06
1.88003e-05
-1.45415e-06
1.92045e-05
-1.54776e-06
1.96505e-05
-1.71432e-06
2.0096e-05
-1.70762e-06
2.05053e-05
-1.46021e-06
2.10082e-05
-1.8769e-06
2.16537e-05
-2.47599e-06
2.2338e-05
-2.39095e-06
2.31263e-05
-2.66589e-06
2.39789e-05
-2.57989e-06
2.49789e-05
-3.05964e-06
2.60646e-05
-3.04356e-06
2.72869e-05
-3.66348e-06
2.85764e-05
-3.65192e-06
2.99669e-05
-4.35323e-06
3.13865e-05
-4.24336e-06
3.29386e-05
-5.49558e-06
3.4024e-05
-3.57559e-06
3.51071e-05
-4.1728e-06
3.61697e-05
-3.59938e-06
3.71956e-05
-3.77151e-06
3.81972e-05
-3.27314e-06
3.92053e-05
-3.40943e-06
4.02179e-05
-3.19397e-06
4.12825e-05
-3.38911e-06
4.23504e-05
-3.37374e-06
4.34674e-05
-3.57216e-06
4.45908e-05
-3.65248e-06
4.57416e-05
-3.85091e-06
4.69172e-05
-4.02273e-06
4.81095e-05
-4.24084e-06
4.93374e-05
-4.51633e-06
5.05885e-05
-4.76047e-06
5.18713e-05
-5.13933e-06
5.32038e-05
-5.39849e-06
5.45668e-05
-5.93893e-06
5.60273e-05
-6.16858e-06
5.75551e-05
-7.27871e-06
5.93162e-05
-7.45036e-06
6.11683e-05
-1.05602e-05
6.41273e-05
-1.23668e-05
-2.22284e-05
6.62145e-05
6.50823e-05
0.000106261
5.60761e-05
4.93553e-05
4.93237e-05
2.59732e-05
4.43514e-05
1.56716e-05
4.0962e-05
1.10826e-05
3.82614e-05
7.27599e-06
3.62452e-05
6.29825e-06
3.45776e-05
4.00296e-06
3.3184e-05
4.17927e-06
3.2028e-05
2.50039e-06
3.09784e-05
2.9642e-06
3.01023e-05
1.67857e-06
2.92751e-05
2.11624e-06
2.85851e-05
1.13316e-06
2.79189e-05
1.47034e-06
2.73687e-05
7.45246e-07
2.68288e-05
9.6964e-07
2.63927e-05
4.55e-07
2.59615e-05
5.78489e-07
2.56238e-05
2.29097e-07
2.52901e-05
2.81801e-07
2.50378e-05
5.29924e-08
2.47923e-05
6.04667e-08
2.45831e-05
3.1685e-08
2.44144e-05
-9.09105e-08
2.4251e-05
-5.24519e-08
2.40339e-05
3.75848e-07
2.40332e-05
-4.75448e-07
2.41142e-05
-9.47525e-07
2.41074e-05
-4.20773e-07
2.40842e-05
-3.45737e-07
2.4053e-05
-2.70137e-07
2.40538e-05
-3.82263e-07
2.40938e-05
-5.23785e-07
2.41498e-05
-5.56784e-07
2.42204e-05
-5.97164e-07
2.43108e-05
-6.55768e-07
2.4427e-05
-7.41695e-07
2.45711e-05
-8.29291e-07
2.4743e-05
-9.19176e-07
2.49433e-05
-1.01221e-06
2.5177e-05
-1.13067e-06
2.54477e-05
-1.26666e-06
2.57589e-05
-1.42307e-06
2.61116e-05
-1.58586e-06
2.65048e-05
-1.76105e-06
2.69443e-05
-1.9555e-06
2.74118e-05
-2.08208e-06
2.79258e-05
-2.30003e-06
2.84441e-05
-2.30089e-06
2.89446e-05
-2.03611e-06
2.95496e-05
-2.55041e-06
3.03054e-05
-3.28683e-06
3.11263e-05
-3.23738e-06
3.20705e-05
-3.60272e-06
3.31187e-05
-3.57331e-06
3.43367e-05
-4.18798e-06
3.56812e-05
-4.26011e-06
3.71775e-05
-5.03141e-06
3.87754e-05
-5.10978e-06
4.04778e-05
-5.95907e-06
4.22335e-05
-5.90338e-06
4.41065e-05
-7.33464e-06
4.54199e-05
-4.83772e-06
4.6703e-05
-5.44393e-06
4.7973e-05
-4.81928e-06
4.91908e-05
-4.94295e-06
5.03964e-05
-4.39006e-06
5.16121e-05
-4.50821e-06
5.28487e-05
-4.29834e-06
5.41471e-05
-4.51939e-06
5.54563e-05
-4.54146e-06
5.68168e-05
-4.77248e-06
5.81824e-05
-4.89243e-06
5.95716e-05
-5.11802e-06
6.09808e-05
-5.32493e-06
6.24035e-05
-5.57243e-06
6.38544e-05
-5.88063e-06
6.53305e-05
-6.16789e-06
6.68273e-05
-6.57639e-06
6.83799e-05
-6.9049e-06
6.99527e-05
-7.48316e-06
7.16437e-05
-7.83341e-06
7.33954e-05
-9.02595e-06
7.54425e-05
-9.48191e-06
7.7528e-05
-1.26606e-05
8.07757e-05
-1.56498e-05
-2.44875e-05
8.30576e-05
8.32627e-05
0.000108977
7.65033e-05
5.65206e-05
6.99463e-05
3.30991e-05
6.42514e-05
2.14477e-05
6.00319e-05
1.56653e-05
5.64675e-05
1.07128e-05
5.37543e-05
9.19794e-06
5.14184e-05
6.1575e-06
4.94997e-05
6.16786e-06
4.78338e-05
3.96566e-06
4.63802e-05
4.3998e-06
4.51014e-05
2.73849e-06
4.39489e-05
3.1814e-06
4.29303e-05
1.92479e-06
4.19918e-05
2.26885e-06
4.11677e-05
1.34717e-06
4.03939e-05
1.57033e-06
3.97264e-05
9.16508e-07
3.90913e-05
1.02961e-06
3.85562e-05
5.82783e-07
3.80434e-05
6.20177e-07
3.76211e-05
3.23189e-07
3.72172e-05
3.14026e-07
3.68558e-05
2.7126e-07
3.65483e-05
9.70339e-08
3.62438e-05
1.58436e-07
3.59017e-05
6.28728e-07
3.58046e-05
-4.47917e-07
3.57837e-05
-9.90378e-07
3.56737e-05
-3.62782e-07
3.5546e-05
-2.65133e-07
3.54169e-05
-1.83294e-07
3.53298e-05
-3.35106e-07
3.52911e-05
-5.24779e-07
3.52755e-05
-5.80926e-07
3.52826e-05
-6.45869e-07
3.53186e-05
-7.34474e-07
3.53894e-05
-8.57284e-07
3.54963e-05
-9.82043e-07
3.56381e-05
-1.10829e-06
3.58151e-05
-1.23765e-06
3.60316e-05
-1.39717e-06
3.6291e-05
-1.57814e-06
3.65966e-05
-1.78334e-06
3.69488e-05
-1.99658e-06
3.73467e-05
-2.22206e-06
3.77973e-05
-2.47472e-06
3.8283e-05
-2.64191e-06
3.88228e-05
-2.91958e-06
3.93795e-05
-2.94109e-06
3.99447e-05
-2.68531e-06
4.06395e-05
-3.32149e-06
4.15139e-05
-4.22244e-06
4.24959e-05
-4.2475e-06
4.36343e-05
-4.73262e-06
4.49332e-05
-4.8109e-06
4.64399e-05
-5.59485e-06
4.81255e-05
-5.80342e-06
4.99846e-05
-6.74786e-06
5.19798e-05
-6.94943e-06
5.40784e-05
-7.95021e-06
5.625e-05
-7.96841e-06
5.85313e-05
-9.5779e-06
6.01331e-05
-6.38262e-06
6.16726e-05
-6.9695e-06
6.3201e-05
-6.29231e-06
6.46628e-05
-6.35256e-06
6.61258e-05
-5.75474e-06
6.76044e-05
-5.85697e-06
6.91163e-05
-5.66399e-06
7.06932e-05
-5.91201e-06
7.22793e-05
-5.97229e-06
7.3911e-05
-6.23021e-06
7.55388e-05
-6.38308e-06
7.71808e-05
-6.62781e-06
7.88353e-05
-6.8635e-06
8.0498e-05
-7.13651e-06
8.21819e-05
-7.47123e-06
8.38895e-05
-7.80129e-06
8.56139e-05
-8.23634e-06
8.74027e-05
-8.64362e-06
8.92119e-05
-9.26038e-06
9.11617e-05
-9.75458e-06
9.31647e-05
-1.10221e-05
9.55301e-05
-1.18307e-05
9.78884e-05
-1.50312e-05
0.000101403
-1.91998e-05
-2.7031e-05
0.000103969
0.000102732
0.000108031
9.94156e-05
6.03372e-05
9.45858e-05
3.86044e-05
8.92513e-05
2.68778e-05
8.48195e-05
2.05115e-05
8.06838e-05
1.47047e-05
7.74077e-05
1.26829e-05
7.44198e-05
8.94342e-06
7.19631e-05
8.70193e-06
6.97219e-05
5.98469e-06
6.78074e-05
6.29423e-06
6.60405e-05
4.26431e-06
6.44934e-05
4.63221e-06
6.30587e-05
3.11035e-06
6.17761e-05
3.39795e-06
6.05944e-05
2.28611e-06
5.95158e-05
2.46e-06
5.85381e-05
1.66987e-06
5.76299e-05
1.73778e-06
5.6823e-05
1.19268e-06
5.60634e-05
1.19088e-06
5.54003e-05
8.21787e-07
5.47707e-05
7.81282e-07
5.41895e-05
7.21114e-07
5.36753e-05
4.82485e-07
5.31653e-05
5.6774e-07
5.26367e-05
1.06155e-06
5.23716e-05
-2.57606e-07
5.2178e-05
-8.65171e-07
5.18964e-05
-1.3697e-07
5.15964e-05
-1.57015e-08
5.13037e-05
6.39604e-08
5.10653e-05
-1.39539e-07
5.0886e-05
-3.88129e-07
5.0737e-05
-4.74613e-07
5.06186e-05
-5.72321e-07
5.05389e-05
-7.00793e-07
5.05036e-05
-8.7009e-07
5.05119e-05
-1.03984e-06
5.05609e-05
-1.20836e-06
5.06502e-05
-1.3794e-06
5.07842e-05
-1.58533e-06
5.09665e-05
-1.817e-06
5.12014e-05
-2.07778e-06
5.14895e-05
-2.34855e-06
5.18338e-05
-2.63538e-06
5.22448e-05
-2.96081e-06
5.27075e-05
-3.18613e-06
5.32464e-05
-3.54604e-06
5.38285e-05
-3.61498e-06
5.44591e-05
-3.40814e-06
5.52783e-05
-4.22419e-06
5.63452e-05
-5.35626e-06
5.75831e-05
-5.5159e-06
5.90301e-05
-6.16995e-06
6.07099e-05
-6.42339e-06
6.26452e-05
-7.42073e-06
6.48106e-05
-7.813e-06
6.71602e-05
-8.94121e-06
6.96633e-05
-9.28172e-06
7.22487e-05
-1.04174e-05
7.49125e-05
-1.05152e-05
7.76706e-05
-1.22939e-05
7.95985e-05
-8.24859e-06
8.14265e-05
-8.78141e-06
8.3239e-05
-8.04457e-06
8.49719e-05
-8.02776e-06
8.67186e-05
-7.39457e-06
8.8487e-05
-7.4846e-06
9.02921e-05
-7.31133e-06
9.21543e-05
-7.57729e-06
9.40157e-05
-7.66711e-06
9.59132e-05
-7.94308e-06
9.78024e-05
-8.12547e-06
9.97006e-05
-8.38575e-06
0.000101609
-8.64813e-06
0.000103521
-8.94309e-06
0.000105452
-9.30241e-06
0.000107406
-9.67515e-06
0.000109376
-1.01363e-05
0.00011142
-1.06326e-05
0.000113483
-1.12874e-05
0.000115719
-1.19583e-05
0.000117998
-1.32905e-05
0.000120699
-1.45135e-05
0.00012336
-1.77007e-05
0.000127068
-2.29401e-05
-2.98576e-05
0.000129914
0.000123777
0.000105676
0.000123718
6.10137e-05
0.000121689
4.14511e-05
0.000118031
3.06512e-05
0.000114512
2.45119e-05
0.000110611
1.84423e-05
0.000107327
1.62027e-05
0.000104036
1.20094e-05
0.000101268
1.15557e-05
9.85731e-05
8.43491e-06
9.62688e-05
8.57673e-06
9.40309e-05
6.23847e-06
9.20879e-05
6.47036e-06
9.02071e-05
4.72016e-06
8.85449e-05
4.8937e-06
8.69544e-05
3.61368e-06
8.55199e-05
3.69044e-06
8.41728e-05
2.7751e-06
8.29341e-05
2.76112e-06
8.17941e-05
2.12102e-06
8.07283e-05
2.05406e-06
7.97631e-05
1.61069e-06
7.88481e-05
1.52276e-06
7.79879e-05
1.44105e-06
7.72061e-05
1.12692e-06
7.64335e-05
1.23311e-06
7.56628e-05
1.73033e-06
7.51635e-05
1.6221e-07
7.47317e-05
-5.06165e-07
7.42152e-05
3.20222e-07
7.36801e-05
4.65691e-07
7.3162e-05
5.33919e-07
7.27117e-05
2.65204e-07
7.23332e-05
-5.49056e-08
7.19928e-05
-1.79618e-07
7.16912e-05
-3.18287e-07
7.14386e-05
-4.9716e-07
7.12411e-05
-7.23855e-07
7.10963e-05
-9.47631e-07
7.09988e-05
-1.16531e-06
7.09483e-05
-1.38478e-06
7.09505e-05
-1.64542e-06
7.10114e-05
-1.93823e-06
7.11388e-05
-2.26898e-06
7.13351e-05
-2.61326e-06
7.16128e-05
-2.98715e-06
7.19875e-05
-3.4161e-06
7.24487e-05
-3.73472e-06
7.30305e-05
-4.22189e-06
7.36962e-05
-4.3791e-06
7.44707e-05
-4.28141e-06
7.5535e-05
-5.37773e-06
7.69441e-05
-6.8367e-06
7.8591e-05
-7.19524e-06
8.04973e-05
-8.0656e-06
8.26982e-05
-8.55201e-06
8.51778e-05
-9.78258e-06
8.79048e-05
-1.03722e-05
9.07895e-05
-1.16572e-05
9.38079e-05
-1.21168e-05
9.68649e-05
-1.33476e-05
9.99923e-05
-1.35175e-05
0.000103186
-1.54418e-05
0.000105402
-1.03986e-05
0.000107489
-1.08496e-05
0.000109559
-1.00509e-05
0.000111545
-9.95063e-06
0.000113556
-9.29251e-06
0.00011559
-9.36875e-06
0.000117668
-9.22186e-06
0.000119806
-9.50715e-06
0.000121944
-9.62736e-06
0.000124112
-9.91651e-06
0.000126265
-1.01223e-05
0.00012842
-1.03913e-05
0.000130578
-1.06742e-05
0.000132736
-1.09877e-05
0.000134909
-1.13691e-05
0.00013711
-1.17882e-05
0.000139328
-1.22778e-05
0.000141632
-1.28754e-05
0.000143958
-1.3572e-05
0.000146481
-1.44457e-05
0.000149044
-1.58375e-05
0.00015206
-1.75091e-05
0.000155027
-2.06701e-05
0.000158804
-2.67451e-05
-3.28972e-05
0.000161859
0.000148429
0.000104149
0.000149952
6.02511e-05
0.000150391
4.20171e-05