/*--------------------------------*- C++ -*----------------------------------*\
| =========                 |                                                 |
| \\      /  F ield         | OpenFOAM: The Open Source CFD Toolbox           |
|  \\    /   O peration     | Version:  2306                                  |
|   \\  /    A nd           | Website:  www.openfoam.com                      |
|    \\/     M anipulation  |                                                 |
\*---------------------------------------------------------------------------*/
FoamFile
{
    version     2.0;
    format      ascii;
    arch        "LSB;label=32;scalar=64";
    class       volSymmTensorField;
    location    "900";
    object      turbulenceProperties:devReff;
}
// * * * * * * * * * * * * * * * * * * * * * * * * * * * * * * * * * * * * * //

dimensions      [0 2 -2 0 0 0 0];

internalField   nonuniform List<symmTensor> 
20540
(
(-0.00125982 -0.0210903 -0 0.001258 -0 1.82689e-06)
(0.0118135 0.0260085 -0 -0.0117909 -0 -2.26196e-05)
(-0.00125183 -0.0649017 -0 0.00125108 -0 7.46192e-07)
(0.0101853 0.0907714 -0 -0.0102084 -0 2.31142e-05)
(-0.00122367 -0.113487 -0 0.00122357 -0 1.00727e-07)
(0.0084182 0.173961 -0 -0.00844022 -0 2.20223e-05)
(-0.00116365 -0.167431 -0 0.00116314 -0 5.12906e-07)
(0.00660016 0.262379 -0 -0.0066187 -0 1.85442e-05)
(-0.00106266 -0.223238 -0 0.0010623 -0 3.67037e-07)
(0.00479639 0.344533 -0 -0.0048184 -0 2.20119e-05)
(-0.000910876 -0.273997 -0 0.000910562 -0 3.14544e-07)
(0.00307716 0.408085 -0 -0.00310355 -0 2.6387e-05)
(-0.000704316 -0.309541 -0 0.000703201 -0 1.1151e-06)
(0.00153936 0.438232 -0 -0.00156923 -0 2.98633e-05)
(-0.000451623 -0.318381 -0 0.000448193 -0 3.43042e-06)
(0.000301049 0.420538 -0 -0.000334588 -0 3.35397e-05)
(-0.000182642 -0.292324 -0 0.00017577 -0 6.87217e-06)
(-0.000519396 0.347294 -0 0.000479965 -0 3.94314e-05)
(4.79826e-05 -0.232443 -0 -5.74762e-05 -0 9.4936e-06)
(-0.000849563 0.227725 -0 0.000801904 -0 4.76592e-05)
(0.00017656 -0.152374 -0 -0.000186059 -0 9.49908e-06)
(-0.000735125 0.0955977 -0 0.000682054 -0 5.30706e-05)
(0.000173898 -0.0749439 -0 -0.000181767 -0 7.86829e-06)
(-0.000388049 -0.0011633 -0 0.000339293 -0 4.87561e-05)
(8.62587e-05 -0.0217276 -0 -9.3733e-05 -0 7.47439e-06)
(-0.000103368 -0.0348405 -0 6.47503e-05 -0 3.8618e-05)
(6.04088e-06 0.000231788 -0 -1.50594e-05 -0 9.01851e-06)
(-3.25e-05 -0.0232244 -0 -3.53899e-06 -0 3.60389e-05)
(-2.04461e-05 0.00231519 -0 1.00114e-05 -0 1.04347e-05)
(-8.2084e-05 -0.00549701 -0 4.17079e-05 -0 4.03761e-05)
(-1.7805e-05 0.000139511 -0 6.76274e-06 -0 1.10423e-05)
(-0.000119473 0.00062951 -0 7.78306e-05 -0 4.1642e-05)
(-1.44008e-05 -0.000416863 -0 3.02611e-06 -0 1.13747e-05)
(-0.000126521 0.000537054 -0 8.68214e-05 -0 3.97e-05)
(-1.37786e-05 -0.000232491 -0 2.23942e-06 -0 1.15392e-05)
(-0.000126166 9.97891e-05 -0 8.75912e-05 -0 3.85749e-05)
(-1.38425e-05 -0.000123911 -0 2.37641e-06 -0 1.1466e-05)
(-0.000124496 1.0643e-05 -0 8.57332e-05 -0 3.8763e-05)
(-1.40994e-05 -8.10119e-05 -0 2.75326e-06 -0 1.13461e-05)
(-0.000122107 -1.24255e-05 -0 8.288e-05 -0 3.92267e-05)
(-1.43407e-05 -5.29781e-05 -0 3.06914e-06 -0 1.12715e-05)
(-0.000119966 -1.95472e-05 -0 8.03235e-05 -0 3.96425e-05)
(-1.46088e-05 -3.47607e-05 -0 3.42416e-06 -0 1.11846e-05)
(-0.000118033 -2.27909e-05 -0 7.79495e-05 -0 4.00832e-05)
(-1.48898e-05 -2.34065e-05 -0 3.78715e-06 -0 1.11027e-05)
(-0.000116316 -2.43246e-05 -0 7.58002e-05 -0 4.0516e-05)
(-1.51976e-05 -1.60903e-05 -0 4.17817e-06 -0 1.10194e-05)
(-0.000114821 -2.49367e-05 -0 7.39223e-05 -0 4.0899e-05)
(-1.5509e-05 -1.12729e-05 -0 4.54414e-06 -0 1.09649e-05)
(-0.000113549 -2.48255e-05 -0 7.235e-05 -0 4.11987e-05)
(-1.60023e-05 -8.10597e-06 -0 5.23648e-06 -0 1.07658e-05)
(-0.000112406 -2.40273e-05 -0 7.09225e-05 -0 4.14835e-05)
(-1.71929e-05 -5.90564e-06 -0 7.28451e-06 -0 9.90838e-06)
(-0.000111885 -2.2627e-05 -0 7.06397e-05 -0 4.12457e-05)
(-1.82505e-05 -4.33487e-06 -0 9.02816e-06 -0 9.22238e-06)
(-0.000113914 -2.05304e-05 -0 7.53684e-05 -0 3.85456e-05)
(-1.73038e-05 -3.10362e-06 -0 6.7376e-06 -0 1.05662e-05)
(-0.000118384 -1.74727e-05 -0 8.48615e-05 -0 3.35221e-05)
(-1.6846e-05 -3.71847e-06 -0 5.4049e-06 -0 1.14411e-05)
(-0.000120049 -1.15169e-05 -0 8.86127e-05 -0 3.14363e-05)
(-1.8553e-05 -5.93285e-06 -0 8.55035e-06 -0 1.00027e-05)
(-0.000116708 -4.81562e-06 -0 8.20239e-05 -0 3.46846e-05)
(-1.94338e-05 -7.41634e-06 -0 1.01385e-05 -0 9.29527e-06)
(-0.000113288 2.39666e-07 -0 7.50209e-05 -0 3.82671e-05)
(-1.93801e-05 -7.06672e-06 -0 9.96102e-06 -0 9.41904e-06)
(-0.00011363 4.57412e-06 -0 7.54043e-05 -0 3.82259e-05)
(-1.82305e-05 -5.56102e-06 -0 7.66946e-06 -0 1.05611e-05)
(-0.000117177 8.63876e-06 -0 8.19536e-05 -0 3.52232e-05)
(-1.69138e-05 -5.2524e-06 -0 5.1357e-06 -0 1.17781e-05)
(-0.00011923 1.46495e-05 -0 8.53916e-05 -0 3.38387e-05)
(-1.7587e-05 -6.39509e-06 -0 6.72694e-06 -0 1.08601e-05)
(-0.000116256 2.11095e-05 -0 7.85073e-05 -0 3.77487e-05)
(-1.73647e-05 -7.5132e-06 -0 6.58519e-06 -0 1.07795e-05)
(-0.000111599 2.58902e-05 -0 6.81206e-05 -0 4.34782e-05)
(-1.57728e-05 -7.29324e-06 -0 3.72708e-06 -0 1.20457e-05)
(-0.000108664 2.93434e-05 -0 6.11444e-05 -0 4.75201e-05)
(-1.46472e-05 -5.43512e-06 -0 1.79767e-06 -0 1.28495e-05)
(-0.000106996 3.14058e-05 -0 5.66645e-05 -0 5.03315e-05)
(-1.37147e-05 -1.99942e-06 -0 2.30583e-07 -0 1.34841e-05)
(-0.000106116 3.22819e-05 -0 5.375e-05 -0 5.23655e-05)
(-1.29275e-05 4.32853e-06 -0 -1.07566e-06 -0 1.40032e-05)
(-0.000105941 3.15357e-05 -0 5.22419e-05 -0 5.36993e-05)
(-1.23059e-05 1.49522e-05 -0 -2.09177e-06 -0 1.43976e-05)
(-0.000106288 2.88687e-05 -0 5.17831e-05 -0 5.45044e-05)
(-1.17883e-05 3.25374e-05 -0 -2.93625e-06 -0 1.47246e-05)
(-0.000107083 2.3427e-05 -0 5.22012e-05 -0 5.4882e-05)
(-1.13027e-05 6.35177e-05 -0 -3.75853e-06 -0 1.50612e-05)
(-0.00010825 1.1691e-05 -0 5.33352e-05 -0 5.49149e-05)
(-1.0906e-05 0.000113324 -0 -4.46584e-06 -0 1.53718e-05)
(-0.000109475 -1.07388e-05 -0 5.46163e-05 -0 5.48589e-05)
(-1.08205e-05 0.000172751 -0 -4.64538e-06 -0 1.54659e-05)
(-0.000110313 -3.94668e-05 -0 5.52369e-05 -0 5.50761e-05)
(-1.07874e-05 0.000215433 -0 -4.78639e-06 -0 1.55738e-05)
(-0.000111268 -6.55123e-05 -0 5.62637e-05 -0 5.50039e-05)
(-1.06939e-05 0.000282348 -0 -5.11454e-06 -0 1.58085e-05)
(-0.00011229 -0.000231126 -0 5.71853e-05 -0 5.51044e-05)
(-1.19477e-05 0.000103283 -0 -3.89202e-06 -0 1.58397e-05)
(-0.000110864 -0.000683076 -0 5.40223e-05 -0 5.68419e-05)
(-1.56667e-05 -0.00152484 -0 -1.15345e-07 -0 1.57821e-05)
(-9.2547e-05 0.00142029 -0 3.48404e-05 -0 5.77066e-05)
(-7.72314e-06 -0.00323318 -0 -7.42428e-06 -0 1.51474e-05)
(-4.41833e-05 0.0133015 -0 -1.06961e-05 -0 5.48794e-05)
(4.37984e-05 0.00538 -0 -5.75563e-05 -0 1.37579e-05)
(-3.51553e-05 0.0321148 -0 -1.77667e-05 -0 5.2922e-05)
(0.00013591 0.0391101 -0 -0.000149031 -0 1.31214e-05)
(-0.000200872 0.0294359 -0 0.000141839 -0 5.9033e-05)
(0.000198574 0.101828 -0 -0.000212633 -0 1.40589e-05)
(-0.000536742 -0.0278564 -0 0.000469894 -0 6.68481e-05)
(0.000155603 0.180624 -0 -0.000170539 -0 1.49352e-05)
(-0.000825486 -0.139217 -0 0.000758983 -0 6.6503e-05)
(-7.83754e-06 0.25409 -0 -5.83286e-06 -0 1.36704e-05)
(-0.000808441 -0.268169 -0 0.000748642 -0 5.97986e-05)
(-0.000249102 0.303497 -0 0.000238613 -0 1.04892e-05)
(-0.000345802 -0.372871 -0 0.000293084 -0 5.27183e-05)
(-0.000509915 0.319805 -0 0.000502723 -0 7.19266e-06)
(0.000563503 -0.4296 -0 -0.000611263 -0 4.77602e-05)
(-0.000746527 0.304671 -0 0.000741477 -0 5.04993e-06)
(0.00183762 -0.435159 -0 -0.00188156 -0 4.3942e-05)
(-0.000937008 0.266665 -0 0.00093293 -0 4.07764e-06)
(0.00336777 -0.398645 -0 -0.00340747 -0 3.9703e-05)
(-0.00107621 0.216215 -0 0.00107244 -0 3.77006e-06)
(0.00505118 -0.333453 -0 -0.00508624 -0 3.50662e-05)
(-0.00116853 0.162117 -0 0.00116468 -0 3.84404e-06)
(0.00680564 -0.252682 -0 -0.00683927 -0 3.36328e-05)
(-0.00122307 0.110233 -0 0.00121921 -0 3.85585e-06)
(0.00856866 -0.167201 -0 -0.00860805 -0 3.93841e-05)
(-0.00125125 0.0634486 -0 0.00124909 -0 2.15672e-06)
(0.010269 -0.0873154 -0 -0.0102992 -0 3.01764e-05)
(-0.00125967 0.020756 -0 0.00125753 -0 2.14029e-06)
(0.0118407 -0.0250805 -0 -0.0118194 -0 -2.13212e-05)
(0.0158987 -3.4388 -0 -0.0158999 -0 1.26486e-06)
(0.000648878 -1.51771 -0 -0.000681072 -0 3.21936e-05)
(0.000149844 -1.16957 -0 -0.000164301 -0 1.44568e-05)
(8.12173e-05 -0.995043 -0 -8.68789e-05 -0 5.66159e-06)
(5.91141e-05 -0.894184 -0 -6.62929e-05 -0 7.17883e-06)
(3.84889e-05 -0.817598 -0 -3.80719e-05 -0 -4.17012e-07)
(3.41316e-05 -0.767626 -0 -3.84255e-05 -0 4.29388e-06)
(2.27788e-05 -0.724104 -0 -2.06992e-05 -0 -2.07956e-06)
(2.37321e-05 -0.692013 -0 -2.66497e-05 -0 2.91761e-06)
(1.63804e-05 -0.66225 -0 -1.37993e-05 -0 -2.58117e-06)
(1.87152e-05 -0.637606 -0 -2.01437e-05 -0 1.42844e-06)
(1.31868e-05 -0.614551 -0 -9.93882e-06 -0 -3.24796e-06)
(1.51023e-05 -0.594412 -0 -1.48447e-05 -0 -2.57508e-07)
(1.07438e-05 -0.576301 -0 -6.7583e-06 -0 -3.98553e-06)
(1.19459e-05 -0.559837 -0 -1.00293e-05 -0 -1.91658e-06)
(8.60338e-06 -0.545757 -0 -3.99925e-06 -0 -4.60413e-06)
(8.89641e-06 -0.532607 -0 -5.53344e-06 -0 -3.36297e-06)
(6.28018e-06 -0.522116 -0 -1.29854e-06 -0 -4.98165e-06)
(5.55544e-06 -0.512348 -0 -1.15651e-06 -0 -4.39893e-06)
(3.42087e-06 -0.50535 -0 1.59238e-06 -0 -5.01326e-06)
(1.87796e-06 -0.499127 -0 2.99591e-06 -0 -4.87387e-06)
(-8.79471e-09 -0.495431 -0 4.69084e-06 -0 -4.68205e-06)
(-2.09636e-06 -0.492867 -0 6.90836e-06 -0 -4.812e-06)
(-1.61752e-06 -0.492133 -0 5.60159e-06 -0 -3.98407e-06)
(-5.63442e-06 -0.489573 -0 9.77006e-06 -0 -4.13564e-06)
(-6.59436e-06 -0.494225 -0 9.97376e-06 -0 -3.37941e-06)
(1.70728e-05 -0.493336 -0 -1.53179e-05 -0 -1.75483e-06)
(-1.52643e-05 -0.467122 -0 1.79052e-05 -0 -2.64085e-06)
(-4.3135e-05 -0.507681 -0 4.73919e-05 -0 -4.2569e-06)
(-1.73159e-05 -0.516035 -0 1.96187e-05 -0 -2.3028e-06)
(-1.68384e-05 -0.524212 -0 1.91512e-05 -0 -2.31282e-06)
(-1.41456e-05 -0.53128 -0 1.60229e-05 -0 -1.87738e-06)
(-1.77114e-05 -0.536549 -0 2.0212e-05 -0 -2.50056e-06)
(-2.22495e-05 -0.547116 -0 2.54971e-05 -0 -3.24761e-06)
(-2.24345e-05 -0.556766 -0 2.6364e-05 -0 -3.92954e-06)
(-2.34471e-05 -0.566475 -0 2.79888e-05 -0 -4.5417e-06)
(-2.54129e-05 -0.576291 -0 3.0696e-05 -0 -5.28316e-06)
(-2.83693e-05 -0.586833 -0 3.44463e-05 -0 -6.07695e-06)
(-3.13275e-05 -0.598174 -0 3.80645e-05 -0 -6.73707e-06)
(-3.44555e-05 -0.61019 -0 4.20298e-05 -0 -7.57427e-06)
(-3.80899e-05 -0.622876 -0 4.63542e-05 -0 -8.26432e-06)
(-4.30511e-05 -0.636667 -0 5.22511e-05 -0 -9.20004e-06)
(-4.91742e-05 -0.651834 -0 5.92439e-05 -0 -1.00697e-05)
(-5.64523e-05 -0.668805 -0 6.77056e-05 -0 -1.12533e-05)
(-6.43832e-05 -0.687493 -0 7.68698e-05 -0 -1.24865e-05)
(-7.37902e-05 -0.70812 -0 8.77787e-05 -0 -1.39885e-05)
(-8.35336e-05 -0.731047 -0 9.92592e-05 -0 -1.57256e-05)
(-9.03932e-05 -0.755911 -0 0.000108417 -0 -1.80235e-05)
(-0.000103245 -0.78087 -0 0.000124016 -0 -2.07701e-05)
(-0.000100164 -0.811729 -0 0.000124116 -0 -2.39522e-05)
(-5.40954e-05 -0.833453 -0 7.65247e-05 -0 -2.24293e-05)
(-0.000112286 -0.84062 -0 0.000141461 -0 -2.91749e-05)
(-0.000196097 -0.893591 -0 0.000229827 -0 -3.37302e-05)
(-0.000184881 -0.942565 -0 0.00020346 -0 -1.85788e-05)
(-0.000222977 -0.991126 -0 0.000237473 -0 -1.44965e-05)
(-0.00022612 -1.0528 -0 0.000196736 -0 2.93834e-05)
(-0.000297703 -1.11269 -0 0.000268647 -0 2.90559e-05)
(-0.00029087 -1.19436 -0 0.000198255 -0 9.2615e-05)
(-0.00037084 -1.26884 -0 0.0003056 -0 6.52404e-05)
(-0.000341274 -1.36474 -0 0.000211538 -0 0.000129736)
(-0.000427535 -1.45017 -0 0.000373201 -0 5.43348e-05)
(-0.000326852 -1.55209 -0 0.000207424 -0 0.000119428)
(-0.000564539 -1.63154 -0 0.000558094 -0 6.44543e-06)
(-0.000499128 -1.75433 -0 0.000306285 -0 0.000192843)
(-0.000849372 -1.8385 -0 0.000976264 -0 -0.000126892)
(-0.000585753 -1.95059 -0 0.000404458 -0 0.000181296)
(-0.000851377 -2.04328 -0 0.000890188 -0 -3.88106e-05)
(-0.000639695 -2.15399 -0 0.000325889 -0 0.000313807)
(-0.000911213 -2.26448 -0 0.000702133 -0 0.00020908)
(-0.000873219 -2.38951 -0 0.000321262 -0 0.000551957)
(-0.0011348 -2.53153 -0 0.000576063 -0 0.000558738)
(-0.0012366 -2.67168 -0 0.000469302 -0 0.000767293)
(-0.00140342 -2.82809 -0 0.000607801 -0 0.000795615)
(-0.00148574 -2.96896 -0 0.000646516 -0 0.000839219)
(-0.00162356 -3.11947 -0 0.000828157 -0 0.000795402)
(-0.00174114 -3.26205 -0 0.000965928 -0 0.000775207)
(-0.002039 -3.4209 -0 0.0013816 -0 0.000657393)
(-0.00244454 -3.5862 -0 0.00183515 -0 0.000609395)
(-0.00304641 -3.78639 -0 0.00258292 -0 0.000463494)
(-0.00395764 -3.9951 -0 0.003577 -0 0.000380646)
(-0.00488051 -4.26447 -0 0.00463952 -0 0.000240999)
(-0.00650092 -4.51959 -0 0.00631956 -0 0.000181359)
(-0.00748262 -4.89138 -0 0.0075452 -0 -6.25808e-05)
(-0.0113277 -5.15832 -0 0.0111682 -0 0.000159463)
(-0.0109053 -5.79962 -0 0.0118411 -0 -0.000935774)
(-0.0277079 -5.85803 -0 0.0252602 -0 0.00244775)
(0.0358532 -7.80345 -0 -0.0185175 -0 -0.0173358)
(-0.424193 -4.27057 -2.01433e-18 0.401607 -0 0.0225862)
(0.0151647 -2.99919 -0 -0.0151846 -0 1.98869e-05)
(0.00175991 -1.50436 -0 -0.00175847 -0 -1.43573e-06)
(0.000445986 -1.15401 -0 -0.000452313 -0 6.32741e-06)
(0.000241596 -0.982229 -0 -0.000244226 -0 2.63074e-06)
(0.000163851 -0.883533 -0 -0.000169062 -0 5.21148e-06)
(0.000114051 -0.809779 -0 -0.00011146 -0 -2.59123e-06)
(9.38103e-05 -0.760992 -0 -9.7871e-05 -0 4.06069e-06)
(6.94297e-05 -0.719047 -0 -6.34653e-05 -0 -5.96438e-06)
(6.70803e-05 -0.687535 -0 -6.96113e-05 -0 2.53092e-06)
(5.08695e-05 -0.658739 -0 -4.28513e-05 -0 -8.01827e-06)
(5.43765e-05 -0.634736 -0 -5.51298e-05 -0 7.53261e-07)
(4.1011e-05 -0.612677 -0 -3.18977e-05 -0 -9.11332e-06)
(4.48204e-05 -0.59336 -0 -4.38664e-05 -0 -9.54001e-07)
(3.3038e-05 -0.576359 -0 -2.35158e-05 -0 -9.5222e-06)
(3.59293e-05 -0.560867 -0 -3.33007e-05 -0 -2.6286e-06)
(2.57223e-05 -0.547976 -0 -1.61895e-05 -0 -9.53278e-06)
(2.70967e-05 -0.53586 -0 -2.29294e-05 -0 -4.1673e-06)
(1.8176e-05 -0.526488 -0 -8.92122e-06 -0 -9.25482e-06)
(1.77825e-05 -0.517613 -0 -1.24304e-05 -0 -5.35205e-06)
(9.92332e-06 -0.51143 -0 -1.20426e-06 -0 -8.71906e-06)
(8.18537e-06 -0.505717 -0 -2.16019e-06 -0 -6.02518e-06)
(1.05889e-06 -0.502326 -0 6.90536e-06 -0 -7.96425e-06)
(-1.4327e-06 -0.499699 -0 7.54952e-06 -0 -6.11682e-06)
(-1.58275e-06 -0.498643 -0 8.73618e-06 -0 -7.15343e-06)
(-1.01648e-05 -0.49567 -0 1.62879e-05 -0 -6.12317e-06)
(-1.25516e-05 -0.499132 -0 1.90028e-05 -0 -6.45115e-06)
(4.77598e-05 -0.496951 -0 -4.01914e-05 -0 -7.56842e-06)
(-3.33267e-05 -0.477824 -0 3.61078e-05 -0 -2.7811e-06)
(-0.000103164 -0.507806 -0 0.000105949 -0 -2.78538e-06)
(-3.89844e-05 -0.514108 -0 4.37945e-05 -0 -4.81007e-06)
(-3.61548e-05 -0.519988 -0 3.98504e-05 -0 -3.69555e-06)
(-3.09862e-05 -0.525081 -0 3.48519e-05 -0 -3.86574e-06)
(-4.17409e-05 -0.52877 -0 4.54784e-05 -0 -3.73755e-06)
(-5.41096e-05 -0.53732 -0 5.70014e-05 -0 -2.89181e-06)
(-5.4233e-05 -0.545291 -0 5.70429e-05 -0 -2.80989e-06)
(-5.75426e-05 -0.553459 -0 6.06899e-05 -0 -3.14728e-06)
(-6.28583e-05 -0.561871 -0 6.64079e-05 -0 -3.54967e-06)
(-7.0477e-05 -0.571025 -0 7.45923e-05 -0 -4.11531e-06)
(-7.84111e-05 -0.580971 -0 8.3203e-05 -0 -4.79186e-06)
(-8.65995e-05 -0.591603 -0 9.22654e-05 -0 -5.66585e-06)
(-9.68268e-05 -0.602908 -0 0.000103491 -0 -6.66459e-06)
(-0.000110301 -0.61526 -0 0.000118243 -0 -7.9412e-06)
(-0.000127119 -0.628884 -0 0.000136453 -0 -9.33403e-06)
(-0.000146512 -0.644151 -0 0.000157622 -0 -1.11103e-05)
(-0.000167969 -0.660987 -0 0.000181214 -0 -1.32451e-05)
(-0.000193776 -0.679598 -0 0.000209804 -0 -1.60282e-05)
(-0.000221424 -0.70031 -0 0.000240144 -0 -1.87209e-05)
(-0.000242694 -0.723021 -0 0.000265085 -0 -2.23911e-05)
(-0.000283448 -0.745996 -0 0.000308029 -0 -2.45817e-05)
(-0.000285433 -0.774787 -0 0.000314243 -0 -2.88097e-05)
(-0.000197607 -0.796145 -0 0.000235842 -0 -3.82347e-05)
(-0.000362541 -0.808016 -0 0.000388445 -0 -2.59032e-05)
(-0.000592872 -0.856113 -0 0.000624296 -0 -3.14237e-05)
(-0.000580301 -0.901955 -0 0.000608775 -0 -2.8474e-05)
(-0.000659524 -0.945945 -0 0.000686009 -0 -2.64856e-05)
(-0.000707659 -1.00042 -0 0.000713735 -0 -6.07655e-06)
(-0.000826617 -1.05078 -0 0.000823154 -0 3.46367e-06)
(-0.00089092 -1.11955 -0 0.000848172 -0 4.27483e-05)
(-0.00101948 -1.18118 -0 0.00097893 -0 4.055e-05)
(-0.00108293 -1.26332 -0 0.000988009 -0 9.49161e-05)
(-0.00122888 -1.33774 -0 0.00116161 -0 6.72624e-05)
(-0.00125366 -1.43081 -0 0.00116677 -0 8.68995e-05)
(-0.00176722 -1.51135 -0 0.00176941 -0 -2.18716e-06)
(-0.00202202 -1.63137 -0 0.00181315 -0 0.000208872)
(-0.00263852 -1.71272 -0 0.00266316 -0 -2.46335e-05)
(-0.00256471 -1.81826 -0 0.00225339 -0 0.00031132)
(-0.00288652 -1.9036 -0 0.00276486 -0 0.000121665)
(-0.00290732 -2.00387 -0 0.00241476 -0 0.000492566)
(-0.00334188 -2.09753 -0 0.00293337 -0 0.000408505)
(-0.0035955 -2.20019 -0 0.00282761 -0 0.000767895)
(-0.00401462 -2.30906 -0 0.00332715 -0 0.000687477)
(-0.00422638 -2.41295 -0 0.00340524 -0 0.00082114)
(-0.00450228 -2.52634 -0 0.00381058 -0 0.000691693)
(-0.00463538 -2.6298 -0 0.00397176 -0 0.000663618)
(-0.00506695 -2.742 -0 0.00449423 -0 0.000572713)
(-0.00562972 -2.85334 -0 0.00502146 -0 0.000608255)
(-0.00660859 -2.97724 -0 0.00599291 -0 0.00061568)
(-0.00801707 -3.10662 -0 0.00727339 -0 0.000743671)
(-0.00960929 -3.25686 -0 0.00884086 -0 0.000768429)
(-0.0118922 -3.40583 -0 0.0110071 -0 0.000885065)
(-0.0137873 -3.58956 -0 0.0130577 -0 0.000729582)
(-0.0172045 -3.74723 -0 0.0163227 -0 0.000881735)
(-0.0185287 -3.97976 -0 0.0182424 -0 0.000286348)
(-0.0272749 -4.11489 -0 0.0262977 -0 0.000977145)
(-0.0212103 -4.49215 -0 0.0213783 -0 -0.000168009)
(-0.0688419 -4.47493 -0 0.0699303 -0 -0.00108839)
(0.033077 -5.34767 -0 -0.0394189 -0 0.00634187)
(-0.314738 -5.93865 1.61632e-18 0.316116 -0 -0.00137785)
(0.0141866 -2.55615 -0 -0.0142094 -0 2.27496e-05)
(0.00285932 -1.49826 -0 -0.00287224 -0 1.29162e-05)
(0.000820214 -1.15488 -0 -0.000839746 -0 1.95321e-05)
(0.000441354 -0.986536 -0 -0.000448911 -0 7.55725e-06)
(0.000303444 -0.888809 -0 -0.000316997 -0 1.3553e-05)
(0.000208744 -0.814677 -0 -0.000203106 -0 -5.63796e-06)
(0.000175356 -0.76523 -0 -0.000185716 -0 1.03595e-05)
(0.000126871 -0.723129 -0 -0.000115513 -0 -1.13571e-05)
(0.000125495 -0.691435 -0 -0.000133529 -0 8.03409e-06)
(9.2703e-05 -0.663296 -0 -7.87494e-05 -0 -1.39536e-05)
(0.000100898 -0.639458 -0 -0.000105071 -0 4.17294e-06)
(7.44383e-05 -0.618223 -0 -5.8383e-05 -0 -1.60554e-05)
(8.24767e-05 -0.598888 -0 -8.20669e-05 -0 -4.09819e-07)
(5.98284e-05 -0.582357 -0 -4.21191e-05 -0 -1.77093e-05)
(6.59437e-05 -0.566437 -0 -6.10237e-05 -0 -4.92007e-06)
(4.67672e-05 -0.553498 -0 -2.80294e-05 -0 -1.87378e-05)
(5.00932e-05 -0.540515 -0 -4.12449e-05 -0 -8.84825e-06)
(3.36432e-05 -0.530604 -0 -1.46773e-05 -0 -1.89659e-05)
(3.36744e-05 -0.52051 -0 -2.19482e-05 -0 -1.17262e-05)
(1.94641e-05 -0.513438 -0 -1.22663e-06 -0 -1.82375e-05)
(1.67965e-05 -0.50633 -0 -3.55713e-06 -0 -1.32394e-05)
(4.24846e-06 -0.501891 -0 1.23521e-05 -0 -1.66006e-05)
(-3.28648e-07 -0.497857 -0 1.37499e-05 -0 -1.34213e-05)
(-1.56972e-07 -0.495788 -0 1.44689e-05 -0 -1.43119e-05)
(-1.50803e-05 -0.491949 -0 2.72591e-05 -0 -1.21789e-05)
(-1.81466e-05 -0.494191 -0 2.97986e-05 -0 -1.1652e-05)
(7.63903e-05 -0.491193 -0 -6.75144e-05 -0 -8.87589e-06)
(-6.11306e-05 -0.480153 -0 7.15517e-05 -0 -1.04211e-05)
(-0.000168495 -0.500145 -0 0.000178713 -0 -1.02174e-05)
(-6.4576e-05 -0.505656 -0 7.1523e-05 -0 -6.94696e-06)
(-6.17797e-05 -0.510538 -0 6.92298e-05 -0 -7.45017e-06)
(-5.15427e-05 -0.514818 -0 5.78033e-05 -0 -6.26061e-06)
(-7.01273e-05 -0.517858 -0 7.70291e-05 -0 -6.90181e-06)
(-9.28437e-05 -0.524726 -0 0.000100071 -0 -7.22728e-06)
(-9.42997e-05 -0.531306 -0 0.000102547 -0 -8.24735e-06)
(-9.98121e-05 -0.537978 -0 0.000108774 -0 -8.962e-06)
(-0.000108991 -0.54484 -0 0.000118734 -0 -9.74287e-06)
(-0.000122382 -0.552355 -0 0.000133165 -0 -1.07829e-05)
(-0.000135937 -0.560646 -0 0.000147386 -0 -1.14498e-05)
(-0.000150164 -0.569623 -0 0.000162891 -0 -1.27271e-05)
(-0.000167029 -0.57926 -0 0.000180429 -0 -1.34e-05)
(-0.000189879 -0.589866 -0 0.000204757 -0 -1.48781e-05)
(-0.000218006 -0.601664 -0 0.00023387 -0 -1.58635e-05)
(-0.000251212 -0.615007 -0 0.000269125 -0 -1.79134e-05)
(-0.000287487 -0.629865 -0 0.000307407 -0 -1.992e-05)
(-0.000331217 -0.646416 -0 0.000354216 -0 -2.2999e-05)
(-0.000378504 -0.664907 -0 0.000404485 -0 -2.59806e-05)
(-0.000413956 -0.685379 -0 0.000445045 -0 -3.10891e-05)
(-0.000483184 -0.705873 -0 0.000518483 -0 -3.52992e-05)
(-0.000481014 -0.731313 -0 0.000521022 -0 -4.00082e-05)
(-0.000322369 -0.749978 -0 0.000363685 -0 -4.13153e-05)
(-0.000606219 -0.762438 -0 0.000656643 -0 -5.04244e-05)
(-0.000968375 -0.797563 -0 0.00101302 -0 -4.46491e-05)
(-0.000921884 -0.83543 -0 0.000919579 -0 2.30513e-06)
(-0.0010851 -0.871346 -0 0.00109436 -0 -9.26027e-06)
(-0.00110031 -0.91922 -0 0.000984721 -0 0.000115587)
(-0.00139316 -0.964879 -0 0.00131773 -0 7.54289e-05)
(-0.00142931 -1.03019 -0 0.00117893 -0 0.000250377)
(-0.0018038 -1.09055 -0 0.00168126 -0 0.000122537)
(-0.0018278 -1.17063 -0 0.00150722 -0 0.000320579)
(-0.00227176 -1.2436 -0 0.00219935 -0 7.24081e-05)
(-0.00215888 -1.33049 -0 0.00187931 -0 0.000279573)
(-0.00332686 -1.40835 -0 0.0033926 -0 -6.57362e-05)
(-0.00342733 -1.51879 -0 0.00287715 -0 0.000550186)
(-0.00468134 -1.58638 -0 0.00501997 -0 -0.000338634)
(-0.00410553 -1.66467 -0 0.00359796 -0 0.000507569)
(-0.00489855 -1.72634 -0 0.00503996 -0 -0.000141411)
(-0.00457666 -1.79681 -0 0.00388772 -0 0.000688942)
(-0.00551951 -1.85762 -0 0.00532399 -0 0.000195522)
(-0.00571139 -1.92415 -0 0.00478575 -0 0.00092564)
(-0.00668193 -1.99226 -0 0.00614603 -0 0.000535894)
(-0.00693703 -2.06191 -0 0.00588773 -0 0.0010493)
(-0.0077445 -2.14109 -0 0.00698632 -0 0.000758178)
(-0.00795112 -2.22036 -0 0.00693683 -0 0.00101429)
(-0.00884649 -2.30781 -0 0.00804132 -0 0.000805172)
(-0.00963908 -2.3946 -0 0.0087797 -0 0.000859381)
(-0.0109542 -2.48487 -0 0.0102493 -0 0.000704973)
(-0.0127802 -2.57007 -0 0.0121819 -0 0.000598296)
(-0.0145517 -2.65794 -0 0.0140962 -0 0.000455482)
(-0.0174781 -2.7336 -0 0.0172208 -0 0.000257234)
(-0.0193591 -2.82099 -0 0.0192768 -0 8.22665e-05)
(-0.0239271 -2.88372 -0 0.0238543 -0 7.27692e-05)
(-0.0246983 -2.98683 -0 0.0250642 -0 -0.000365909)
(-0.0362617 -3.02874 -0 0.0357307 -0 0.000530984)
(-0.0291589 -3.17285 -0 0.0302467 -0 -0.00108779)
(-0.074367 -3.22477 -0 0.0723347 -0 0.00203231)
(-0.0431542 -3.22185 -0 0.049397 -0 -0.00624278)
(-0.20351 -4.43018 -0 0.190714 -0 0.0127956)
(0.0129305 -2.10788 -0 -0.0129547 -0 2.41872e-05)
(0.00383562 -1.46514 -0 -0.00386378 -0 2.81605e-05)
(0.00125408 -1.13974 -0 -0.00127978 -0 2.56993e-05)
(0.000675594 -0.975256 -0 -0.000685946 -0 1.03518e-05)
(0.000462213 -0.879337 -0 -0.000479415 -0 1.72021e-05)
(0.000323329 -0.807423 -0 -0.000316532 -0 -6.79706e-06)
(0.000267461 -0.75824 -0 -0.000280657 -0 1.31961e-05)
(0.000198123 -0.717465 -0 -0.000183367 -0 -1.47555e-05)
(0.000190379 -0.685661 -0 -0.000200335 -0 9.95625e-06)
(0.00014452 -0.658508 -0 -0.000125748 -0 -1.87727e-05)
(0.000152482 -0.634692 -0 -0.000157355 -0 4.87223e-06)
(0.000116237 -0.61449 -0 -9.45552e-05 -0 -2.16816e-05)
(0.000125291 -0.595325 -0 -0.000124321 -0 -9.69969e-07)
(9.45035e-05 -0.579843 -0 -7.08028e-05 -0 -2.37006e-05)
(0.000101501 -0.564189 -0 -9.47577e-05 -0 -6.74375e-06)
(7.54808e-05 -0.552259 -0 -5.06299e-05 -0 -2.4851e-05)
(7.89339e-05 -0.539583 -0 -6.71084e-05 -0 -1.18256e-05)
(5.65213e-05 -0.530536 -0 -3.1518e-05 -0 -2.50033e-05)
(5.56086e-05 -0.520671 -0 -4.00566e-05 -0 -1.5552e-05)
(3.59924e-05 -0.51418 -0 -1.20127e-05 -0 -2.39797e-05)
(3.15553e-05 -0.507082 -0 -1.40777e-05 -0 -1.74776e-05)
(1.38536e-05 -0.502832 -0 7.9844e-06 -0 -2.1838e-05)
(7.0101e-06 -0.498457 -0 1.05782e-05 -0 -1.75883e-05)
(6.88778e-06 -0.496165 -0 1.2023e-05 -0 -1.89108e-05)
(-1.48472e-05 -0.492132 -0 3.11266e-05 -0 -1.62794e-05)
(-1.8361e-05 -0.493317 -0 3.41113e-05 -0 -1.57503e-05)
(9.24425e-05 -0.489494 -0 -7.70264e-05 -0 -1.54161e-05)
(-7.87067e-05 -0.485189 -0 9.0105e-05 -0 -1.13982e-05)
(-0.000211107 -0.495438 -0 0.00022131 -0 -1.0203e-05)
(-8.7261e-05 -0.499293 -0 9.71603e-05 -0 -9.8993e-06)
(-8.1561e-05 -0.502332 -0 9.12379e-05 -0 -9.6769e-06)
(-6.84724e-05 -0.504988 -0 7.72114e-05 -0 -8.739e-06)
(-9.39433e-05 -0.506815 -0 0.000103483 -0 -9.54002e-06)
(-0.000125637 -0.511386 -0 0.000135007 -0 -9.36962e-06)
(-0.000128551 -0.516122 -0 0.000138992 -0 -1.04419e-05)
(-0.000136756 -0.521011 -0 0.000148366 -0 -1.16101e-05)
(-0.000150249 -0.526127 -0 0.000163091 -0 -1.28416e-05)
(-0.000169986 -0.531811 -0 0.000184425 -0 -1.44381e-05)
(-0.000190567 -0.538226 -0 0.000206323 -0 -1.57561e-05)
(-0.000211917 -0.545319 -0 0.000229621 -0 -1.77042e-05)
(-0.000237278 -0.553061 -0 0.000256438 -0 -1.91606e-05)
(-0.000270924 -0.561669 -0 0.000292445 -0 -2.15212e-05)
(-0.000312612 -0.571327 -0 0.00033611 -0 -2.3498e-05)
(-0.000361517 -0.582327 -0 0.000388151 -0 -2.66335e-05)
(-0.000415279 -0.594677 -0 0.00044519 -0 -2.99108e-05)
(-0.000479391 -0.608513 -0 0.00051392 -0 -3.45291e-05)
(-0.000550115 -0.623969 -0 0.000589156 -0 -3.90413e-05)
(-0.000602482 -0.641405 -0 0.000648327 -0 -4.5844e-05)
(-0.000701429 -0.658856 -0 0.000751716 -0 -5.02868e-05)
(-0.000703311 -0.680632 -0 0.000760337 -0 -5.70259e-05)
(-0.000514674 -0.697717 -0 0.000582046 -0 -6.73717e-05)
(-0.000856459 -0.713551 -0 0.000918643 -0 -6.21844e-05)
(-0.00133916 -0.738852 -0 0.00139762 -0 -5.84584e-05)
(-0.00132606 -0.76986 -0 0.00134512 -0 -1.90571e-05)
(-0.00155081 -0.798865 -0 0.00157625 -0 -2.5442e-05)
(-0.00164604 -0.837623 -0 0.00156053 -0 8.55147e-05)
(-0.00204104 -0.873853 -0 0.00197963 -0 6.14083e-05)
(-0.00221405 -0.925354 -0 0.00200464 -0 0.000209414)
(-0.00268156 -0.973327 -0 0.00256913 -0 0.000112428)
(-0.00286251 -1.03622 -0 0.00259162 -0 0.000270895)
(-0.00334604 -1.09508 -0 0.00326937 -0 7.66746e-05)
(-0.0034044 -1.16433 -0 0.00319548 -0 0.000208917)
(-0.00482134 -1.23017 -0 0.00485993 -0 -3.85856e-05)
(-0.00534653 -1.30779 -0 0.00499544 -0 0.000351096)
(-0.00621856 -1.35835 -0 0.00639834 -0 -0.000179775)
(-0.00598906 -1.41354 -0 0.0056638 -0 0.000325252)
(-0.00643869 -1.46061 -0 0.00644345 -0 -4.76484e-06)
(-0.00647376 -1.50859 -0 0.00599125 -0 0.000482506)
(-0.00709153 -1.55002 -0 0.00680662 -0 0.000284907)
(-0.00766002 -1.59035 -0 0.0069478 -0 0.00071222)
(-0.00843714 -1.62801 -0 0.00787416 -0 0.000562973)
(-0.00911383 -1.66517 -0 0.00830766 -0 0.000806177)
(-0.00995421 -1.70295 -0 0.00927404 -0 0.000680175)
(-0.0105771 -1.74324 -0 0.00982915 -0 0.000747962)
(-0.0116024 -1.78518 -0 0.0109493 -0 0.000653072)
(-0.0126598 -1.82903 -0 0.0120025 -0 0.000657291)
(-0.0140135 -1.87356 -0 0.0134351 -0 0.000578431)
(-0.0158372 -1.91529 -0 0.0152675 -0 0.000569703)
(-0.0174945 -1.95707 -0 0.0170428 -0 0.000451739)
(-0.0202615 -1.98986 -0 0.0198 -0 0.000461502)
(-0.0219121 -2.02716 -0 0.0216936 -0 0.000218495)
(-0.026591 -2.04537 -0 0.0261869 -0 0.000404114)
(-0.0269776 -2.0832 -0 0.0271236 -0 -0.000146052)
(-0.0385207 -2.08711 -0 0.0378739 -0 0.00064678)
(-0.0338277 -2.10076 -0 0.0344472 -0 -0.00061955)
(-0.0675342 -2.17486 -0 0.0652453 -0 0.00228894)
(-0.0688865 -1.91978 -0 0.0791693 -0 -0.0102828)
(-0.13882 -2.40025 -0 0.122949 -0 0.015871)
(0.0113534 -1.66764 -0 -0.0113825 -0 2.90701e-05)
(0.00459132 -1.39887 -0 -0.00463096 -0 3.96373e-05)
(0.00174636 -1.11773 -0 -0.00178037 -0 3.40054e-05)
(0.000952095 -0.960861 -0 -0.000965829 -0 1.37337e-05)
(0.000651401 -0.867621 -0 -0.000674647 -0 2.32456e-05)
(0.000458352 -0.798366 -0 -0.000449162 -0 -9.19004e-06)
(0.000378312 -0.749429 -0 -0.00039608 -0 1.7768e-05)
(0.000281856 -0.710114 -0 -0.000261827 -0 -2.00291e-05)
(0.000268858 -0.678159 -0 -0.000282165 -0 1.33066e-05)
(0.000205014 -0.652136 -0 -0.000179472 -0 -2.55425e-05)
(0.00021405 -0.628336 -0 -0.000220383 -0 6.33368e-06)
(0.00016407 -0.609296 -0 -0.000134552 -0 -2.95187e-05)
(0.000175237 -0.590293 -0 -0.000173586 -0 -1.65111e-06)
(0.000133133 -0.575929 -0 -0.000100899 -0 -3.22334e-05)
(0.000141912 -0.560501 -0 -0.000132438 -0 -9.47486e-06)
(0.000106541 -0.549571 -0 -7.28226e-05 -0 -3.37187e-05)
(0.000110892 -0.537124 -0 -9.46084e-05 -0 -1.62836e-05)
(8.06699e-05 -0.528874 -0 -4.68494e-05 -0 -3.38205e-05)
(7.95099e-05 -0.519138 -0 -5.83166e-05 -0 -2.11932e-05)
(5.33064e-05 -0.513133 -0 -2.099e-05 -0 -3.23164e-05)
(4.77549e-05 -0.505951 -0 -2.4128e-05 -0 -2.36269e-05)
(2.43667e-05 -0.501809 -0 4.93311e-06 -0 -2.92998e-05)
(1.57302e-05 -0.49703 -0 7.86972e-06 -0 -2.35999e-05)
(1.50777e-05 -0.494472 -0 1.00782e-05 -0 -2.51559e-05)
(-1.25091e-05 -0.490265 -0 3.40156e-05 -0 -2.15065e-05)
(-1.49526e-05 -0.490401 -0 3.5791e-05 -0 -2.08384e-05)
(0.00010243 -0.485864 -0 -8.35269e-05 -0 -1.89035e-05)
(-9.59027e-05 -0.486209 -0 0.000112234 -0 -1.63311e-05)
(-0.000239779 -0.489009 -0 0.00025468 -0 -1.49016e-05)
(-0.000104851 -0.491143 -0 0.000117648 -0 -1.2797e-05)
(-9.63509e-05 -0.492469 -0 0.000108957 -0 -1.26065e-05)
(-8.04232e-05 -0.493557 -0 9.16206e-05 -0 -1.11974e-05)
(-0.000111324 -0.494215 -0 0.000123452 -0 -1.21288e-05)
(-0.000151828 -0.49648 -0 0.000163921 -0 -1.20932e-05)
(-0.000157572 -0.499248 -0 0.000170826 -0 -1.32545e-05)
(-0.000168348 -0.502227 -0 0.000182923 -0 -1.45743e-05)
(-0.000185732 -0.505444 -0 0.000201624 -0 -1.58923e-05)
(-0.000211419 -0.509126 -0 0.000229064 -0 -1.76449e-05)
(-0.00023883 -0.513462 -0 0.000257855 -0 -1.90248e-05)
(-0.000267394 -0.518446 -0 0.000288599 -0 -2.12053e-05)
(-0.000300904 -0.524048 -0 0.000323669 -0 -2.27648e-05)
(-0.00034486 -0.530393 -0 0.000370255 -0 -2.5395e-05)
(-0.000399349 -0.537618 -0 0.000426887 -0 -2.75382e-05)
(-0.000463438 -0.545939 -0 0.000494488 -0 -3.10504e-05)
(-0.000534046 -0.555389 -0 0.000568726 -0 -3.46801e-05)
(-0.000616955 -0.566061 -0 0.000656569 -0 -3.9614e-05)
(-0.000710569 -0.577923 -0 0.000754808 -0 -4.42392e-05)
(-0.000779469 -0.591574 -0 0.000830899 -0 -5.14304e-05)
(-0.000907313 -0.605154 -0 0.000963133 -0 -5.58197e-05)
(-0.000917195 -0.622035 -0 0.000979605 -0 -6.241e-05)
(-0.000718501 -0.63608 -0 0.000788547 -0 -7.00462e-05)
(-0.00110021 -0.652922 -0 0.00117039 -0 -7.01742e-05)