/*--------------------------------*- C++ -*----------------------------------*\
| =========                 |                                                 |
| \\      /  F ield         | OpenFOAM: The Open Source CFD Toolbox           |
|  \\    /   O peration     | Version:  2306                                  |
|   \\  /    A nd           | Website:  www.openfoam.com                      |
|    \\/     M anipulation  |                                                 |
\*---------------------------------------------------------------------------*/
FoamFile
{
    version     2.0;
    format      ascii;
    arch        "LSB;label=32;scalar=64";
    class       volVectorField;
    location    "900";
    object      U;
}
// * * * * * * * * * * * * * * * * * * * * * * * * * * * * * * * * * * * * * //

dimensions      [0 1 -1 0 0 0 0];

internalField   nonuniform List<vector> 
20540
(
(29.9761 -0.00053408 0)
(58.7383 0.00528919 0)
(30.0553 -0.00171234 0)
(58.6406 0.0156963 0)
(30.2543 -0.00312677 0)
(58.3464 0.0263447 0)
(30.6372 -0.00477727 0)
(57.7464 0.0367137 0)
(31.287 -0.006645 0)
(56.728 0.0462311 0)
(32.2962 -0.00865549 0)
(55.1892 0.0541806 0)
(33.7409 -0.010651 0)
(53.0807 0.0597885 0)
(35.636 -0.0123683 0)
(50.4738 0.0624142 0)
(37.8762 -0.0134569 0)
(47.64 0.0618584 0)
(40.2008 -0.0135945 0)
(45.0864 0.0587371 0)
(42.2316 -0.0127303 0)
(43.4305 0.0546556 0)
(43.6153 -0.0113112 0)
(43.0237 0.0516664 0)
(44.2264 -0.0101369 0)
(43.5507 0.0508532 0)
(44.2885 -0.00969098 0)
(44.1977 0.0513551 0)
(44.2029 -0.00969321 0)
(44.4505 0.0516309 0)
(44.1813 -0.00967909 0)
(44.4405 0.0512612 0)
(44.1981 -0.00955645 0)
(44.4104 0.0505269 0)
(44.2105 -0.00937505 0)
(44.403 0.0495541 0)
(44.2175 -0.00915013 0)
(44.4008 0.0483888 0)
(44.223 -0.00889682 0)
(44.4003 0.0470834 0)
(44.2273 -0.00860239 0)
(44.4003 0.0456101 0)
(44.2306 -0.00826471 0)
(44.4008 0.0439511 0)
(44.2332 -0.00787906 0)
(44.4016 0.0420831 0)
(44.2353 -0.00743997 0)
(44.4029 0.0399749 0)
(44.2369 -0.00694662 0)
(44.4045 0.0375797 0)
(44.2382 -0.00638022 0)
(44.4065 0.0348337 0)
(44.2393 -0.00585359 0)
(44.4088 0.0317037 0)
(44.2401 -0.00579501 0)
(44.4116 0.027697 0)
(44.2409 -0.00580359 0)
(44.4146 0.0207339 0)
(44.2415 -0.00430772 0)
(44.4178 0.0092378 0)
(44.2435 -0.00340062 0)
(44.4194 -0.00222007 0)
(44.2465 -0.00369717 0)
(44.4199 -0.0102765 0)
(44.2501 -0.00374385 0)
(44.4194 -0.0171808 0)
(44.2532 -0.00391778 0)
(44.4184 -0.02541 0)
(44.256 -0.0025587 0)
(44.4168 -0.0362672 0)
(44.2591 -0.00130471 0)
(44.4139 -0.0457147 0)
(44.2623 -0.00105057 0)
(44.4104 -0.0506488 0)
(44.2652 -0.000166792 0)
(44.4069 -0.0529787 0)
(44.2674 0.000904989 0)
(44.4036 -0.0539999 0)
(44.2687 0.00201052 0)
(44.4008 -0.0542948 0)
(44.2692 0.00308322 0)
(44.3985 -0.0542577 0)
(44.2685 0.00407657 0)
(44.3968 -0.0541063 0)
(44.2666 0.00496568 0)
(44.3958 -0.0539491 0)
(44.2631 0.00575451 0)
(44.3957 -0.0538478 0)
(44.2574 0.00645325 0)
(44.3967 -0.0538183 0)
(44.249 0.00706013 0)
(44.3993 -0.0538284 0)
(44.2391 0.00755733 0)
(44.4029 -0.053828 0)
(44.2297 0.00798764 0)
(44.4068 -0.0538805 0)
(44.2182 0.00835113 0)
(44.4207 -0.0539086 0)
(44.222 0.00861476 0)
(44.4494 -0.0538044 0)
(44.2918 0.00877481 0)
(44.3587 -0.0533454 0)
(44.3623 0.00908975 0)
(43.9068 -0.0524254 0)
(44.126 0.0100055 0)
(43.2226 -0.0520234 0)
(43.248 0.0114714 0)
(42.9834 -0.0534955 0)
(41.651 0.0128427 0)
(43.8195 -0.0568772 0)
(39.545 0.0134653 0)
(45.7716 -0.0606478 0)
(37.2776 0.0131017 0)
(48.3901 -0.0629594 0)
(35.17 0.0119032 0)
(51.1188 -0.0626179 0)
(33.4224 0.0101878 0)
(53.5519 -0.0592947 0)
(32.1016 0.00826152 0)
(55.4909 -0.0532915 0)
(31.1801 0.00634547 0)
(56.8981 -0.0452275 0)
(30.584 0.00457178 0)
(57.8291 -0.0357973 0)
(30.2299 0.00300415 0)
(58.3795 -0.0256248 0)
(30.0437 0.00165777 0)
(58.6509 -0.0152287 0)
(29.9684 0.000515597 0)
(58.7419 -0.00513748 0)
(3.11012 0.0068737 0)
(1.30452 0.000105781 0)
(1.01326 4.14058e-05 0)
(0.864269 1.67354e-05 0)
(0.776806 2.39957e-05 0)
(0.708067 1.01568e-06 0)
(0.663853 1.50313e-05 0)
(0.62484 -2.13891e-06 0)
(0.596914 1.14816e-05 0)
(0.570963 -1.55509e-06 0)
(0.549571 7.44992e-06 0)
(0.529426 -2.63846e-06 0)
(0.511501 2.51022e-06 0)
(0.495151 -4.85019e-06 0)
(0.479838 -1.98241e-06 0)
(0.466421 -6.90154e-06 0)
(0.453487 -5.5409e-06 0)
(0.442819 -8.30681e-06 0)
(0.432624 -8.12876e-06 0)
(0.42501 -8.87568e-06 0)
(0.418111 -9.68023e-06 0)
(0.413778 -8.64375e-06 0)
(0.41063 -1.05519e-05 0)
(0.409563 -7.24749e-06 0)
(0.407148 -8.21408e-06 0)
(0.411576 -5.85849e-06 0)
(0.411652 9.70505e-06 0)
(0.387076 -1.79652e-05 0)
(0.426586 -2.46553e-05 0)
(0.435492 -4.19341e-06 0)
(0.444389 -8.63561e-06 0)
(0.452111 -4.31096e-06 0)
(0.457931 -6.27463e-06 0)
(0.468165 -1.10085e-05 0)
(0.477373 -1.34453e-05 0)
(0.486394 -1.38335e-05 0)
(0.495316 -1.47209e-05 0)
(0.50479 -1.58921e-05 0)
(0.514944 -1.58826e-05 0)
(0.525655 -1.66246e-05 0)
(0.536922 -1.56507e-05 0)
(0.549144 -1.57423e-05 0)
(0.562606 -1.47102e-05 0)
(0.577727 -1.50431e-05 0)
(0.594444 -1.43192e-05 0)
(0.61295 -1.38038e-05 0)
(0.63355 -1.36167e-05 0)
(0.655689 -1.39247e-05 0)
(0.677536 -1.77947e-05 0)
(0.7039 -1.18064e-05 0)
(0.720714 4.11835e-05 0)
(0.721415 -3.61701e-05 0)
(0.763482 -2.36385e-05 0)
(0.803406 7.56385e-05 0)
(0.844341 4.40448e-05 0)
(0.900812 0.000260215 0)
(0.959661 0.000131468 0)
(1.04252 0.000424955 0)
(1.12051 0.000142137 0)
(1.21829 0.000465611 0)
(1.30404 -1.46163e-05 0)
(1.39883 0.000497415 0)
(1.46581 -0.000107581 0)
(1.57494 0.000876793 0)
(1.64231 -0.000703552 0)
(1.72767 0.000708536 0)
(1.79739 -0.000507718 0)
(1.88311 0.000855274 0)
(1.97125 -0.000165531 0)
(2.07702 0.000931598 0)
(2.20582 0.000242347 0)
(2.34257 0.00113034 0)
(2.50426 0.000793799 0)
(2.65498 0.00135708 0)
(2.81781 0.0010818 0)
(2.96592 0.00118164 0)
(3.12481 0.000810646 0)
(3.27918 0.000416916 0)
(3.46143 6.07111e-05 0)
(3.64778 -0.000725094 0)
(3.89337 -0.000752267 0)
(4.13454 -0.00165688 0)
(4.49428 -0.00134518 0)
(4.77428 -0.0018657 0)
(5.42401 -0.00484446 0)
(5.56219 0.00979352 0)
(7.60593 -0.0459296 0)
(2.01331 -0.166022 0)
(9.15017 0.0215389 0)
(4.12084 0.00121118 0)
(3.16591 0.000285525 0)
(2.69082 0.000153498 0)
(2.4179 0.000108914 0)
(2.21348 6.94676e-05 0)
(2.07932 6.2021e-05 0)
(1.9631 3.75456e-05 0)
(1.87638 4.16224e-05 0)
(1.79601 2.2943e-05 0)
(1.72935 3.14889e-05 0)
(1.66715 1.57538e-05 0)
(1.61322 2.43506e-05 0)
(1.56499 1.10732e-05 0)
(1.52169 1.76296e-05 0)
(1.48505 7.21333e-06 0)
(1.45132 1.0778e-05 0)
(1.42484 3.13401e-06 0)
(1.40049 3.746e-06 0)
(1.38342 -1.66481e-06 0)
(1.3684 -3.06493e-06 0)
(1.35976 -7.14083e-06 0)
(1.35395 -9.23987e-06 0)
(1.35248 -9.22942e-06 0)
(1.34579 -1.61709e-05 0)
(1.3579 -1.79831e-05 0)
(1.35447 1.3724e-05 0)
(1.28577 -1.68417e-05 0)
(1.39027 -6.71434e-05 0)
(1.41087 -3.60842e-05 0)
(1.43081 -2.98516e-05 0)
(1.448 -2.83924e-05 0)
(1.46075 -3.50518e-05 0)
(1.48805 -4.06504e-05 0)
(1.51314 -4.06104e-05 0)
(1.53869 -4.43407e-05 0)
(1.56475 -4.97419e-05 0)
(1.59288 -5.68564e-05 0)
(1.62318 -6.49005e-05 0)
(1.65534 -7.30195e-05 0)
(1.68935 -8.36121e-05 0)
(1.72635 -9.63294e-05 0)
(1.76701 -0.00011234 0)
(1.81245 -0.000130046 0)
(1.86239 -0.000150442 0)
(1.91746 -0.000174367 0)
(1.97863 -0.000199409 0)
(2.04521 -0.000220544 0)
(2.1125 -0.000250306 0)
(2.19648 -0.000263712 0)
(2.25772 -0.000235605 0)
(2.28378 -0.000276609 0)
(2.43179 -0.000466227 0)
(2.56739 -0.000508376 0)
(2.70022 -0.000526351 0)
(2.86347 -0.000628991 0)
(3.01717 -0.000608867 0)
(3.22362 -0.000712416 0)
(3.40895 -0.000623217 0)
(3.65073 -0.000716843 0)
(3.86781 -0.000580983 0)
(4.13584 -0.000766948 0)
(4.35314 -0.000905566 0)
(4.68222 -0.00127366 0)
(4.91676 -0.00122005 0)
(5.23437 -0.00127612 0)
(5.49808 -0.00112998 0)
(5.8101 -0.00105733 0)
(6.11834 -0.000725451 0)
(6.45988 -0.000693856 0)
(6.83737 -0.000325701 0)
(7.19816 -0.000807936 0)
(7.5899 -0.000607662 0)
(7.93652 -0.0012799 0)
(8.3047 -0.00137018 0)
(8.6609 -0.00178754 0)
(9.06521 -0.00234035 0)
(9.49914 -0.00280569 0)
(10.0304 -0.00405262 0)
(10.5886 -0.00512393 0)
(11.303 -0.00734809 0)
(11.9692 -0.00951998 0)
(12.9301 -0.0126562 0)
(13.5938 -0.0184117 0)
(15.2155 -0.0181279 0)
(15.269 -0.0546774 0)
(20.1053 0.0577809 0)
(13.6716 -0.510763 0)
(15.4671 0.038331 0)
(7.54739 0.00386459 0)
(5.80386 0.00103189 0)
(4.94295 0.000548725 0)
(4.44605 0.000402004 0)
(4.07075 0.000233927 0)
(3.82378 0.000236688 0)
(3.61042 0.000120137 0)
(3.45169 0.000169012 0)
(3.30635 7.24211e-05 0)
(3.18541 0.000129332 0)
(3.07389 4.52529e-05 0)
(2.97577 9.5394e-05 0)
(2.88888 2.3593e-05 0)
(2.80906 6.3568e-05 0)
(2.74195 5.25717e-06 0)
(2.67835 3.36499e-05 0)
(2.62843 -1.1464e-05 0)
(2.58088 5.45751e-06 0)
(2.54717 -2.74559e-05 0)
(2.51602 -1.9846e-05 0)
(2.49718 -4.27314e-05 0)
(2.48266 -4.18665e-05 0)
(2.47688 -4.2921e-05 0)
(2.46186 -5.74463e-05 0)
(2.4804 -6.11276e-05 0)
(2.47131 8.29568e-05 0)
(2.3691 -0.000106527 0)
(2.53117 -0.000262707 0)
(2.56626 -0.000107898 0)
(2.59954 -0.000103089 0)
(2.62842 -8.71975e-05 0)
(2.64954 -0.000112021 0)
(2.69503 -0.000140824 0)
(2.73712 -0.000143688 0)
(2.77978 -0.000152425 0)
(2.82332 -0.000166267 0)
(2.87046 -0.000186065 0)
(2.92157 -0.00020546 0)
(2.97608 -0.000227222 0)
(3.03392 -0.000251588 0)
(3.09706 -0.000285435 0)
(3.1667 -0.000325352 0)
(3.24482 -0.000374156 0)
(3.33104 -0.000427433 0)
(3.42642 -0.00049305 0)
(3.53259 -0.000562596 0)
(3.64858 -0.000623518 0)
(3.76526 -0.00072447 0)
(3.91032 -0.00073813 0)
(4.01483 -0.00052326 0)
(4.06414 -0.000926827 0)
(4.30247 -0.00142011 0)
(4.53056 -0.00124922 0)
(4.75205 -0.00145457 0)
(5.03359 -0.00118816 0)
(5.30131 -0.00157498 0)
(5.67062 -0.00116582 0)
(6.00605 -0.00182863 0)
(6.44674 -0.00131482 0)
(6.843 -0.00238137 0)
(7.32422 -0.00169005 0)
(7.72556 -0.00396395 0)
(8.3337 -0.0023159 0)
(8.73557 -0.00669985 0)
(9.25163 -0.00328613 0)
(9.66832 -0.00638054 0)
(10.1621 -0.00310936 0)
(10.6295 -0.00578268 0)
(11.1521 -0.00340561 0)
(11.7233 -0.00563384 0)
(12.285 -0.00433227 0)
(12.9135 -0.00599602 0)
(13.4931 -0.00560347 0)
(14.1226 -0.00731066 0)
(14.7328 -0.0082191 0)
(15.403 -0.0107415 0)
(16.0865 -0.0137378 0)
(16.878 -0.017411 0)
(17.6631 -0.0227922 0)
(18.645 -0.0273691 0)
(19.5133 -0.035078 0)
(20.8033 -0.0397554 0)
(21.6166 -0.0559046 0)
(23.777 -0.0509954 0)
(23.8512 -0.137986 0)
(29.2915 0.0362532 0)
(26.6496 -0.814825 0)
(21.8718 0.057121 0)
(11.6354 0.00858188 0)
(8.9589 0.00248993 0)
(7.63966 0.00132479 0)
(6.87669 0.000955659 0)
(6.30075 0.000577535 0)
(5.91853 0.000564121 0)
(5.59132 0.000306402 0)
(5.34554 0.000403862 0)
(5.12417 0.000190598 0)
(4.9379 0.000311125 0)
(4.76936 0.000125866 0)
(4.61844 0.00023381 0)
(4.48748 7.55156e-05 0)
(4.36436 0.000162144 0)
(4.26301 3.3153e-05 0)
(4.1642 9.49937e-05 0)
(4.08817 -5.58743e-06 0)
(4.01322 3.14729e-05 0)
(3.96078 -4.29945e-05 0)
(3.91008 -2.61482e-05 0)
(3.87919 -7.92264e-05 0)
(3.85303 -7.70521e-05 0)
(3.8411 -8.12412e-05 0)
(3.81506 -0.000115873 0)
(3.83814 -0.000122823 0)
(3.81943 0.000160318 0)
(3.69709 -0.000223259 0)
(3.89937 -0.00054523 0)
(3.94721 -0.000236626 0)
(3.99118 -0.000225176 0)
(4.02945 -0.00019208 0)
(4.05714 -0.000249516 0)
(4.11837 -0.000314452 0)
(4.17605 -0.000323409 0)
(4.23467 -0.000345162 0)
(4.29478 -0.000378304 0)
(4.36022 -0.000425267 0)
(4.43172 -0.000471837 0)
(4.50852 -0.000523203 0)
(4.59048 -0.000580943 0)
(4.68028 -0.000660134 0)
(4.7797 -0.000753828 0)
(4.8916 -0.000867512 0)
(5.01559 -0.000991707 0)
(5.15315 -0.00114396 0)
(5.3065 -0.00130598 0)
(5.47521 -0.00144425 0)
(5.64476 -0.00167242 0)
(5.85573 -0.00170569 0)
(6.01046 -0.00128805 0)
(6.10011 -0.00208297 0)
(6.4222 -0.00317221 0)
(6.74648 -0.00287328 0)
(7.05808 -0.00336395 0)
(7.4596 -0.00289974 0)
(7.84029 -0.00381958 0)
(8.37149 -0.0031686 0)
(8.85705 -0.00465312 0)
(9.49715 -0.00385183 0)
(10.0776 -0.00604735 0)
(10.7784 -0.00496875 0)
(11.385 -0.00976619 0)
(12.2624 -0.00744859 0)
(12.8333 -0.014794 0)
(13.5395 -0.00934566 0)
(14.11 -0.014265 0)
(14.7711 -0.00941586 0)
(15.3802 -0.0137557 0)
(16.0493 -0.0107311 0)
(16.7605 -0.0146268 0)
(17.4619 -0.0133628 0)
(18.2391 -0.0165899 0)
(18.9724 -0.0166458 0)
(19.7664 -0.0200062 0)
(20.5462 -0.0222004 0)
(21.3909 -0.0268021 0)
(22.2407 -0.0323398 0)
(23.2003 -0.0387299 0)
(24.1268 -0.0480273 0)
(25.2654 -0.0558877 0)
(26.2339 -0.0695015 0)
(27.6927 -0.0768441 0)
(28.555 -0.107263 0)
(30.8582 -0.0973286 0)
(31.1863 -0.230367 0)
(35.9107 -0.090579 0)
(35.4378 -0.935839 0)
(28.1364 0.0775298 0)
(16.4298 0.0158114 0)
(12.7188 0.0050653 0)
(10.8605 0.00270033 0)
(9.78181 0.00193656 0)
(8.97052 0.00119137 0)
(8.42497 0.00114473 0)
(7.96443 0.000641507 0)
(7.61253 0.000818729 0)
(7.30263 0.000403202 0)
(7.03708 0.000630419 0)
(6.80321 0.000270565 0)
(6.58877 0.000476363 0)
(6.4082 0.000169263 0)
(6.2334 0.000335437 0)
(6.09417 8.50913e-05 0)
(5.95368 0.000204535 0)
(5.8491 8.95706e-06 0)
(5.74172 8.14506e-05 0)
(5.66878 -6.39734e-05 0)
(5.59455 -2.98247e-05 0)
(5.54999 -0.000134202 0)
(5.50883 -0.000128108 0)
(5.4891 -0.000137703 0)
(5.44958 -0.000202762 0)
(5.47505 -0.00021392 0)
(5.44255 0.000271514 0)
(5.31595 -0.000419424 0)
(5.53772 -0.000972965 0)
(5.59575 -0.000436747 0)
(5.64701 -0.000412908 0)
(5.69157 -0.000350885 0)
(5.72346 -0.000458854 0)
(5.79604 -0.000584291 0)
(5.86633 -0.000602689 0)
(5.93815 -0.000643735 0)
(6.01222 -0.000706565 0)
(6.09331 -0.000796882 0)
(6.18278 -0.000887747 0)
(6.27977 -0.000987213 0)
(6.38403 -0.00109856 0)
(6.49879 -0.00125042 0)
(6.62639 -0.00143076 0)
(6.77055 -0.00164936 0)
(6.93095 -0.00188824 0)
(7.10946 -0.00217949 0)
(7.30849 -0.00249471 0)
(7.52932 -0.00275869 0)
(7.75092 -0.00319138 0)
(8.02692 -0.00325198 0)
(8.23448 -0.00252141 0)
(8.38059 -0.00394445 0)
(8.76953 -0.00589238 0)
(9.18358 -0.00544289 0)
(9.57899 -0.00637788 0)
(10.093 -0.00573188 0)
(10.5779 -0.00748005 0)
(11.2556 -0.0067128 0)
(11.8785 -0.00940191 0)
(12.6954 -0.00849642 0)
(13.4443 -0.0122245 0)
(14.3399 -0.0109292 0)
(15.1358 -0.0190289 0)
(16.2035 -0.0166764 0)
(16.906 -0.0268668 0)
(17.749 -0.0197597 0)
(18.4464 -0.0261597 0)
(19.224 -0.0200968 0)
(19.9371 -0.0257876 0)
(20.6972 -0.0225952 0)
(21.4893 -0.0280489 0)
(22.2688 -0.0273719 0)
(23.1173 -0.0323387 0)
(23.9325 -0.0334719 0)
(24.8063 -0.038871 0)
(25.6725 -0.0429963 0)
(26.6023 -0.0501064 0)
(27.5283 -0.0586894 0)
(28.5624 -0.0680856 0)
(29.5359 -0.0817775 0)
(30.7331 -0.0927675 0)
(31.7014 -0.113556 0)
(33.2082 -0.122617 0)
(34.0365 -0.16887 0)
(36.2625 -0.157834 0)
(36.77 -0.327867 0)
(40.6997 -0.23447 0)
(40.9443 -1.14536 0)
(33.9689 0.0987256 0)
(21.8794 0.0258458 0)
(17.159 0.00924526 0)
(14.6913 0.00497505 0)
(13.2447 0.00355611 0)
(12.1612 0.00221789 0)
(11.4197 0.0021064 0)
(10.8042 0.00120837 0)
(10.3237 0.00150492 0)
(9.91167 0.000764948 0)
(9.55063 0.00115577 0)
(9.24267 0.000517848 0)
(8.95226 0.000874278 0)
(8.71619 0.000331954 0)
(8.47983 0.000620224 0)
(8.29854 0.000179494 0)
(8.10837 0.000386958 0)
(7.97197 4.37504e-05 0)
(7.82553 0.000170262 0)
(7.72911 -8.41372e-05 0)
(7.62558 -2.33626e-05 0)
(7.56425 -0.000205344 0)
(7.5028 -0.000192881 0)
(7.47193 -0.000211073 0)
(7.4149 -0.000320901 0)
(7.43856 -0.000331421 0)
(7.38626 0.000396843 0)
(7.26759 -0.000699068 0)
(7.4883 -0.00153949 0)
(7.55116 -0.000719163 0)
(7.60427 -0.000674603 0)
(7.64997 -0.000572198 0)
(7.68208 -0.000750774 0)
(7.75913 -0.000965599 0)
(7.83643 -0.00100501 0)
(7.91624 -0.00107666 0)
(7.9993 -0.00118408 0)
(8.09105 -0.00133933 0)
(8.19365 -0.00149792 0)
(8.3063 -0.00167159 0)
(8.42864 -0.00186537 0)
(8.56423 -0.00212721 0)
(8.71585 -0.00243906 0)
(8.8879 -0.00281669 0)
(9.08025 -0.00322993 0)
(9.29504 -0.00372608 0)
(9.5342 -0.00426958 0)
(9.80176 -0.00471635 0)
(10.0696 -0.00545099 0)
(10.4027 -0.00557125 0)
(10.6593 -0.00448171 0)
(10.8726 -0.00668077 0)
(11.3073 -0.0097593 0)
(11.7934 -0.00922064 0)
(12.2578 -0.0107935 0)
(12.8647 -0.0100547 0)
(13.4357 -0.0129336 0)
(14.2266 -0.0122707 0)
(14.959 -0.0165221 0)
(15.906 -0.0158025 0)
(16.7862 -0.0214153 0)
(17.8226 -0.020173 0)
(18.7646 -0.0319675 0)
(19.9159 -0.0301743 0)
(20.6921 -0.0430544 0)
(21.5954 -0.0347405 0)
(22.3701 -0.0422893 0)
(23.1987 -0.0351892 0)
(23.9673 -0.0419087 0)
(24.7629 -0.0387637 0)
(25.5856 -0.0456829 0)
(26.3956 -0.0459662 0)
(27.265 -0.0528318 0)
(28.1118 -0.0556099 0)
(29.011 -0.0633497 0)
(29.9039 -0.0699605 0)
(30.857 -0.0798468 0)
(31.7932 -0.0919115 0)
(32.8373 -0.104376 0)
(33.7969 -0.123029 0)
(34.9824 -0.13692 0)
(35.9245 -0.165818 0)
(37.367 -0.176932 0)
(38.2148 -0.238322 0)
(40.2219 -0.231565 0)
(40.8895 -0.430398 0)
(44.1967 -0.396429 0)
(44.809 -1.2882 0)
(39.0187 0.119329 0)
(27.7723 0.0386185 0)
(22.2954 0.0155442 0)
(19.2018 0.00854991 0)
(17.3471 0.00610348 0)
(15.9589 0.00386768 0)
(14.9881 0.00362684 0)
(14.1958 0.00213663 0)
(13.5629 0.00258837 0)
(13.0344 0.00136489 0)
(12.5609 0.0019817 0)
(12.1696 0.000933146 0)
(11.79 0.0015 0)
(11.4917 0.000613068 0)
(11.1829 0.00107212 0)
(10.9538 0.000354338 0)
(10.7045 0.000684893 0)
(10.5308 0.00012823 0)
(10.3365 0.000330507 0)
(10.2108 -8.05507e-05 0)
(10.0696 1.8285e-05 0)
(9.98516 -0.000274579 0)
(9.89503 -0.000252113 0)
(9.84619 -0.000285503 0)
(9.76473 -0.000456439 0)
(9.77868 -0.000454549 0)
(9.69771 0.000538584 0)
(9.5916 -0.00106708 0)
(9.79218 -0.00222975 0)
(9.84999 -0.00107703 0)
(9.89624 -0.00100065 0)
(9.93471 -0.000848106 0)
(9.96033 -0.001116 0)
(10.0321 -0.00145023 0)
(10.1074 -0.00152624 0)
(10.1868 -0.00164147 0)
(10.2711 -0.00181045 0)
(10.3658 -0.00205785 0)
(10.4739 -0.00231614 0)
(10.595 -0.00259772 0)
(10.7285 -0.00290905 0)
(10.8779 -0.00332465 0)
(11.0464 -0.00382029 0)
(11.2386 -0.00441919 0)
(11.4545 -0.00507551 0)
(11.6965 -0.00585412 0)
(11.9651 -0.00672633 0)
(12.2675 -0.00743305 0)
(12.5695 -0.00857717 0)
(12.9429 -0.00879869 0)
(13.2363 -0.00736832 0)
(13.516 -0.0104616 0)
(13.9754 -0.0148956 0)
(14.5055 -0.0144075 0)
(15.0158 -0.0168082 0)
(15.6831 -0.016176 0)
(16.3142 -0.0204263 0)
(17.1719 -0.0201908 0)
(17.9771 -0.0262613 0)
(18.9957 -0.0261254 0)
(19.9602 -0.033873 0)
(21.0725 -0.0330647 0)
(22.1085 -0.0484778 0)
(23.2655 -0.0477156 0)
(24.0672 -0.0630625 0)
(24.9693 -0.0540902 0)
(25.7699 -0.062471 0)
(26.5983 -0.0545287 0)
(27.38 -0.0620168 0)
(28.175 -0.0591691 0)
(28.9982 -0.0676036 0)
(29.8131 -0.0693072 0)
(30.6821 -0.0783063 0)
(31.5373 -0.0833221 0)
(32.4399 -0.0936533 0)
(33.3361 -0.103268 0)
(34.2877 -0.116133 0)
(35.2167 -0.132097 0)
(36.2436 -0.147946 0)
(37.1927 -0.171748 0)
(38.3278 -0.189775 0)
(39.2859 -0.225807 0)
(40.6044 -0.242762 0)
(41.5398 -0.3157 0)
(43.3015 -0.321819 0)
(44.128 -0.537375 0)
(46.9397 -0.578387 0)
(47.8443 -1.44315 0)
(42.9087 0.13743 0)
(33.68 0.0533972 0)
(27.993 0.0242799 0)
(24.3879 0.0138699 0)
(22.1302 0.00992937 0)
(20.4254 0.00643327 0)
(19.2021 0.00593363 0)
(18.2153 0.00362668 0)
(17.4097 0.00423036 0)
(16.7516 0.00235204 0)
(16.1507 0.00323101 0)
(15.6666 0.0016353 0)
(15.1863 0.00245309 0)
(14.8176 0.00111196 0)
(14.4261 0.00177584 0)
(14.1413 0.000695536 0)
(13.8229 0.00117357 0)
(13.6034 0.000338664 0)
(13.3513 0.000631098 0)
(13.1868 1.5474e-05 0)
(12.9974 0.000159102 0)
(12.8796 -0.000279503 0)
(12.7496 -0.00024591 0)
(12.6715 -0.000303018 0)
(12.5556 -0.000556241 0)
(12.5472 -0.000520191 0)
(12.4264 0.00073597 0)
(12.3273 -0.00149329 0)
(12.49 -0.00298841 0)
(12.5277 -0.00146309 0)
(12.5539 -0.00133876 0)
(12.5727 -0.00113237 0)
(12.5815 -0.00150851 0)
(12.6354 -0.0019922 0)
(12.6961 -0.00212605 0)
(12.7634 -0.00230481 0)
(12.8379 -0.00255795 0)
(12.925 -0.00292798 0)
(13.0282 -0.00332197 0)
(13.1472 -0.00375272 0)
(13.2814 -0.00422774 0)
(13.4341 -0.00485222 0)
(13.6081 -0.00559715 0)
(13.8079 -0.00649364 0)
(14.0336 -0.00747959 0)
(14.2874 -0.00862474 0)
(14.5679 -0.00992251 0)
(14.8848 -0.0109591 0)
(15.2008 -0.012613 0)
(15.5881 -0.0129948 0)
(15.8975 -0.0113256 0)
(16.2256 -0.015397 0)
(16.6883 -0.0213287 0)
(17.2303 -0.0210975 0)
(17.7591 -0.024488 0)
(18.4492 -0.0242569 0)
(19.113 -0.0300754 0)
(19.9941 -0.0306528 0)
(20.8393 -0.0387435 0)
(21.8825 -0.0396429 0)
(22.8922 -0.0497305 0)
(24.0303 -0.0498024 0)
(25.1178 -0.0686371 0)
(26.2514 -0.0692196 0)
(27.0545 -0.0867424 0)
(27.9303 -0.0775337 0)
(28.7263 -0.0864773 0)
(29.5335 -0.0779304 0)
(30.3092 -0.0861238 0)
(31.0951 -0.0840086 0)
(31.9151 -0.094261 0)
(32.7335 -0.0980368 0)
(33.6043 -0.109592 0)
(34.4675 -0.117525 0)
(35.3725 -0.130836 0)
(36.2726 -0.143986 0)
(37.218 -0.160276 0)
(38.1457 -0.180442 0)
(39.1476 -0.200561 0)
(40.0985 -0.229331 0)
(41.1757 -0.253057 0)
(42.1529 -0.295254 0)
(43.3634 -0.320411 0)
(44.351 -0.403575 0)
(45.9153 -0.426891 0)
(46.843 -0.659203 0)
(49.2711 -0.785052 0)
(50.3552 -1.59739 0)
(45.3217 0.150875 0)
(38.9619 0.0685333 0)
(33.852 0.0352 0)
(30.0653 0.0212361 0)
(27.5149 0.0153754 0)
(25.5352 0.0102643 0)
(24.0684 0.00929239 0)
(22.8858 0.00595415 0)
(21.9014 0.00662631 0)
(21.1055 0.0039465 0)
(20.3703 0.00505722 0)
(19.785 0.00280971 0)
(19.1977 0.00386577 0)
(18.7496 0.00199233 0)
(18.269 0.00285347 0)
(17.9185 0.00135223 0)
(17.5241 0.00197137 0)
(17.2478 0.00081425 0)
(16.9296 0.00119012 0)
(16.7142 0.000335808 0)
(16.4667 0.000517405 0)
(16.3022 -9.41629e-05 0)
(16.1205 -5.52676e-05 0)
(15.9986 -0.000141874 0)
(15.8368 -0.000505698 0)
(15.7893 -0.000404905 0)
(15.6176 0.00109601 0)
(15.5097 -0.00187524 0)
(15.6177 -0.00369744 0)
(15.6163 -0.00176647 0)
(15.6057 -0.00156813 0)
(15.5886 -0.00131228 0)
(15.5668 -0.00182043 0)
(15.5882 -0.00248397 0)
(15.6189 -0.00270065 0)
(15.6593 -0.00297183 0)
(15.71 -0.00334248 0)
(15.7759 -0.0038755 0)
(15.8602 -0.00445264 0)
(15.9625 -0.00508366 0)
(16.0822 -0.0057763 0)
(16.2219 -0.00666776 0)
(16.384 -0.00772652 0)
(16.5723 -0.00898926 0)
(16.7864 -0.0103784 0)
(17.0285 -0.0119562 0)
(17.2956 -0.0137654 0)
(17.5982 -0.0151999 0)
(17.9006 -0.0174437 0)
(18.269 -0.0180574 0)
(18.5687 -0.0163147 0)
(18.9127 -0.0214426 0)
(19.3588 -0.0289532 0)
(19.8875 -0.0292495 0)
(20.4147 -0.0337993 0)
(21.1017 -0.0343468 0)
(21.7818 -0.0419664 0)
(22.6662 -0.0438211 0)
(23.5365 -0.0541795 0)
(24.5884 -0.0566249 0)
(25.6261 -0.0692844 0)
(26.7727 -0.0707219 0)
(27.8906 -0.0929547 0)
(29.0068 -0.0952123 0)
(29.8094 -0.114582 0)
(30.6634 -0.105467 0)
(31.4519 -0.114773 0)
(32.2443 -0.106034 0)
(33.0197 -0.115125 0)
(33.8073 -0.114492 0)
(34.6351 -0.127153 0)
(35.4645 -0.133836 0)
(36.3424 -0.148424 0)
(37.2134 -0.159809 0)
(38.1173 -0.176417 0)
(39.0154 -0.193413 0)
(39.9458 -0.213485 0)
(40.8627 -0.237853 0)
(41.8315 -0.262812 0)
(42.7666 -0.29631 0)
(43.7885 -0.327595 0)
(44.7445 -0.375977 0)
(45.876 -0.412986 0)
(46.8476 -0.505548 0)
(48.2954 -0.551817 0)
(49.2399 -0.793645 0)
(51.4045 -1.01326 0)
(52.5017 -1.76097 0)
(46.1618 0.157964 0)
(42.9026 0.0815267 0)
(39.1626 0.0470469 0)
(35.7481 0.0304038 0)
(33.1857 0.022559 0)
(31.0775 0.0156375 0)
(29.4445 0.0139472 0)
(28.1055 0.00942134 0)
(26.9678 0.00999111 0)
(26.0422 0.0064172 0)
(25.1825 0.00764332 0)
(24.4938 0.00469552 0)
(23.8038 0.00590539 0)
(23.2697 0.00347421 0)
(22.7013 0.00446752 0)
(22.2761 0.00253161 0)
(21.8046 0.00324191 0)
(21.461 0.00175392 0)
(21.0733 0.00217628 0)
(20.7953 0.00107504 0)
(20.4837 0.00126891 0)
(20.2596 0.00047475 0)
(20.0175 0.000503474 0)
(19.8375 0.000392043 0)
(19.6205 -0.000114234 0)
(19.5162 8.21891e-05 0)
(19.2873 0.00180214 0)
(19.1494 -0.00200457 0)
(19.1866 -0.00414203 0)
(19.1285 -0.00178806 0)
(19.064 -0.00148111 0)
(18.9944 -0.00118265 0)
(18.9267 -0.00185346 0)
(18.9006 -0.00273018 0)
(18.8854 -0.00305346 0)
(18.8823 -0.00344803 0)
(18.8926 -0.00397746 0)
(18.9204 -0.00471971 0)
(18.9681 -0.00552688 0)
(19.0348 -0.0064034 0)
(19.1194 -0.00735981 0)
(19.2241 -0.00856606 0)
(19.3506 -0.00998918 0)
(19.5017 -0.0116687 0)
(19.6771 -0.0135153 0)
(19.8782 -0.015578 0)
(20.1031 -0.0179647 0)
(20.3609 -0.0198598 0)
(20.6223 -0.0227499 0)
(20.9443 -0.0236864 0)
(21.2137 -0.0221059 0)
(21.5444 -0.0284461 0)
(21.9665 -0.0376701 0)
(22.4785 -0.038854 0)
(23.0059 -0.0448555 0)
(23.6944 -0.0467055 0)
(24.3991 -0.0565228 0)
(25.3012 -0.0602729 0)
(26.2081 -0.0732909 0)
(27.2839 -0.0778834 0)
(28.3552 -0.0934038 0)
(29.5177 -0.0967081 0)
(30.6638 -0.122541 0)
(31.7783 -0.126984 0)
(32.587 -0.147886 0)
(33.4291 -0.139212 0)
(34.2156 -0.14881 0)
(35.0022 -0.140433 0)
(35.7839 -0.150875 0)
(36.5778 -0.15227 0)
(37.4125 -0.167679 0)
(38.2457 -0.177637 0)
(39.1194 -0.195614 0)
(39.9819 -0.210904 0)
(40.8671 -0.231103 0)
(41.743 -0.252233 0)
(42.6417 -0.276742 0)
(43.5272 -0.306029 0)
(44.4511 -0.337024 0)
(45.3478 -0.376082 0)
(46.3147 -0.414995 0)
(47.2326 -0.469923 0)
(48.298 -0.518523 0)
(49.2393 -0.62129 0)
(50.5811 -0.69437 0)
(51.5294 -0.9455 0)
(53.455 -1.26078 0)
(54.5405 -1.94373 0)
(45.7503 0.15858 0)
(45.0283 0.0898047 0)
(43.0803 0.0574616 0)
(40.633 0.0400739 0)
(38.4974 0.0309357 0)
(36.5499 0.0224382 0)
(34.9367 0.0199323 0)
(33.5563 0.014206 0)
(32.3484 0.0144835 0)
(31.3395 0.0100033 0)
(30.396 0.0111711 0)
(29.6215 0.00753739 0)
(28.8515 0.00875936 0)
(28.2358 0.00579949 0)
(27.5933 0.00681111 0)
(27.0914 0.00447167 0)
(26.5509 0.00518461 0)
(26.1349 0.00339254 0)
(25.6819 0.00379697 0)
(25.3348 0.002468 0)
(24.96 0.00263178 0)
(24.6689 0.00166584 0)
(24.3645 0.00166145 0)
(24.118 0.00154198 0)
(23.8426 0.000869869 0)
(23.6696 0.00118606 0)
(23.3846 0.00308796 0)
(23.1995 -0.00159473 0)
(23.1553 -0.00401614 0)
(23.0292 -0.00123505 0)
(22.8997 -0.000790747 0)
(22.7668 -0.000454276 0)
(22.6412 -0.00131602 0)
(22.5557 -0.00243904 0)
(22.4823 -0.00288919 0)
(22.4222 -0.00343206 0)
(22.3774 -0.00415717 0)
(22.3514 -0.00514758 0)
(22.3457 -0.00621737 0)
(22.3586 -0.00736563 0)
(22.3887 -0.00861173 0)
(22.4376 -0.0101591 0)
(22.5068 -0.0119746 0)
(22.5987 -0.0141017 0)
(22.7141 -0.01644 0)
(22.8531 -0.0190337 0)
(23.0188 -0.0220591 0)
(23.2167 -0.0245006 0)
(23.4274 -0.0281421 0)
(23.6991 -0.0295626 0)
(23.9369 -0.0284758 0)
(24.2519 -0.0364455 0)
(24.6717 -0.0478408 0)
(25.1953 -0.0504603 0)
(25.7524 -0.0584521 0)
(26.4769 -0.0624081 0)
(27.2369 -0.0750756 0)
(28.1878 -0.081525 0)
(29.1518 -0.0976743 0)
(30.2652 -0.105007 0)
(31.3719 -0.123578 0)
(32.5457 -0.129168 0)
(33.7093 -0.158822 0)
(34.8119 -0.165884 0)
(35.6166 -0.187922 0)
(36.4367 -0.179804 0)
(37.2103 -0.189644 0)
(37.9806 -0.182187 0)
(38.7555 -0.194334 0)
(39.5408 -0.198851 0)
(40.3602 -0.217642 0)
(41.1722 -0.231608 0)
(42.0141 -0.253222 0)
(42.843 -0.272501 0)
(43.6898 -0.296485 0)
(44.5263 -0.322073 0)
(45.3815 -0.351034 0)
(46.2223 -0.384998 0)
(47.0967 -0.421802 0)
(47.9449 -0.466149 0)
(48.8559 -0.514404 0)
(49.7268 -0.576205 0)
(50.7232 -0.64045 0)
(51.6325 -0.753051 0)
(52.8621 -0.859196 0)
(53.8076 -1.11769 0)
(55.4947 -1.52392 0)
(56.5348 -2.15142 0)
(44.8678 0.155089 0)
(45.5017 0.0923616 0)
(45.1042 0.0639239 0)
(43.899 0.047901 0)
(42.5823 0.0388699 0)
(41.1574 0.0296691 0)
(39.85 0.0266747 0)
(38.6403 0.0200375 0)
(37.5253 0.0199792 0)
(36.5463 0.0147245 0)
(35.6119 0.0156951 0)
(34.8119 0.01147 0)
(34.0173 0.0125601 0)
(33.3531 0.00915378 0)
(32.6715 0.0100576 0)
(32.1116 0.00738323 0)
(31.5256 0.00799661 0)
(31.0484 0.00595325 0)
(30.5465 0.0062638 0)
(30.1377 0.0047448 0)
(29.7115 0.00482894 0)
(29.359 0.0037155 0)
(29.0012 0.00365427 0)
(28.6928 0.00354743 0)
(28.3663 0.00270015 0)
(28.1264 0.00315959 0)
(27.7949 0.00519502 0)
(27.5593 -0.000365697 0)
(27.4361 -0.00301539 0)
(27.2442 0.000212921 0)
(27.0511 0.00082236 0)
(26.856 0.00119021 0)
(26.6721 0.000113297 0)
(26.5269 -0.00127972 0)
(26.3948 -0.00186263 0)
(26.2764 -0.0025631 0)
(26.174 -0.0035058 0)
(26.0914 -0.00476883 0)
(26.0292 -0.00611755 0)
(25.9852 -0.0075428 0)
(25.9576 -0.00908181 0)
(25.9481 -0.0109782 0)
(25.9589 -0.0132026 0)
(25.9923 -0.015814 0)
(26.0515 -0.0186897 0)
(26.1352 -0.0219179 0)
(26.2546 -0.0257329 0)
(26.4091 -0.0289216 0)
(26.5907 -0.0336054 0)
(26.8398 -0.03582 0)
(27.0716 -0.0357024 0)
(27.401 -0.0461753 0)
(27.8598 -0.0607619 0)
(28.4317 -0.0656451 0)
(29.0485 -0.0763716 0)
(29.8295 -0.0834283 0)
(30.654 -0.0996337 0)
(31.6446 -0.109467 0)
(32.6442 -0.128933 0)
(33.7565 -0.139134 0)
(34.8537 -0.160521 0)
(35.989 -0.168412 0)
(37.1203 -0.201876 0)
(38.1635 -0.212069 0)
(38.9285 -0.234801 0)
(39.6995 -0.227651 0)
(40.4319 -0.237771 0)
(41.1632 -0.232098 0)
(41.9014 -0.246645 0)
(42.6484 -0.254398 0)
(43.4263 -0.276407 0)
(44.1986 -0.294014 0)
(44.9947 -0.319193 0)
(45.7781 -0.342828 0)
(46.5731 -0.370912 0)
(47.3576 -0.401357 0)
(48.1548 -0.435307 0)
(48.9396 -0.474799 0)
(49.7511 -0.518337 0)
(50.5434 -0.569173 0)
(51.3874 -0.627582 0)
(52.2053 -0.697631 0)
(53.1241 -0.7791 0)
(53.9892 -0.902574 0)
(55.0984 -1.04504 0)
(56.0181 -1.31067 0)
(57.4657 -1.79632 0)
(58.4176 -2.37757 0)
(44.365 0.15149 0)
(45.1918 0.0911633 0)
(45.575 0.065798 0)
(45.3307 0.0519281 0)
(44.8611 0.0441544 0)
(44.1464 0.0353659 0)
(43.3793 0.0326325 0)
(42.5739 0.0257592 0)
(41.7621 0.0256528 0)
(40.9906 0.0200076 0)
(40.2164 0.0208291 0)
(39.5122 0.0162488 0)
(38.7977 0.017161 0)
(38.1676 0.0134705 0)
(37.5207 0.0141931 0)
(36.9611 0.0112991 0)
(36.3834 0.0117398 0)
(35.8884 0.0095251 0)
(35.3789 0.00968177 0)
(34.9427 0.0080257 0)
(34.4985 0.00799003 0)
(34.1133 0.0067616 0)
(33.7301 0.00662675 0)
(33.3857 0.00655579 0)
(33.0331 0.00553371 0)
(32.7492 0.00615839 0)
(32.3956 0.00829315 0)
(32.1264 0.00187902 0)
(31.946 -0.000955823 0)
(31.7096 0.00275345 0)
(31.4732 0.00357804 0)
(31.2363 0.0039762 0)
(31.0133 0.00265512 0)
(30.8275 0.000963027 0)
(30.6559 0.000244791 0)
(30.4986 -0.000618093 0)
(30.3583 -0.00180189 0)
(30.2389 -0.00336839 0)
(30.1408 -0.00501977 0)
(30.0611 -0.00673611 0)
(29.9984 -0.00858718 0)
(29.9546 -0.0108721 0)
(29.9329 -0.0135723 0)
(29.9364 -0.0167806 0)
(29.9696 -0.0203361 0)
(30.0314 -0.0244526 0)
(30.1389 -0.0293743 0)
(30.2851 -0.033687 0)
(30.4725 -0.0399245 0)
(30.7301 -0.0434083 0)
(30.9843 -0.0449307 0)
(31.3505 -0.0590614 0)
(31.8538 -0.077983 0)
(32.4583 -0.0858997 0)
(33.1071 -0.0998646 0)
(33.8928 -0.110624 0)
(34.7178 -0.130505 0)
(35.6638 -0.1437 0)
(36.612 -0.166014 0)
(37.6327 -0.178962 0)
(38.6365 -0.202871 0)
(39.6627 -0.213508 0)
(40.6831 -0.250455 0)
(41.6125 -0.263763 0)
(42.3063 -0.287125 0)
(43.0058 -0.281177 0)
(43.6796 -0.291938 0)