/*--------------------------------*- C++ -*----------------------------------*\
| =========                 |                                                 |
| \\      /  F ield         | OpenFOAM: The Open Source CFD Toolbox           |
|  \\    /   O peration     | Version:  2306                                  |
|   \\  /    A nd           | Website:  www.openfoam.com                      |
|    \\/     M anipulation  |                                                 |
\*---------------------------------------------------------------------------*/
FoamFile
{
    version     2.0;
    format      ascii;
    arch        "LSB;label=32;scalar=64";
    class       volVectorField;
    location    "900";
    object      wallShearStress;
}
// * * * * * * * * * * * * * * * * * * * * * * * * * * * * * * * * * * * * * //

dimensions      [0 2 -2 0 0 0 0];

internalField   uniform (0 0 0);

boundaryField
{
    inlet
    {
        type            calculated;
        value           uniform (0 0 0);
    }
    outlet
    {
        type            calculated;
        value           uniform (0 0 0);
    }
    lowerWallStartup
    {
        type            symmetryPlane;
    }
    upperWallStartup
    {
        type            symmetryPlane;
    }
    upperWall
    {
        type            calculated;
        value           nonuniform List<vector> 
218
(
(-3.66237 0.0161351 0)
(-1.52834 0.000328466 0)
(-1.19481 0.000146167 0)
(-1.01052 -1.52927e-05 0)
(-0.918864 0.000115998 0)
(-0.828178 -7.36956e-05 0)
(-0.786315 0.000116235 0)
(-0.731471 -9.77185e-05 0)
(-0.707451 0.000111105 0)
(-0.669135 -0.000101474 0)
(-0.65192 9.05042e-05 0)
(-0.621462 -9.26603e-05 0)
(-0.607315 5.65013e-05 0)
(-0.582426 -7.05917e-05 0)
(-0.570012 1.3029e-05 0)
(-0.549955 -3.21708e-05 0)
(-0.538622 -3.85321e-05 0)
(-0.523425 2.49223e-05 0)
(-0.513236 -9.84531e-05 0)
(-0.503384 0.000101686 0)
(-0.494771 -0.000166979 0)
(-0.490489 0.000197215 0)
(-0.484055 -0.000243736 0)
(-0.484919 0.000309904 0)
(-0.477769 -0.00033482 0)
(-0.48689 0.000429349 0)
(-0.480663 -0.000204009 0)
(-0.427029 -0.00184185 0)
(-0.496395 -0.000719814 0)
(-0.507627 0.000642866 0)
(-0.515627 -0.000564044 0)
(-0.523371 0.000710726 0)
(-0.531225 -0.000625669 0)
(-0.526136 0.000746392 0)
(-0.552154 -0.000645997 0)
(-0.548671 0.000713895 0)
(-0.572509 -0.000620809 0)
(-0.555693 0.000672276 0)
(-0.585992 -0.000557884 0)
(-0.553147 0.000589764 0)
(-0.595708 -0.000446172 0)
(-0.531518 0.000501971 0)
(-0.593666 -0.000309279 0)
(-0.506146 0.000396088 0)
(-0.568858 -0.000134731 0)
(-0.457852 0.000354108 0)
(-0.505432 7.52979e-05 0)
(-0.379879 0.000415614 0)
(-0.385623 0.000270206 0)
(-0.270424 0.000963858 0)
(-0.230106 0.000350167 0)
(-0.606083 -0.00155343 0)
(-1.27851 -0.00293687 0)
(-1.04635 0.0037683 0)
(0.594973 0.00438952 0)
(2.15705 0.0042807 0)
(2.60619 -0.00264878 0)
(2.14279 -0.00216668 0)
(0.949738 -0.020845 0)
(-1.24913 -0.0168951 0)
(-7.1715 -0.021923 0)
(-8.37874 0.000569898 0)
(-1.77482 0.0299723 0)
(3.81747 0.0132506 0)
(3.02278 -0.00801039 0)
(1.31048 -0.0138158 0)
(0.407168 -0.000234602 0)
(0.732138 -0.00126712 0)
(0.42367 -0.00952797 0)
(-1.10117 -0.0278614 0)
(-1.57893 -0.0123276 0)
(-2.45797 -0.00436243 0)
(-1.24668 -0.00562664 0)
(1.16902 0.0156355 0)
(-5.38312 -0.073441 0)
(-11.153 -0.0244289 0)
(-11.6459 -0.0181452 0)
(-13.4037 -0.0114894 0)
(-10.5614 0.0983497 0)
(-0.363701 0.154303 0)
(6.53226 0.0864893 0)
(8.02005 0.0170825 0)
(8.07318 0.00287321 0)
(7.34606 -0.00076771 0)
(6.24596 -0.00753096 0)
(5.0859 -0.00257077 0)
(4.07565 -0.0176879 0)
(3.40527 -0.00293689 0)
(2.53541 -0.0192383 1.26955e-17)
(1.98727 0.00178523 0)
(1.26818 -0.0707008 -1.27421e-17)
(0.23575 0.0509709 1.27382e-17)
(-1.31328 -0.0907598 0)
(-3.26009 -0.0544881 1.26422e-17)
(-4.03834 -0.0488871 0)
(-4.18205 -0.015319 0)
(-3.35715 -0.0290368 0)
(-3.09871 -0.00600719 0)
(-3.64017 -0.0576467 -1.26206e-17)
(-4.77482 0.00312686 0)
(-4.23797 -0.00329059 1.25797e-17)
(-3.65583 0.022875 0)
(-2.96139 -0.0469029 1.26085e-17)
(-4.5185 -0.0530317 -1.25546e-17)
(-5.74889 -0.0118493 0)
(-4.88331 0.0307447 -1.25463e-17)
(-2.1269 0.0887028 0)
(0.513521 0.0494754 1.26879e-17)
(0.95113 -0.0192888 0)
(1.72887 0.0155759 0)
(1.53319 -0.0328502 0)
(1.6967 -0.00336803 0)
(1.20698 -0.0460365 0)
(1.25149 -0.0284018 0)
(0.907282 -0.0514774 0)
(0.989004 -0.0384846 -1.27075e-17)
(0.966236 -0.039364 1.27062e-17)
(1.21573 -0.0260381 -1.2706e-17)
(1.59717 -0.0387406 1.27029e-17)
(1.70036 -0.0377352 0)
(1.19408 -0.126127 1.27122e-17)
(-1.23085 -0.116518 0)
(-6.18274 -0.083833 1.25073e-17)
(-9.17177 2.40449e-05 0)
(-8.14441 0.0164403 0)
(-7.06639 -0.0316959 1.25112e-17)
(-7.84574 -0.0376683 0)
(-8.66009 0.00609131 1.24865e-17)
(-6.62829 0.07041 0)
(-1.15626 0.0746928 1.25026e-17)
(3.03355 0.00727853 0)
(2.71424 -0.0528291 1.25762e-17)
(1.60788 -0.0243532 0)
(0.688363 -0.0774039 0)
(-1.57348 -0.0242212 1.2624e-17)
(-2.09768 -0.112545 0)
(-3.49606 -0.0141693 1.25607e-17)
(-4.62736 -0.0373484 0)
(-7.09535 -0.0563213 1.24469e-17)
(-10.5639 -0.0772596 0)
(-15.7329 -0.0954 1.22022e-17)
(-22.2604 -0.11031 0)
(-28.9593 -0.0476635 0)
(-29.5597 0.111188 1.16881e-17)
(-20.5422 0.587716 0)
(16.7117 0.589425 1.15446e-17)
(33.5515 0.0777625 0)
(23.6725 -0.158782 1.17735e-17)
(15.1162 0.0190528 0)
(15.7674 -0.0215912 0)
(10.6327 -0.116854 1.21664e-17)
(1.94709 -0.0912024 1.23277e-17)
(-1.89259 0.0352787 0)
(2.00994 0.012798 1.23872e-17)
(3.54011 -0.0714469 0)
(0.528389 -0.13385 1.24073e-17)
(-2.03909 -0.0879956 0)
(-3.06816 -0.0521144 1.23937e-17)
(-2.6378 -0.0158281 0)
(-2.12467 0.0133824 1.23429e-17)
(-7.89276 -0.235262 1.22183e-17)
(-15.5534 -0.251203 0)
(-18.8974 -0.0220854 1.20164e-17)
(-5.10981 0.153513 0)
(7.42699 0.0542475 1.21785e-17)
(-3.99478 -0.294544 0)
(-11.2807 -0.0898834 0)
(-15.2665 -0.0201531 1.19025e-17)
(-16.407 0.0150625 -1.18567e-17)
(-13.2048 0.146157 1.18447e-17)
(-3.03792 0.29119 -1.19075e-17)
(7.83956 0.175789 0)
(6.71017 -0.0803752 0)
(0.235635 -0.102818 0)
(-3.03899 -0.0119966 -1.20562e-17)
(-2.21853 0.0296253 0)
(3.42396 0.0907668 0)
(10.6527 0.0885345 0)
(8.19066 0.0297213 0)
(-2.64841 -0.0331734 0)
(-20.7318 -0.136894 0)
(-32.1797 -0.0693177 0)
(-36.7602 -0.0392471 1.1261e-17)
(-40.0905 -0.00521251 -1.10414e-17)
(-40.4985 0.0675783 0)
(-38.4936 0.107814 0)
(-34.2073 0.345061 2.78471e-18)
(-5.97312 0.841607 -2.45943e-18)
(58.079 0.68313 -4.40965e-18)
(83.0901 0.0899318 -3.98355e-18)
(65.7293 -0.181031 -7.1178e-18)
(34.7576 -0.0901551 -6.32285e-18)
(10.2879 -0.231266 -5.6391e-18)
(-16.7894 -0.130397 0)
(-27.1098 -0.030429 -8.2775e-18)
(-34.0333 -0.0421018 0)
(-38.3004 0.0278854 1.17841e-17)
(-18.9394 0.0791553 0)
(7.75538 0.0395097 0)
(19.5398 0.0201768 0)
(26.8223 0.0327676 0)
(29.7473 0.047031 0)
(26.1958 0.0613284 0)
(20.9475 0.0583897 -3.9768e-17)
(9.78067 0.0415636 0)
(4.63025 0.0136464 6.25677e-17)
(-4.86253 -0.0213871 -5.45591e-17)
(-4.31813 -0.0292623 4.72422e-17)
(-21.4319 -0.448676 0)
(-47.631 -1.21293 5.90672e-17)
(-48.5827 -1.1339 0)
(-37.7196 -0.616347 0)
(-34.6998 -0.796411 0)
(-36.3257 -1.17155 0)
(-34.4974 -1.2853 0)
(-33.883 -2.20493 0)
(-37.2087 -4.58088 -5.64268e-17)
(-38.0637 -7.55565 0)
)
;
    }
    lowerWall
    {
        type            calculated;
        value           nonuniform List<vector> 
266
(
(-3.66356 -0.0160994 0)
(-1.53583 -0.00037167 0)
(-1.19284 -0.000110131 0)
(-1.0174 -5.14573e-05 0)
(-0.914424 -5.4977e-05 0)
(-0.833496 -1.45647e-05 0)
(-0.781442 -3.35391e-05 0)
(-0.735512 -4.93022e-06 0)
(-0.702636 -2.49593e-05 0)
(-0.672085 -3.88063e-06 0)
(-0.646901 -1.74554e-05 0)
(-0.623186 -1.3379e-06 0)
(-0.602084 -9.06017e-06 0)
(-0.582837 2.70183e-06 0)
(-0.564811 -1.50999e-06 0)
(-0.549016 6.42864e-06 0)
(-0.53379 4.60925e-06 0)
(-0.521232 9.28271e-06 0)
(-0.509231 9.43912e-06 0)
(-0.500268 1.11181e-05 0)
(-0.492147 1.29416e-05 0)
(-0.487046 1.20079e-05 0)
(-0.483341 1.56551e-05 0)
(-0.482084 1.05855e-05 0)
(-0.479242 1.3391e-05 0)
(-0.484454 1.02662e-05 0)
(-0.484544 -2.15078e-05 0)
(-0.455613 3.24032e-05 0)
(-0.502123 5.16554e-05 0)
(-0.512607 1.15861e-05 0)
(-0.523081 1.83954e-05 0)
(-0.532171 1.08556e-05 0)
(-0.539022 1.49185e-05 0)
(-0.551069 2.36119e-05 0)
(-0.561909 2.72706e-05 0)
(-0.572528 2.80135e-05 0)
(-0.583031 2.98145e-05 0)
(-0.594184 3.23736e-05 0)
(-0.606137 3.31249e-05 0)
(-0.618746 3.50531e-05 0)
(-0.63201 3.45063e-05 0)
(-0.646399 3.59921e-05 0)
(-0.662246 3.61237e-05 0)
(-0.680048 3.86781e-05 0)
(-0.699728 3.97748e-05 0)
(-0.721514 4.16015e-05 0)
(-0.745766 4.3977e-05 0)
(-0.77183 4.59815e-05 0)
(-0.797551 5.54248e-05 0)
(-0.82859 4.39381e-05 0)
(-0.848385 -5.40817e-05 0)
(-0.84921 8.4478e-05 0)
(-0.898737 9.12325e-05 0)
(-0.945743 -6.32751e-05 0)
(-0.99394 3.74574e-07 0)
(-1.06043 -0.000323247 0)
(-1.12972 -9.74108e-05 0)
(-1.22729 -0.00053917 0)
(-1.31912 -7.7713e-05 0)
(-1.43428 -0.000573828 0)
(-1.53526 0.000183614 0)
(-1.64689 -0.000632027 0)
(-1.72578 0.000359273 0)
(-1.85431 -0.0011457 0)
(-1.93368 0.00134542 0)
(-2.03423 -0.00085656 0)
(-2.11636 0.00106806 0)
(-2.21736 -0.0010248 0)
(-2.3212 0.000633497 0)
(-2.44582 -0.000987385 0)
(-2.59759 0.000184301 0)
(-2.75875 -0.00110652 0)
(-2.94931 -0.000513014 0)
(-3.12696 -0.00135559 0)
(-3.31892 -0.000891996 0)
(-3.49354 -0.00101635 0)
(-3.6809 -0.000373654 0)
(-3.86294 0.000364046 0)
(-4.07789 0.00107573 0)
(-4.29773 0.00258664 0)
(-4.5875 0.00289093 0)
(-4.87211 0.00483341 0)
(-5.29677 0.00459054 0)
(-5.62739 0.00676678 0)
(-6.39505 0.0109446 0)
(-6.55798 -0.00532651 0)
(-8.97518 0.0544959 0)
(-2.35059 0.409462 0)
(-0.141888 -5.11959 0)
(-0.158688 -1.74853 0)
(-0.225062 -1.17507 -1.54209e-19)
(-0.303715 -0.663722 1.7292e-19)
(-0.332077 -0.309338 0)
(-0.35754 -0.112637 0)
(-0.368124 -0.0329981 0)
(-0.374369 -0.00465721 0)
(-0.380743 0.0252351 -0)
(-0.384174 0.0647733 2.78084e-18)
(-0.383486 0.109447 -2.17582e-18)
(-0.377603 0.154888 3.47153e-18)
(-0.364439 0.202455 -2.81976e-18)
(-0.400883 0.295042 0)
(-0.444749 0.432085 -5.6213e-18)
(-0.461152 0.599579 5.75443e-18)
(-0.43268 0.794758 0)
(-0.32889 0.996678 0)
(-0.124852 1.1233 0)
(0.135261 1.0477 -2.44568e-17)
(0.30763 0.700001 2.24762e-17)
(0.256195 0.288032 -4.37885e-17)
(0.170692 0.0698149 5.62887e-17)
(0.104933 -0.0658235 0)
(0.0365918 -0.177547 -1.31446e-16)
(-0.0740562 -0.235559 1.36653e-16)
(-0.161198 -0.0721826 0)
(-0.00513933 0.157039 0)
(0.32121 -0.0354059 0)
(0.0940668 -0.243556 0)
(-5.70218e-05 -0.0452004 0)
(0.0867861 -0.0856124 -0)
(0.034308 -0.130799 1.37042e-15)
(0.0062282 -0.0873323 6.30881e-22)
(0.0584939 -0.0480116 -4.62286e-16)
(0.109033 -0.0377326 0)
(0.138813 -0.0623844 0)
(0.199609 -0.10817 0)
(-0.00526775 -0.377417 0)
(0.375474 -0.332203 0)
(-0.299521 -3.74917 -1.45022e-16)
(-1.00339 -2.32869 7.69832e-17)
(-0.725686 -1.619 0)
(-1.10929 -1.4055 0)
(-1.47284 -1.4961 -0)
(-1.86065 -1.07976 3.58875e-17)
(-1.78616 -0.469388 -2.76945e-17)
(-1.66121 -0.297042 -0)
(-2.61109 -0.051912 -0)
(-6.55051 0.0235817 9.91525e-20)
(-7.06779 -0.0111152 0)
(-3.52481 -0.0276669 9.89321e-20)
(-0.660964 -0.0138278 0)
(-1.04525 0.00099138 0)
(-2.59241 3.17527e-05 0)
(-2.37019 -0.00420178 0)
(-2.27124 0.0240338 0)
(-4.46014 0.0443743 9.88812e-20)
(-3.97229 -4.87231e-05 0)
(1.00848 -0.0467871 0)
(5.876 -0.0474326 0)
(9.09552 -0.0294175 0)
(10.8746 -0.0210436 0)
(11.5006 -0.0124444 0)
(11.1171 -0.00570318 0)
(9.98275 0.00103529 0)
(8.42389 0.00368844 0)
(6.72586 0.00533324 0)
(5.09282 0.00490809 -9.92839e-20)
(3.64781 0.0060902 0)
(2.49739 0.00712521 -9.94506e-20)
(1.53414 0.0155069 0)
(0.412771 0.019053 -9.94992e-20)
(-0.230677 -0.00296638 -0)
(-1.75237 0.00974822 -9.94353e-20)
(-2.39569 0.000222048 -0)
(-2.76433 -0.0010419 0)
(-3.35901 -0.00484757 0)
(-4.2223 0.00310619 -9.9141e-20)
(-5.46079 0.00303707 -9.90732e-20)
(-6.66875 0.00950075 -9.89633e-20)
(-7.69527 0.00706464 -9.88739e-20)
(-8.14536 0.00684179 -9.8753e-20)
(-7.98332 -0.000130562 0)
(-7.47057 -0.00121088 0)
(-6.90922 -0.00603784 -9.85078e-20)
(-6.23283 -0.00120951 -9.84072e-20)
(-7.02757 0.0122413 -9.83514e-20)
(-9.37578 0.0454913 -9.82215e-20)
(-11.868 0.0423663 -9.81283e-20)
(-13.7987 0.0507146 -9.79448e-20)
(-15.0338 0.0243732 0)
(-12.2755 -0.0237724 -9.75616e-20)
(-4.43507 -0.0903132 -9.74434e-20)
(2.703 -0.0913849 -9.72977e-20)
(5.42843 -0.0360762 -9.72618e-20)
(6.01939 -0.0252635 -9.73176e-20)
(5.25222 -0.0184354 -9.74656e-20)
(3.66708 -0.00404118 0)
(1.8655 -0.0234411 -9.77193e-20)
(-1673.21 169.316 -3.05428e-15)
(-1.72061 -0.00125824 -9.77235e-20)
(-2.98968 0.00714922 -9.76519e-20)
(-4.07279 0.00309545 -9.76084e-20)
(-4.95607 0.00525486 -9.75186e-20)
(-5.71084 0.00380265 -0)
(-6.32015 0.00488302 -9.73445e-20)
(-6.84793 0.00386972 -0)
(-7.28053 0.00476228 0)
(-7.67874 0.00386654 -0)
(-8.01278 0.00472972 9.69442e-20)
(-8.33706 0.00400174 0)
(-8.61383 0.00483493 0)
(-8.89516 0.00420523 0)
(-9.13971 0.00498393 0)
(-9.39801 0.00443914 0)
(-9.62614 0.00517057 0)
(-9.87352 0.00473989 9.61646e-20)
(-10.0938 0.00544844 0)
(-10.3352 0.00520147 0)
(-10.5449 0.00599722 0)
(-10.7749 0.00597723 9.56763e-20)
(-10.9568 0.0070674 0)
(-11.1618 0.00710861 0)
(-11.3016 0.00861424 0)
(-11.4739 0.00831604 0)
(-11.5747 0.0101885 0)
(-11.7162 0.00918997 0)
(-11.792 0.0113599 9.47961e-20)
(-11.8999 0.00964373 0)
(-11.9477 0.012104 0)
(-12.0041 0.0103396 9.44601e-20)
(-12.0034 0.0132123 0)
(-12.0147 0.0115182 9.42502e-20)
(-12.0165 0.0142949 0)
(-12.0541 0.0119662 0)
(-12.1418 0.0138621 -9.39489e-20)
(-12.2336 0.0116919 0)
(-12.3533 0.0134482 9.37661e-20)
(-12.3978 0.0123622 0)
(-12.4232 0.0149231 0)
(-12.3351 0.0139342 0)
(-12.2268 0.0165814 0)
(-12.052 0.0140628 0)
(-11.8608 0.0139005 9.34839e-20)
(-11.6305 0.0169278 0)
(-11.8532 0.0220546 0)
(-12.5564 0.012335 1.103e-17)
(-13.6126 0.00628428 1.92211e-17)
(-14.5962 -0.000154181 0)
(-15.4434 -0.00125303 0)
(-16.0639 -0.0015554 0)
(-16.3557 9.32912e-05 -0)
(-16.3397 0.00155009 0)
(-15.9333 0.00274594 -3.33723e-17)
(-15.2046 0.00328564 0)
(-14.0066 0.00292645 -5.04854e-17)
(-12.4422 0.00128378 4.3933e-17)
(-10.2762 -0.00157671 0)
(-7.64563 -0.00698346 0)
(-3.95343 -0.0145888 -0)
(-0.502431 -0.0173066 1.02113e-16)
(1.64735 -0.00964208 -8.95042e-17)
(3.8959 -0.0118196 -0)
(4.82402 -0.0289967 1.37348e-16)
(3.79243 -0.0142939 -0)
(-4.73254 0.0482518 2.12225e-16)
(-3.39052 0.16476 0)
(-42.9966 0.974834 0)
(-82.5032 1.37702 0)
(-63.8526 0.418125 0)
(-26.1498 -0.13814 -0)
(-9.07854 -0.112712 3.36976e-16)
(-6.14704 -0.0345016 -3.251e-16)
(-16.1813 0.281162 0)
(-40.7412 0.721463 4.88733e-16)
(-41.9654 0.694958 0)
(-46.9715 0.804426 0)
)
;
    }
    front
    {
        type            empty;
    }
    back
    {
        type            empty;
    }
}


// ************************************************************************* //
