0.0508 	-148.102 	45.4196 	-0.193137 	0 	-0.205268 	-0.0161259 	0 	0.205243 	0 	2.42553e-05
