/*--------------------------------*- C++ -*----------------------------------*\
| =========                 |                                                 |
| \\      /  F ield         | OpenFOAM: The Open Source CFD Toolbox           |
|  \\    /   O peration     | Version:  2306                                  |
|   \\  /    A nd           | Website:  www.openfoam.com                      |
|    \\/     M anipulation  |                                                 |
\*---------------------------------------------------------------------------*/
FoamFile
{
    version     2.0;
    format      ascii;
    arch        "LSB;label=32;scalar=64";
    class       volScalarField;
    location    "2000";
    object      cp;
}
// * * * * * * * * * * * * * * * * * * * * * * * * * * * * * * * * * * * * * //

dimensions      [0 0 0 0 0 0 0];

internalField   nonuniform List<scalar> 
20540
(
0.170441
0.0746755
0.17044
0.070304
0.170438
0.066992
0.170435
0.0651094
0.170431
0.0639219
0.170425
0.0630252
0.170417
0.0623006
0.170407
0.0617064
0.170394
0.0612123
0.170378
0.0607952
0.170358
0.0604397
0.170334
0.0601356
0.170304
0.0598764
0.170269
0.0596574
0.170227
0.0594755
0.170179
0.0593287
0.170123
0.059215
0.170059
0.059132
0.16999
0.0590761
0.169916
0.0590421
0.169838
0.0590234
0.169755
0.0590158
0.169655
0.0590246
0.169507
0.0590765
0.169272
0.0592275
0.168931
0.0595236
0.16852
0.0599296
0.168102
0.0603561
0.167707
0.0607589
0.167349
0.0611219
0.1671
0.0613586
0.166991
0.0614342
0.167017
0.0613551
0.167179
0.0611207
0.167477
0.0607263
0.167872
0.0602267
0.168296
0.0597113
0.16874
0.0591888
0.169174
0.0586999
0.169534
0.0583357
0.169784
0.0581295
0.169947
0.0580304
0.170066
0.0579783
0.170168
0.0579445
0.170266
0.0579237
0.170359
0.0579199
0.170447
0.0579387
0.170526
0.0579849
0.170597
0.0580616
0.170659
0.0581708
0.170712
0.0583137
0.170757
0.0584916
0.170795
0.0587061
0.170827
0.0589598
0.170854
0.0592569
0.170876
0.0596039
0.170894
0.0600104
0.170908
0.0604915
0.170919
0.0610698
0.170928
0.0617747
0.170935
0.0626475
0.17094
0.0638066
0.170944
0.0656561
0.170946
0.0689278
0.170947
0.0732575
0.00954243
0.0111999
0.00452513
-0.00331703
-0.00976774
-0.0156851
-0.0214214
-0.0268458
-0.0319703
-0.0368426
-0.041484
-0.045907
-0.0501275
-0.0541596
-0.0580141
-0.0617015
-0.065232
-0.0686133
-0.0718545
-0.0749614
-0.0779422
-0.080802
-0.0835473
-0.0861832
-0.0887146
-0.0911464
-0.0934829
-0.0957287
-0.0978872
-0.0999627
-0.101959
-0.103878
-0.105725
-0.107502
-0.109213
-0.11086
-0.112447
-0.113977
-0.115453
-0.116879
-0.118256
-0.119591
-0.120885
-0.122144
-0.123372
-0.124574
-0.125755
-0.126921
-0.128078
-0.129232
-0.130393
-0.131566
-0.132761
-0.133987
-0.135254
-0.136572
-0.137953
-0.139411
-0.140956
-0.142606
-0.144373
-0.146279
-0.148336
-0.150208
-0.151765
-0.153361
-0.155009
-0.15671
-0.158463
-0.160271
-0.162133
-0.164053
-0.166031
-0.168072
-0.170172
-0.172347
-0.174581
-0.176915
-0.179297
-0.181836
-0.184383
-0.187226
-0.189943
-0.193324
-0.196208
-0.200661
-0.204101
-0.211138
0.00954818
0.0112013
0.0045256
-0.00331677
-0.00976756
-0.015685
-0.0214213
-0.0268457
-0.0319702
-0.0368426
-0.0414839
-0.045907
-0.0501275
-0.0541596
-0.0580141
-0.0617015
-0.0652319
-0.0686133
-0.0718545
-0.0749614
-0.0779422
-0.080802
-0.0835473
-0.0861832
-0.0887146
-0.0911464
-0.0934829
-0.0957287
-0.0978872
-0.0999627
-0.101959
-0.103878
-0.105725
-0.107502
-0.109213
-0.11086
-0.112447
-0.113977
-0.115453
-0.116879
-0.118256
-0.119591
-0.120885
-0.122144
-0.123372
-0.124574
-0.125755
-0.126921
-0.128078
-0.129232
-0.130393
-0.131566
-0.132761
-0.133987
-0.135254
-0.136572
-0.137953
-0.139411
-0.140956
-0.142606
-0.144373
-0.14628
-0.148336
-0.150208
-0.151765
-0.153361
-0.15501
-0.15671
-0.158463
-0.160271
-0.162133
-0.164054
-0.166031
-0.168072
-0.170172
-0.172348
-0.174582
-0.176915
-0.179298
-0.181837
-0.184384
-0.187227
-0.189944
-0.193326
-0.196211
-0.200662
-0.204108
-0.210951
0.00955097
0.0112038
0.00452661
-0.00331618
-0.00976714
-0.0156847
-0.021421
-0.0268455
-0.0319701
-0.0368425
-0.0414838
-0.0459069
-0.0501274
-0.0541595
-0.058014
-0.0617014
-0.0652319
-0.0686133
-0.0718545
-0.0749614
-0.0779421
-0.0808019
-0.0835472
-0.0861831
-0.0887146
-0.0911464
-0.0934829
-0.0957287
-0.0978871
-0.0999627
-0.101958
-0.103878
-0.105725
-0.107502
-0.109213
-0.11086
-0.112447
-0.113977
-0.115453
-0.116879
-0.118256
-0.119591
-0.120885
-0.122144
-0.123372
-0.124574
-0.125755
-0.126921
-0.128078
-0.129232
-0.130393
-0.131566
-0.132761
-0.133987
-0.135254
-0.136572
-0.137954
-0.139411
-0.140956
-0.142607
-0.144373
-0.14628
-0.148336
-0.150209
-0.151765
-0.153362
-0.15501
-0.156711
-0.158464
-0.160272
-0.162134
-0.164055
-0.166032
-0.168074
-0.170174
-0.172349
-0.174583
-0.176917
-0.1793
-0.181839
-0.184387
-0.18723
-0.189948
-0.19333
-0.196217
-0.200666
-0.20412
-0.210653
0.00955292
0.0112073
0.00452821
-0.00331522
-0.00976645
-0.0156842
-0.0214206
-0.0268452
-0.0319698
-0.0368422
-0.0414836
-0.0459067
-0.0501272
-0.0541594
-0.0580139
-0.0617013
-0.0652318
-0.0686132
-0.0718544
-0.0749613
-0.0779421
-0.0808019
-0.0835472
-0.0861831
-0.0887145
-0.0911463
-0.0934829
-0.0957287
-0.0978871
-0.0999626
-0.101958
-0.103878
-0.105725
-0.107502
-0.109213
-0.11086
-0.112447
-0.113977
-0.115453
-0.116879
-0.118256
-0.119591
-0.120885
-0.122144
-0.123372
-0.124574
-0.125755
-0.126921
-0.128078
-0.129233
-0.130393
-0.131566
-0.132761
-0.133987
-0.135254
-0.136573
-0.137954
-0.139411
-0.140957
-0.142607
-0.144373
-0.14628
-0.148337
-0.15021
-0.151766
-0.153363
-0.155011
-0.156712
-0.158465
-0.160273
-0.162136
-0.164056
-0.166034
-0.168076
-0.170176
-0.172352
-0.174586
-0.17692
-0.179303
-0.181843
-0.184391
-0.187236
-0.189953
-0.193336
-0.196226
-0.200669
-0.204131
-0.210379
0.00955224
0.011211
0.00453024
-0.00331394
-0.00976551
-0.0156835
-0.0214201
-0.0268447
-0.0319694
-0.0368419
-0.0414834
-0.0459065
-0.050127
-0.0541592
-0.0580138
-0.0617012
-0.0652317
-0.0686131
-0.0718543
-0.0749612
-0.077942
-0.0808018
-0.0835471
-0.086183
-0.0887145
-0.0911463
-0.0934828
-0.0957286
-0.0978871
-0.0999626
-0.101958
-0.103878
-0.105725
-0.107502
-0.109213
-0.11086
-0.112447
-0.113977
-0.115453
-0.116879
-0.118256
-0.119591
-0.120885
-0.122144
-0.123372
-0.124574
-0.125755
-0.126921
-0.128078
-0.129233
-0.130393
-0.131566
-0.132761
-0.133987
-0.135254
-0.136573
-0.137954
-0.139412
-0.140957
-0.142607
-0.144374
-0.146281
-0.148338
-0.150211
-0.151767
-0.153364
-0.155013
-0.156713
-0.158467
-0.160275
-0.162138
-0.164059
-0.166037
-0.168078
-0.170179
-0.172355
-0.17459
-0.176925
-0.179308
-0.181849
-0.184396
-0.187242
-0.18996
-0.193344
-0.196237
-0.200672
-0.204131
-0.210184
0.00954642
0.0112146
0.00453261
-0.00331238
-0.00976432
-0.0156826
-0.0214194
-0.0268441
-0.0319689
-0.0368415
-0.041483
-0.0459062
-0.0501268
-0.054159
-0.0580135
-0.061701
-0.0652315
-0.0686129
-0.0718542
-0.0749611
-0.0779418
-0.0808017
-0.083547
-0.0861829
-0.0887144
-0.0911462
-0.0934827
-0.0957286
-0.097887
-0.0999625
-0.101958
-0.103878
-0.105725
-0.107502
-0.109213
-0.11086
-0.112447
-0.113977
-0.115453
-0.116879
-0.118256
-0.119591
-0.120885
-0.122144
-0.123372
-0.124574
-0.125755
-0.126921
-0.128078
-0.129233
-0.130393
-0.131566
-0.132761
-0.133987
-0.135254
-0.136573
-0.137954
-0.139412
-0.140958
-0.142608
-0.144375
-0.146282
-0.148339
-0.150212
-0.151769
-0.153366
-0.155014
-0.156715
-0.158469
-0.160277
-0.16214
-0.164062
-0.16604
-0.168082
-0.170183
-0.17236
-0.174594
-0.17693
-0.179313
-0.181855
-0.184403
-0.187251
-0.189969
-0.193353
-0.19625
-0.200671
-0.204113
-0.210057
0.00953285
0.0112178
0.0045352
-0.00331055
-0.00976286
-0.0156814
-0.0214185
-0.0268434
-0.0319683
-0.036841
-0.0414826
-0.0459058
-0.0501264
-0.0541586
-0.0580133
-0.0617007
-0.0652313
-0.0686127
-0.071854
-0.0749609
-0.0779417
-0.0808015
-0.0835469
-0.0861828
-0.0887143
-0.0911461
-0.0934826
-0.0957285
-0.0978869
-0.0999624
-0.101958
-0.103878
-0.105725
-0.107502
-0.109213
-0.11086
-0.112447
-0.113977
-0.115453
-0.116878
-0.118256
-0.11959
-0.120885
-0.122144
-0.123372
-0.124574
-0.125755
-0.126921
-0.128078
-0.129233
-0.130393
-0.131566
-0.132761
-0.133988
-0.135255
-0.136574
-0.137955
-0.139413
-0.140958
-0.142609
-0.144376
-0.146283
-0.14834
-0.150213
-0.15177
-0.153368
-0.155017
-0.156718
-0.158472
-0.16028
-0.162144
-0.164065
-0.166044
-0.168086
-0.170188
-0.172365
-0.1746
-0.176936
-0.17932
-0.181863
-0.18441
-0.18726
-0.189978
-0.193362
-0.196262
-0.200667
-0.204075
-0.209941
0.00950873
0.0112202
0.00453788
-0.0033085
-0.00976114
-0.01568
-0.0214173
-0.0268425
-0.0319675
-0.0368403
-0.041482
-0.0459053
-0.050126
-0.0541582
-0.0580129
-0.0617004
-0.065231
-0.0686125
-0.0718537
-0.0749607
-0.0779415
-0.0808013
-0.0835467
-0.0861826
-0.0887141
-0.0911459
-0.0934825
-0.0957283
-0.0978868
-0.0999623
-0.101958
-0.103878
-0.105725
-0.107502
-0.109213
-0.11086
-0.112447
-0.113977
-0.115453
-0.116878
-0.118256
-0.11959
-0.120885
-0.122144
-0.123372
-0.124574
-0.125755
-0.126921
-0.128078
-0.129233
-0.130393
-0.131567
-0.132762
-0.133988
-0.135255
-0.136574
-0.137956
-0.139414
-0.140959
-0.14261
-0.144377
-0.146285
-0.148342
-0.150215
-0.151773
-0.15337
-0.155019
-0.156721
-0.158475
-0.160284
-0.162148
-0.164069
-0.166048
-0.168091
-0.170193
-0.172371
-0.174606
-0.176943
-0.179327
-0.181871
-0.184419
-0.187269
-0.189987
-0.19337
-0.196271
-0.200655
-0.204017
-0.209785
0.00947094
0.0112214
0.00454045
-0.00330632
-0.00975916
-0.0156784
-0.021416
-0.0268413
-0.0319666
-0.0368395
-0.0414813
-0.0459047
-0.0501254
-0.0541577
-0.0580125
-0.0617
-0.0652306
-0.0686121
-0.0718534
-0.0749604
-0.0779412
-0.0808011
-0.0835465
-0.0861824
-0.0887139
-0.0911458
-0.0934823
-0.0957282
-0.0978866
-0.0999622
-0.101958
-0.103878
-0.105725
-0.107502
-0.109213
-0.11086
-0.112447
-0.113977
-0.115453
-0.116878
-0.118256
-0.11959
-0.120885
-0.122144
-0.123372
-0.124574
-0.125755
-0.126921
-0.128078
-0.129233
-0.130393
-0.131567
-0.132762
-0.133988
-0.135256
-0.136575
-0.137956
-0.139414
-0.14096
-0.142611
-0.144378
-0.146286
-0.148344
-0.150218
-0.151775
-0.153373
-0.155022
-0.156724
-0.158479
-0.160288
-0.162152
-0.164074
-0.166054
-0.168097
-0.170199
-0.172378
-0.174613
-0.176951
-0.179335
-0.18188
-0.184427
-0.187278
-0.189996
-0.193374
-0.196276
-0.200629
-0.203938
-0.209568
0.00941607
0.0112206
0.00454263
-0.00330418
-0.009757
-0.0156765
-0.0214143
-0.0268399
-0.0319654
-0.0368384
-0.0414803
-0.0459039
-0.0501247
-0.0541571
-0.0580119
-0.0616995
-0.0652301
-0.0686117
-0.071853
-0.07496
-0.0779409
-0.0808008
-0.0835462
-0.0861822
-0.0887137
-0.0911455
-0.0934821
-0.095728
-0.0978864
-0.099962
-0.101958
-0.103878
-0.105725
-0.107502
-0.109212
-0.11086
-0.112447
-0.113977
-0.115453
-0.116878
-0.118256
-0.11959
-0.120885
-0.122144
-0.123372
-0.124574
-0.125755
-0.126921
-0.128078
-0.129233
-0.130393
-0.131567
-0.132762
-0.133989
-0.135256
-0.136575
-0.137957
-0.139415
-0.140961
-0.142613
-0.14438
-0.146288
-0.148346
-0.15022
-0.151778
-0.153376
-0.155026
-0.156728
-0.158483
-0.160293
-0.162157
-0.16408
-0.166059
-0.168103
-0.170206
-0.172385
-0.174621
-0.176959
-0.179343
-0.181888
-0.184435
-0.187285
-0.190002
-0.193372
-0.196273
-0.200581
-0.203828
-0.209286
0.00934066
0.0112169
0.00454404
-0.00330233
-0.00975477
-0.0156743
-0.0214125
-0.0268383
-0.0319639
-0.0368372
-0.0414792
-0.0459029
-0.0501238
-0.0541563
-0.0580112
-0.0616988
-0.0652295
-0.0686112
-0.0718525
-0.0749596
-0.0779405
-0.0808004
-0.0835458
-0.0861818
-0.0887134
-0.0911452
-0.0934818
-0.0957277
-0.0978862
-0.0999618
-0.101958
-0.103877
-0.105724
-0.107502
-0.109212
-0.110859
-0.112447
-0.113977
-0.115453
-0.116878
-0.118256
-0.11959
-0.120885
-0.122144
-0.123372
-0.124574
-0.125755
-0.126921
-0.128078
-0.129233
-0.130394
-0.131567
-0.132763
-0.133989
-0.135257
-0.136576
-0.137958
-0.139416
-0.140963
-0.142614
-0.144382
-0.14629
-0.148349
-0.150223
-0.151781
-0.15338
-0.15503
-0.156732
-0.158487
-0.160297
-0.162162
-0.164085
-0.166065
-0.16811
-0.170212
-0.172392
-0.174628
-0.176966
-0.179349
-0.181895
-0.18444
-0.187288
-0.190002
-0.193358
-0.196256
-0.200502
-0.203673
-0.208927
0.00924142
0.011209
0.00454418
-0.00330112
-0.00975269
-0.0156721
-0.0214104
-0.0268364
-0.0319622
-0.0368356
-0.0414779
-0.0459017
-0.0501227
-0.0541553
-0.0580103
-0.061698
-0.0652288
-0.0686105
-0.0718519
-0.074959
-0.0779399
-0.0807999
-0.0835454
-0.0861814
-0.088713
-0.0911449
-0.0934815
-0.0957274
-0.0978859
-0.0999615
-0.101957
-0.103877
-0.105724
-0.107501
-0.109212
-0.110859
-0.112446
-0.113976
-0.115453
-0.116878
-0.118256
-0.11959
-0.120885
-0.122144
-0.123372
-0.124574
-0.125755
-0.126921
-0.128078
-0.129233
-0.130394
-0.131567
-0.132763
-0.13399
-0.135257
-0.136577
-0.137959
-0.139418
-0.140964
-0.142616
-0.144384
-0.146293
-0.148351
-0.150226
-0.151785
-0.153383
-0.155033
-0.156736
-0.158492
-0.160302
-0.162167
-0.164091
-0.166071
-0.168115
-0.170218
-0.172397
-0.174633
-0.176971
-0.179353
-0.181897
-0.184439
-0.187282
-0.189993
-0.193327
-0.196217
-0.200376
-0.203457
-0.208472
0.0091156
0.0111957
0.00454247
-0.00330106
-0.00975106
-0.01567
-0.0214082
-0.0268343
-0.0319603
-0.0368339
-0.0414763
-0.0459002
-0.0501214
-0.0541541
-0.0580092
-0.061697
-0.0652279
-0.0686096
-0.0718511
-0.0749583
-0.0779393
-0.0807993
-0.0835448
-0.0861808
-0.0887124
-0.0911444
-0.093481
-0.0957269
-0.0978855
-0.0999611
-0.101957
-0.103877
-0.105724
-0.107501
-0.109212
-0.110859
-0.112446
-0.113976
-0.115452
-0.116878
-0.118256
-0.11959
-0.120884
-0.122143
-0.123372
-0.124574
-0.125755
-0.126921
-0.128078
-0.129233
-0.130394
-0.131568
-0.132763
-0.13399
-0.135258
-0.136577
-0.13796
-0.139419
-0.140965
-0.142617
-0.144385
-0.146295
-0.148353
-0.150229
-0.151787
-0.153386
-0.155037
-0.15674
-0.158495
-0.160306
-0.162171
-0.164094
-0.166074
-0.168119
-0.170221
-0.1724
-0.174634
-0.176971
-0.179351
-0.181891
-0.18443
-0.187262
-0.189968
-0.193267
-0.196144
-0.200188
-0.203162
-0.207904
0.00896156
0.0111753
0.00453824
-0.00330275
-0.00975033
-0.0156682
-0.021406
-0.0268321
-0.0319581
-0.0368319
-0.0414744
-0.0458985
-0.0501198
-0.0541527
-0.0580079
-0.0616958
-0.0652268
-0.0686086
-0.0718502
-0.0749574
-0.0779384
-0.0807985
-0.083544
-0.0861801
-0.0887118
-0.0911437
-0.0934804
-0.0957264
-0.0978849
-0.0999606
-0.101957
-0.103876
-0.105723
-0.107501
-0.109211
-0.110859
-0.112446
-0.113976
-0.115452
-0.116877
-0.118255
-0.11959
-0.120884
-0.122143
-0.123371
-0.124574
-0.125755
-0.126921
-0.128078
-0.129233
-0.130394
-0.131568
-0.132763
-0.13399
-0.135258
-0.136578
-0.13796
-0.139419
-0.140966
-0.142618
-0.144387
-0.146296
-0.148355
-0.15023
-0.151789
-0.153388
-0.155039
-0.156742
-0.158497
-0.160308
-0.162173
-0.164096
-0.166075
-0.168118
-0.170219
-0.172397
-0.174629
-0.176963
-0.179339
-0.181872
-0.184405
-0.18722
-0.189917
-0.193166
-0.19602
-0.199918
-0.202768
-0.207204
0.00877961
0.0111459
0.00453081
-0.0033069
-0.00975109
-0.0156671
-0.0214043
-0.02683
-0.031956
-0.0368297
-0.0414724
-0.0458966
-0.050118
-0.054151
-0.0580063
-0.0616943
-0.0652254
-0.0686073
-0.071849
-0.0749562
-0.0779374
-0.0807975
-0.0835431
-0.0861793
-0.0887109
-0.091143
-0.0934797
-0.0957257
-0.0978843
-0.0999599
-0.101956
-0.103876
-0.105723
-0.1075
-0.109211
-0.110858
-0.112445
-0.113975
-0.115452
-0.116877
-0.118255
-0.119589
-0.120884
-0.122143
-0.123371
-0.124573
-0.125755
-0.126921
-0.128078
-0.129233
-0.130394
-0.131568
-0.132763
-0.13399
-0.135258
-0.136578
-0.13796
-0.13942
-0.140966
-0.142619
-0.144387
-0.146297
-0.148356
-0.150231
-0.151789
-0.153388
-0.155038
-0.156741
-0.158496
-0.160306
-0.16217
-0.164092
-0.166069
-0.168111
-0.17021
-0.172384
-0.174612
-0.176941
-0.179311
-0.181833
-0.184356
-0.187144
-0.189826
-0.193006
-0.195823
-0.19954
-0.202249
-0.206353
0.00857318
0.0111055
0.00451957
-0.00331428
-0.00975403
-0.0156674
-0.0214033
-0.0268283
-0.0319539
-0.0368276
-0.0414702
-0.0458945
-0.050116
-0.0541491
-0.0580045
-0.0616926
-0.0652238
-0.0686058
-0.0718475
-0.0749549
-0.0779361
-0.0807963
-0.0835419
-0.0861782
-0.0887099
-0.091142
-0.0934787
-0.0957248
-0.0978834
-0.0999591
-0.101955
-0.103875
-0.105722
-0.107499
-0.10921
-0.110857
-0.112445
-0.113975
-0.115451
-0.116876
-0.118254
-0.119589
-0.120883
-0.122142
-0.123371
-0.124573
-0.125754
-0.12692
-0.128077
-0.129233
-0.130393
-0.131567
-0.132763
-0.13399
-0.135258
-0.136577
-0.13796
-0.139419
-0.140966
-0.142618
-0.144386
-0.146295
-0.148354
-0.150228
-0.151786
-0.153385
-0.155034
-0.156735
-0.158489
-0.160297
-0.16216
-0.164079
-0.166054
-0.168093
-0.170187
-0.172356
-0.174578
-0.176897
-0.179257
-0.181761
-0.184269
-0.187018
-0.189676
-0.192763
-0.195523
-0.199026
-0.201578
-0.20533
0.00835032
0.0110518
0.00450403
-0.00332558
-0.0097599
-0.0156697
-0.0214036
-0.0268275
-0.0319524
-0.0368257
-0.0414681
-0.0458923
-0.0501139
-0.054147
-0.0580024
-0.0616907
-0.0652219
-0.068604
-0.0718458
-0.0749533
-0.0779346
-0.0807948
-0.0835406
-0.0861769
-0.0887086
-0.0911408
-0.0934776
-0.0957237
-0.0978823
-0.0999581
-0.101954
-0.103874
-0.105721
-0.107499
-0.109209
-0.110857
-0.112444
-0.113974
-0.11545
-0.116876
-0.118254
-0.119588
-0.120883
-0.122142
-0.12337
-0.124572
-0.125753
-0.126919
-0.128077
-0.129232
-0.130392
-0.131566
-0.132762
-0.133989
-0.135256
-0.136576
-0.137958
-0.139417
-0.140963
-0.142614
-0.144382
-0.14629
-0.148348
-0.15022
-0.151778
-0.153375
-0.155022
-0.156722
-0.158473
-0.160279
-0.162138
-0.164053
-0.166024
-0.168056
-0.170144
-0.172303
-0.174515
-0.176819
-0.179164
-0.18164
-0.184125
-0.186819
-0.189437
-0.192405
-0.195084
-0.198342
-0.200722
-0.204117
0.00812518
0.0109824
0.00448388
-0.00334137
-0.00976939
-0.0156747
-0.0214059
-0.026828
-0.0319518
-0.0368244
-0.0414664
-0.0458904
-0.0501118
-0.0541449
-0.0580003
-0.0616886
-0.0652199
-0.068602
-0.0718439
-0.0749514
-0.0779328
-0.0807931
-0.0835389
-0.0861753
-0.0887071
-0.0911393
-0.0934762
-0.0957223
-0.097881
-0.0999569
-0.101953
-0.103873
-0.10572
-0.107497
-0.109208
-0.110856
-0.112443
-0.113973
-0.115449
-0.116875
-0.118253
-0.119587
-0.120882
-0.122141
-0.123369
-0.124571
-0.125752
-0.126918
-0.128075
-0.12923
-0.130391
-0.131564
-0.13276
-0.133986
-0.135253
-0.136572
-0.137954
-0.139412
-0.140957
-0.142607
-0.144374
-0.14628
-0.148335
-0.150205
-0.15176
-0.153355
-0.154999
-0.156696
-0.158443
-0.160244
-0.162097
-0.164006
-0.165969
-0.167992
-0.170068
-0.172213
-0.17441
-0.17669
-0.179012
-0.181448
-0.183897
-0.186515
-0.189073
-0.191894
-0.194461
-0.19745
-0.199646
-0.202689
0.00791882
0.010895
0.00445891
-0.00336195
-0.009783
-0.015683
-0.0214108
-0.0268306
-0.0319528
-0.0368242
-0.0414656
-0.045889
-0.0501101
-0.0541429
-0.0579983
-0.0616865
-0.0652177
-0.0685999
-0.0718418
-0.0749494
-0.0779308
-0.0807912
-0.083537
-0.0861734
-0.0887054
-0.0911376
-0.0934745
-0.0957207
-0.0978795
-0.0999553
-0.101951
-0.103871
-0.105719
-0.107496
-0.109207
-0.110854
-0.112442
-0.113972
-0.115448
-0.116874
-0.118251
-0.119586
-0.12088
-0.122139
-0.123368
-0.124569
-0.125751
-0.126916
-0.128073
-0.129228
-0.130388
-0.131561
-0.132756
-0.133982
-0.135248
-0.136566
-0.137946
-0.139403
-0.140947
-0.142595
-0.144359
-0.146262
-0.148313
-0.150179
-0.15173
-0.153321
-0.15496
-0.15665
-0.158391
-0.160184
-0.162028
-0.163927
-0.165877
-0.167885
-0.169945
-0.172068
-0.17424
-0.176486
-0.178772
-0.181152
-0.183546
-0.186066
-0.188536
-0.191182
-0.193603
-0.196309
-0.19831
-0.201018
0.00775826
0.0107885
0.00442922
-0.00338729
-0.00980091
-0.0156948
-0.0214188
-0.0268359
-0.0319559
-0.0368258
-0.041466
-0.0458886
-0.0501092
-0.0541416
-0.0579966
-0.0616847
-0.0652158
-0.0685979
-0.0718397
-0.0749473
-0.0779287
-0.0807891
-0.083535
-0.0861714
-0.0887034
-0.0911356
-0.0934726
-0.0957189
-0.0978777
-0.0999536
-0.10195
-0.10387
-0.105717
-0.107494
-0.109205
-0.110853
-0.11244
-0.11397
-0.115447
-0.116872
-0.11825
-0.119584
-0.120879
-0.122138
-0.123366
-0.124567
-0.125748
-0.126914
-0.12807
-0.129224
-0.130384
-0.131556
-0.13275
-0.133975
-0.13524
-0.136556
-0.137934
-0.139388
-0.140929
-0.142574
-0.144333
-0.146231
-0.148276
-0.150134
-0.15168
-0.153264
-0.154895
-0.156576
-0.158306
-0.160087
-0.161917
-0.163799
-0.165731
-0.167716
-0.16975
-0.17184
-0.173975
-0.176173
-0.178406
-0.180709
-0.183024
-0.185419
-0.187766
-0.190213
-0.192454
-0.194872
-0.196669
-0.199065
0.00767462
0.0106635
0.00439557
-0.00341706
-0.00982289
-0.0157102
-0.0214301
-0.0268441
-0.0319616
-0.0368296
-0.0414683
-0.0458898
-0.0501096
-0.0541413
-0.0579958
-0.0616835
-0.0652143
-0.0685963
-0.0718379
-0.0749454
-0.0779268
-0.0807871
-0.0835329
-0.0861694
-0.0887013
-0.0911336
-0.0934706
-0.0957168
-0.0978757
-0.0999516
-0.101948
-0.103868
-0.105715
-0.107493
-0.109203
-0.110851
-0.112438
-0.113968
-0.115445
-0.11687
-0.118248
-0.119582
-0.120876
-0.122135
-0.123363
-0.124564
-0.125745
-0.12691
-0.128065
-0.129219
-0.130377
-0.131548
-0.13274
-0.133963
-0.135226
-0.136539
-0.137914
-0.139364
-0.140901
-0.142539
-0.144292
-0.146181
-0.148216
-0.150064
-0.151599
-0.153173
-0.154791
-0.156458
-0.158172
-0.159934
-0.161743
-0.163601
-0.165504
-0.167455
-0.16945
-0.171493
-0.173575
-0.175704
-0.17786
-0.180061
-0.182266
-0.184509
-0.186697
-0.188921
-0.190954
-0.193084
-0.194674
-0.196779
0.00770065
0.0105235
0.00435959
-0.00345061
-0.00984833
-0.0157286
-0.0214444
-0.0268553
-0.0319701
-0.0368359
-0.041473
-0.0458931
-0.0501117
-0.0541425
-0.0579963
-0.0616834
-0.0652138
-0.0685954
-0.0718367
-0.074944
-0.0779252
-0.0807854
-0.0835311
-0.0861674
-0.0886993
-0.0911316
-0.0934686
-0.0957148
-0.0978736
-0.0999495
-0.101946
-0.103866
-0.105713
-0.107491
-0.109201
-0.110849
-0.112436
-0.113966
-0.115442
-0.116868
-0.118245
-0.119579
-0.120873
-0.122132
-0.123359
-0.12456
-0.12574
-0.126904
-0.128058
-0.12921
-0.130367
-0.131536
-0.132726
-0.133946
-0.135205
-0.136514
-0.137884
-0.139327
-0.140856
-0.142486
-0.144228
-0.146104
-0.148123
-0.149954
-0.151474
-0.153032
-0.154631
-0.156276
-0.157965
-0.1597
-0.161477
-0.163298
-0.165159
-0.167061
-0.169
-0.170976
-0.17298
-0.175016
-0.177066
-0.179137
-0.181195
-0.183255
-0.18525
-0.187233
-0.189037
-0.190884
-0.192266
-0.194096
0.00786683
0.0103778
0.00432328
-0.00348708
-0.00987632
-0.0157488
-0.0214608
-0.0268689
-0.031981
-0.0368446
-0.0414799
-0.0458985
-0.0501159
-0.0541456
-0.0579985
-0.0616849
-0.0652146
-0.0685957
-0.0718366
-0.0749435
-0.0779244
-0.0807844
-0.0835299
-0.086166
-0.0886977
-0.0911299
-0.0934668
-0.0957129
-0.0978717
-0.0999476
-0.101944
-0.103864
-0.105711
-0.107488
-0.109199
-0.110847
-0.112434
-0.113964
-0.11544
-0.116865
-0.118242
-0.119576
-0.12087
-0.122128
-0.123354
-0.124554
-0.125733
-0.126895
-0.128048
-0.129198
-0.130352
-0.131518
-0.132704
-0.133919
-0.135173
-0.136475
-0.137837
-0.139271
-0.140789
-0.142405
-0.14413
-0.145986
-0.14798
-0.149786
-0.151284
-0.152817
-0.154387
-0.156
-0.157654
-0.159347
-0.161077
-0.162845
-0.164645
-0.166478
-0.168336
-0.170219
-0.172118
-0.174029
-0.17594
-0.177845
-0.179721
-0.18157
-0.183341
-0.185069
-0.18663
-0.188201
-0.189376
-0.190941
0.0081956
0.010244
0.00428945
-0.00352534
-0.0099058
-0.0157694
-0.0214778
-0.0268836
-0.0319934
-0.036855
-0.0414887
-0.0459058
-0.050122
-0.0541506
-0.0580025
-0.061688
-0.065217
-0.0685974
-0.0718378
-0.0749443
-0.0779247
-0.0807845
-0.0835297
-0.0861655
-0.088697
-0.091129
-0.0934657
-0.0957116
-0.0978702
-0.0999461
-0.101942
-0.103862
-0.105709
-0.107486
-0.109197
-0.110844
-0.112431
-0.113961
-0.115437
-0.116862
-0.118239
-0.119572
-0.120865
-0.122122
-0.123348
-0.124546
-0.125723
-0.126884
-0.128034
-0.12918
-0.13033
-0.131491
-0.132671
-0.133879
-0.135125
-0.136417
-0.137767
-0.139187
-0.140687
-0.142282
-0.143983
-0.145808
-0.147766
-0.149535
-0.150999
-0.152495
-0.154024
-0.155589
-0.15719
-0.158824
-0.160488
-0.162179
-0.163895
-0.16563
-0.167378
-0.169136
-0.170894
-0.172646
-0.174378
-0.176084
-0.177744
-0.179354
-0.180879
-0.182342
-0.183654
-0.184954
-0.185924
-0.18723
0.00869404
0.0101404
0.00426738
-0.00356313
-0.00993556
-0.0157889
-0.0214939
-0.0268979
-0.0320057
-0.0368658
-0.0414982
-0.0459141
-0.0501293
-0.0541568
-0.0580079
-0.0616927
-0.0652209
-0.0686007
-0.0718404
-0.0749465
-0.0779264
-0.0807858
-0.0835306
-0.0861661
-0.0886973
-0.091129
-0.0934655
-0.0957112
-0.0978697
-0.0999453
-0.101941
-0.103861
-0.105708
-0.107485
-0.109196
-0.110843
-0.112429
-0.113959
-0.115435
-0.116859
-0.118235
-0.119568
-0.120859
-0.122115
-0.123339
-0.124536
-0.12571
-0.126867
-0.128013
-0.129155
-0.130299
-0.131453
-0.132624
-0.133821
-0.135054
-0.136332
-0.137664
-0.139061
-0.140536
-0.1421
-0.143764
-0.145544
-0.14745
-0.149164
-0.15058
-0.152022
-0.15349
-0.154988
-0.156513
-0.158062
-0.159632
-0.161219
-0.162817
-0.164421
-0.166024
-0.167619
-0.169197
-0.170751
-0.172269
-0.173743
-0.175157
-0.176508
-0.177771
-0.178964
-0.180023
-0.181059
-0.181822
-0.18287
0.00934209
0.010075
0.00427606
-0.00359567
-0.0099638
-0.0158055
-0.0215074
-0.0269101
-0.0320164
-0.0368752
-0.0415068
-0.0459219
-0.0501364
-0.0541632
-0.0580137
-0.0616979
-0.0652256
-0.0686049
-0.071844
-0.0749497
-0.0779291
-0.0807881
-0.0835326
-0.0861677
-0.0886987
-0.0911301
-0.0934663
-0.0957118
-0.0978702
-0.0999455
-0.101941
-0.103861
-0.105707
-0.107484
-0.109195
-0.110841
-0.112428
-0.113957
-0.115432
-0.116856
-0.118231
-0.119562
-0.120853
-0.122106
-0.123328
-0.124521
-0.125692
-0.126844
-0.127984
-0.129119
-0.130254
-0.131397
-0.132555
-0.133736
-0.13495
-0.136206
-0.137512
-0.138878
-0.140314
-0.141833
-0.143443
-0.145159
-0.146987
-0.148624
-0.14997
-0.151335
-0.152718
-0.154121
-0.155541
-0.156973
-0.158415
-0.15986
-0.161303
-0.162736
-0.164151
-0.165543
-0.166903
-0.168222
-0.169492
-0.170706
-0.171853
-0.17293
-0.173922
-0.174843
-0.175649
-0.176425
-0.176982
-0.177771
0.0100821
0.0100432
0.00433472
-0.00361405
-0.00998689
-0.0158169
-0.0215162
-0.0269186
-0.0320236
-0.0368816
-0.0415127
-0.0459276
-0.0501416
-0.0541682
-0.0580184
-0.0617023
-0.0652297
-0.0686087
-0.0718476
-0.074953
-0.0779321
-0.0807909
-0.0835351
-0.08617
-0.0887007
-0.0911318
-0.0934679
-0.0957131
-0.0978714
-0.0999464
-0.101942
-0.103861
-0.105708
-0.107484
-0.109194
-0.110841
-0.112427
-0.113956
-0.11543
-0.116852
-0.118226
-0.119556
-0.120844
-0.122095
-0.123313
-0.124502
-0.125666
-0.126812
-0.127943
-0.129067
-0.130189
-0.131316
-0.132455
-0.133614
-0.134801
-0.136024
-0.13729
-0.13861
-0.139992
-0.141445
-0.142979
-0.144602
-0.146321
-0.147848
-0.149096
-0.150354
-0.15162
-0.152894
-0.154173
-0.155451
-0.156724
-0.157984
-0.159226
-0.160444
-0.161631
-0.162782
-0.163888
-0.164942
-0.16594
-0.166874
-0.16774
-0.168535
-0.169252
-0.169902
-0.170457
-0.17098
-0.171332
-0.171864
0.0108416
0.0100164
0.00444188
-0.00360799
-0.00999955
-0.0158195
-0.0215179
-0.0269216
-0.0320259
-0.0368835
-0.0415147
-0.0459295
-0.0501436
-0.0541702
-0.0580204
-0.0617044
-0.0652317
-0.0686108
-0.0718496
-0.0749551
-0.0779341
-0.0807928
-0.0835369
-0.0861718
-0.0887024
-0.0911334
-0.0934694
-0.0957145
-0.0978727
-0.0999476
-0.101943
-0.103862
-0.105708
-0.107485
-0.109194
-0.110841
-0.112426
-0.113954
-0.115426
-0.116847
-0.11822
-0.119547
-0.120833
-0.12208
-0.123292
-0.124475
-0.125631
-0.126766
-0.127885
-0.128993
-0.130096
-0.131201
-0.132313
-0.133439
-0.134586
-0.135761
-0.136972
-0.138227
-0.139531
-0.140892
-0.142317
-0.143812
-0.145378
-0.146753
-0.147867
-0.148981
-0.15009
-0.151194
-0.152288
-0.153368
-0.154426
-0.155458
-0.156459
-0.157423
-0.158346
-0.159222
-0.160045
-0.160812
-0.161519
-0.162163
-0.162741
-0.163255
-0.1637
-0.164086
-0.164396
-0.164676
-0.164827
-0.165109
0.0115897
0.00997491
0.00456232
-0.00358788
-0.0100033
-0.0158123
-0.0215119
-0.0269184
-0.0320227
-0.0368804
-0.041512
-0.0459272
-0.0501416
-0.0541685
-0.058019
-0.0617033
-0.0652309
-0.0686102
-0.0718492
-0.0749548
-0.077934
-0.0807928
-0.0835371
-0.086172
-0.0887027
-0.0911338
-0.0934698
-0.095715
-0.0978732
-0.0999481
-0.101943
-0.103862
-0.105708
-0.107485
-0.109194
-0.11084
-0.112424
-0.113951
-0.115422
-0.116841
-0.118212
-0.119536
-0.120817
-0.122059
-0.123264
-0.124437
-0.125581
-0.126702
-0.127803
-0.128889
-0.129965
-0.131037
-0.13211
-0.133189
-0.13428
-0.135389
-0.136522
-0.137684
-0.13888
-0.140114
-0.14139
-0.142709
-0.14407
-0.145246
-0.146185
-0.147111
-0.148018
-0.148906
-0.149771
-0.150607
-0.15141
-0.152176
-0.152901
-0.153581
-0.154212
-0.154791
-0.155316
-0.155785
-0.156197
-0.156551
-0.156848
-0.15709
-0.157276
-0.157413
-0.157493
-0.157546
-0.15751
-0.157556
0.012277
0.00994374
0.00467631
-0.00357184
-0.0100099
-0.015806
-0.0215067
-0.0269146
-0.0320183
-0.0368761
-0.0415078
-0.0459232
-0.0501377
-0.0541648
-0.0580156
-0.0617001
-0.0652279
-0.0686075
-0.0718467
-0.0749526
-0.077932
-0.0807911
-0.0835355
-0.0861706
-0.0887015
-0.0911327
-0.0934689
-0.0957141
-0.0978724
-0.0999474
-0.101943
-0.103862
-0.105707
-0.107483
-0.109192
-0.110837
-0.112421
-0.113946
-0.115416
-0.116832
-0.118199
-0.119519
-0.120794
-0.122027
-0.123222
-0.124383
-0.125511
-0.126611
-0.127687
-0.128743
-0.129782
-0.130808
-0.131827
-0.132841
-0.133855
-0.134873
-0.135899
-0.136935
-0.137984
-0.139047
-0.140124
-0.141213
-0.14231
-0.143229
-0.143947
-0.144637
-0.145299
-0.145928
-0.146522
-0.147078
-0.147592
-0.148063
-0.148486
-0.148862
-0.149188
-0.149463
-0.149688
-0.149862
-0.149987
-0.150064
-0.150095
-0.150082
-0.150027
-0.149934
-0.149803
-0.149649
-0.149441
-0.149272
0.0127363
0.00994079
0.00476215
-0.0035568
-0.0100125
-0.0158024
-0.0215051
-0.0269144
-0.0320181
-0.0368759
-0.0415073
-0.0459226
-0.0501372
-0.0541642
-0.0580149
-0.0616993
-0.0652271
-0.0686067
-0.0718459
-0.0749518
-0.0779313
-0.0807903
-0.0835348
-0.0861699
-0.0887009
-0.0911322
-0.0934684
-0.0957136
-0.0978719
-0.0999468
-0.101942
-0.103861
-0.105706
-0.107482
-0.10919
-0.110834
-0.112417
-0.11394
-0.115408
-0.116821
-0.118184
-0.119498
-0.120765
-0.12199
-0.123173
-0.124317
-0.125426
-0.126503
-0.127549
-0.128567
-0.129562
-0.130534
-0.131488
-0.132426
-0.133349
-0.13426
-0.13516
-0.136051
-0.136931
-0.1378
-0.138654
-0.139489
-0.140299
-0.140947
-0.141433
-0.141884
-0.142296
-0.14267
-0.143002
-0.14329
-0.143535
-0.143734
-0.143887
-0.143995
-0.144058
-0.144076
-0.144052
-0.143986
-0.14388
-0.143738
-0.143561