/*--------------------------------*- C++ -*----------------------------------*\
| =========                 |                                                 |
| \\      /  F ield         | OpenFOAM: The Open Source CFD Toolbox           |
|  \\    /   O peration     | Version:  2306                                  |
|   \\  /    A nd           | Website:  www.openfoam.com                      |
|    \\/     M anipulation  |                                                 |
\*---------------------------------------------------------------------------*/
FoamFile
{
    version     2.0;
    format      ascii;
    arch        "LSB;label=32;scalar=64";
    class       volScalarField;
    location    "2000";
    object      epsilon;
}
// * * * * * * * * * * * * * * * * * * * * * * * * * * * * * * * * * * * * * //

dimensions      [0 2 -3 0 0 0 0];

internalField   nonuniform List<scalar> 
20540
(
10805.3
37859.5
10799.5
37850.4
10774.7
37814.5
10729.7
37749.8
10660.8
37650.6
10563.8
37510.4
10433.7
37321.1
10264.9
37073.2
10050.9
36755.5
9784.81
36355.2
9458.81
35856.9
9064.96
35243.6
8595.4
34496
8043.19
33593.2
7403.55
32509.4
6675.53
31210.4
5864.56
29656.4
4985.47
27802.4
4066.06
25600.9
3150.03
23017
2296.95
20038.7
1574.14
16691.3
1034.38
13057.4
686.286
9293.51
489.907
5700.15
388.01
2769.62
334.535
1112
299.403
482.112
275.276
302.058
265.721
245.218
265.137
228.937
265.704
224.856
265.589
225.243
264.935
230.421
266.015
248.815
277.128
308.096
302.473
499.249
339.299
1164.65
398.462
2902.83
514.092
5964.56
740.733
9716.47
1147.09
13653.4
1780.17
17471.1
2628.89
21003.3
3632.67
24158.1
4715.67
26904.8
5810.53
29252.6
6866.68
31232.6
7850.64
32889.6
8743.26
34272.8
9536.15
35426.1
10228.5
36386.9
10824.2
37186.8
11329.5
37849.1
11752.4
38393.4
12101.9
38837
12387
39194.8
12616
39479.8
12796.9
39703.2
12936.3
39874.6
13040.5
40002.1
13114.5
40092.6
13163
40151.9
13189.9
40185
13198.2
40195.7
6.31511e+06
3.3611e+06
2.84818e+06
2.60279e+06
2.4489e+06
2.34418e+06
2.26913e+06
2.2125e+06
2.16841e+06
2.13327e+06
2.1048e+06
2.08125e+06
2.0617e+06
2.04503e+06
2.03101e+06
2.01887e+06
2.00848e+06
1.99937e+06
1.99148e+06
1.98453e+06
1.97842e+06
1.97301e+06
1.9682e+06
1.96391e+06
1.96009e+06
1.95669e+06
1.95361e+06
1.95087e+06
1.94838e+06
1.94616e+06
1.94413e+06
1.94229e+06
1.94064e+06
1.93913e+06
1.93778e+06
1.93654e+06
1.93543e+06
1.93442e+06
1.93354e+06
1.93274e+06
1.93206e+06
1.93148e+06
1.93102e+06
1.93068e+06
1.93048e+06
1.93042e+06
1.93052e+06
1.93082e+06
1.93132e+06
1.93206e+06
1.93306e+06
1.93437e+06
1.93604e+06
1.9381e+06
1.94062e+06
1.94362e+06
1.94723e+06
1.95143e+06
1.9564e+06
1.96211e+06
1.9688e+06
1.97641e+06
1.98527e+06
1.9937e+06
2.00101e+06
2.00872e+06
2.01694e+06
2.02566e+06
2.03489e+06
2.04463e+06
2.05492e+06
2.0658e+06
2.07725e+06
2.08934e+06
2.10214e+06
2.11556e+06
2.13003e+06
2.14488e+06
2.1617e+06
2.17791e+06
2.19866e+06
2.21534e+06
2.24455e+06
2.25905e+06
2.30376e+06
2.32429e+06
2.382e+06
2.44017e+06
1.99069e+06
1.06428e+06
895450
815381
765342
731310
706942
688583
674303
662930
653722
646107
639792
634407
629881
625963
622611
619674
617129
614887
612919
611174
609624
608241
607009
605913
604923
604039
603238
602521
601868
601276
600743
600257
599822
599421
599065
598739
598452
598194
597973
597784
597633
597518
597445
597417
597440
597522
597668
597885
598185
598577
599080
599699
600462
601369
602460
603732
605237
606965
608989
611293
613972
616514
618720
621047
623524
626146
628916
631838
634916
638167
641578
645174
648966
652935
657187
661546
666434
671146
677085
681865
690050
694137
706112
711349
725389
753416
1.01923e+06
584721
494975
451829
424539
405833
392387
382234
374323
368015
362905
358675
355166
352173
349656
347476
345611
343977
342561
341313
340217
339245
338382
337612
336925
336314
335763
335269
334823
334423
334059
333729
333432
333160
332917
332694
332494
332312
332152
332007
331883
331776
331691
331625
331582
331564
331573
331615
331691
331806
331966
332176
332446
332779
333190
333678
334265
334950
335761
336691
337779
339018
340456
341818
343000
344247
345571
346969
348445
349998
351632
353352
355154
357046
359039
361109
363329
365577
368106
370495
373526
375893
379948
381973
387529
389710
396378
401888
620472
375577
320976
294251
277084
265188
256585
250066
244974
240907
237607
234874
232604
230667
229038
227626
226417
225358
224439
223630
222918
222288
221728
221228
220782
220385
220027
219706
219416
219156
218919
218704
218511
218334
218176
218030
217901
217782
217677
217582
217501
217430
217373
217328
217299
217284
217287
217310
217355
217424
217521
217649
217815
218019
218272
218572
218934
219356
219855
220428
221098
221859
222742
223576
224300
225063
225871
226723
227620
228561
229550
230586
231670
232802
233992
235219
236532
237847
239325
240698
242437
243765
246015
247128
250106
250818
255474
247324
416355
260083
224392
206695
195128
186998
181072
176559
173022
170189
167887
165977
164390
163034
161893
160903
160055
159312
158667
158099
157599
157156
156762
156411
156097
155818
155566
155340
155136
154952
154786
154634
154498
154373
154262
154159
154067
153983
153908
153841
153783
153732
153690
153657
153634
153622
153621
153633
153660
153703
153764
153846
153952
154084
154248
154443
154678
154952
155277
155649
156084
156578
157150
157689
158155
158648
159168
159714
160288
160889
161517
162174
162858
163570
164314
165077
165888
166696
167592
168422
169449
170232
171520
172139
173840
173840
177178
167405
297572
188397
163832
151705
143638
137872
133622
130366
127801
125740
124060
122664
121502
120507
119670
118943
118320
117773
117298
116880
116512
116185
115895
115636
115404
115198
115012
114845
114695
114559
114436
114324
114223
114130
114047
113971
113903
113840
113785
113734
113691
113652
113620
113594
113575
113564
113560
113566
113581
113607
113646
113700
113769
113856
113964
114093
114249
114431
114646
114893
115182
115508
115887
116242
116549
116874
117215
117572
117946
118336
118743
119167
119605
120060
120530
121014
121517
122024
122565
123079
123679
124150
124883
125216
126178
125919
128052
121012
222238
140725
122938
114462
108749
104586
101477
99073.4
97168.4
95629.1
94370.9
93321.7
92447
91696.8
91064.6
90514.4
90043
89628.7
89268.7
88951.3
88671.6
88423.4
88202.5
88005.5
87829.3
87672.5
87530.9
87403.7
87288.6
87185.1
87091
87005.4
86928.2
86857.5
86794.1
86735.7
86683.3
86635.2
86592.4
86553.4
86519.3
86489.2
86463.8
86442.7
86426.6
86415.5
86410.4
86411.7
86419.3
86434.8
86459
86492.7
86537.7
86594.3
86665.5
86750.6
86854
86974.5
87117.8
87281.4
87473.3
87689.6
87940.4
88174.6
88376.1
88589.5
88813.2
89046.7
89289.9
89542.9
89804.7
90077.6
90356
90646.2
90939.9
91245.3
91551.4
91868.5
92185.5
92504.4
92839.6
93121.2
93520.1
93687.7
94191.5
93918.4
94986.9
91491.9
171414
107616
93968.4
87943.3
83879.7
80860.1
78568.1
76777.1
75345.5
74180.9
73224.6
72423.8
71754.6
71178.7
70692.8
70268.9
69905.5
69585.5
69307.2
69061.6
68844.9
68652.5
68481
68328.1
68191.2
68069.3
67959.2
67860.2
67770.5
67689.8
67616.5
67549.6
67489.3
67434.1
67384.5
67338.7
67297.6
67259.8
67226
67195.2
67168
67143.7
67123
67105.4
67091.4
67081
67074.8
67073.2
67075.9
67083.8
67097.9
67118.4
67146.6
67182.5
67228.4
67283.3
67350.7
67429
67522.7
67629.3
67754.7
67895.5
68058.8
68210.9
68340.8
68478.6
68622.7
68772.4
68927.4
69088.2
69252.8
69424.8
69596.7
69777.7
69954.6
70143.4
70320.8
70515.4
70688.9
70882.2
71053.5
71216.1
71411.2
71484.8
71702.5
71507.6
71814.9
71325.6
135497
83950.9
72791.6
68401.4
65510.9
63330.2
61645.4
60311.2
59233.5
58349
57618.1
57002.7
56486.6
56040.6
55663.7
55333.7
55050.6
54800.6
54582.9
54390.5
54220.6
54069.5
53934.7
53814.5
53706.6
53610.6
53523.8
53445.6
53374.8
53311
53253
53200
53152.2
53108.4
53069
53032.6
52999.9
52969.6
52942.6
52917.7
52895.7
52875.9
52858.7
52843.8
52831.5
52821.8
52814.9
52811.3
52810.9
52813.8
52820.7
52832.1
52848.6
52870.2
52898.3
52932.3
52974.4
53023.4
53082.5
53149.5
53228.6
53317
53419.6
53514.8
53595.6
53681.3
53770.5
53863
53957.6
54055.8
54154.4
54258.2
54358.7
54466.6
54566.1
54677.4
54771.3
54884.7
54968.7
55078.2
55150.9
55237
55308.5
55330.6
55379.1
55272.5
55142.8
55979.7
109189
66689.2
56995.5
53658.7
51595.7
50036
48810.9
47826.1
47020.4
46351.7
45794.7
45322.2
44924.1
44578
44285
44027.2
43805.7
43609.4
43438.2
43286.7
43152.6
43033.2
42926.4
42831.2
42745.6
42669.4
42600.4
42538.2
42481.8
42430.8
42384.5
42342.2
42303.9
42268.8
42237.2
42208
42181.7
42157.2
42135.4
42115.1
42097.1
42080.8
42066.4
42053.6
42042.8
42033.8
42026.7
42022
42019.3
42019
42021.1
42026.1
42034.5
42046.1
42061.9
42081.2
42105.7
42134.2
42169.1
42208.5
42255.3
42307.3
42367.8
42423.8
42470.8
42520.6
42572.1
42625.3
42678.8
42734.5
42788.5
42846.5
42899.3
42958.3
43007.4
43066.7
43108.3
43166.9
43198
43249.5
43267.1
43301.7
43303.1
43297.5
43263.8
43187.4
42908.3
43968.3
89364.3
53899.4
45065.5
42364
40864.6
39759.3
38883.5
38169.1
37576.2
37077.3
36657.5
36297.9
35993.1
35725.9
35499.2
35298.4
35125.5
34971.6
34837.2
34717.8
34611.9
34517.5
34432.8
34357.2
34289.1
34228.5
34173.5
34123.8
34078.7
34038
34000.8
33966.8
33936.1
33907.9
33882.4
33858.8
33837.5
33817.7
33799.9
33783.4
33768.6
33754.9
33742.9
33732
33722.4
33714.2
33707.3
33701.9
33697.9
33695.3
33694.4
33695.2
33697.9
33702.8
33710
33719.2
33731.7
33746
33764.2
33784.5
33809.2
33836.2
33867.7
33896.9
33920.9
33946.4
33972.3
33999
34024.9
34052.1
34076.7
34104.2
34126.1
34152.6
34170.2
34194.4
34205.5
34226.6
34229.1
34239.7
34231
34228.2
34201.3
34176.2
34101.6
34035
33751.9
34634.8
74075.2
44294.7
35991
33631.6
32490.4
31705.9
31091.1
30585.5
30159.9
29796.2
29486.2
29217.3
28987.7
28784.3
28611.1
28456.3
28322.7
28203.1
28098.3
28004.9
27921.8
27847.4
27780.6
27720.8
27666.9
27618.8
27575.1
27535.6
27499.6
27467
27437.3
27410
27385.4
27362.6
27342.2
27323.1
27305.9
27289.8
27275.3
27261.8
27249.6
27238.3
27228.2
27218.9
27210.6
27203.1
27196.6
27191
27186.3
27182.5
27179.6
27177.7
27176.9
27177.2
27178.7
27181.2
27185.5
27190.3
27197.3
27204.8
27214.5
27224.8
27237
27248.1
27257.1
27266.4
27275.5
27284.8
27292.7
27301.4
27307.2
27315
27317.8
27323.1
27322.1
27323.3
27318
27314.7
27301.4
27291.5
27265.1
27246.5
27200.1
27167.1
27080.2
27015.3
26772.5
27428.1
62050.4
36989
29062.2
26852.1
25911.2
25337.6
24910.1
24562
24266.7
24010.3
23788.7
23593.6
23425.3
23274.1
23144.8
23027.9
22926.6
22835.3
22754.8
22682.9
22618.6
22560.8
22508.7
22462
22419.7
22381.9
22347.5
22316.3
22287.8
22262
22238.4
22216.7
22197.1
22178.9
22162.6
22147.3
22133.5
22120.5
22108.8
22097.8
22087.8
22078.5
22070.1
22062.2
22055.1
22048.5
22042.5
22037
22032.1
22027.7
22023.7
22020.2
22017.2
22014.7
22012.7
22010.9
22009.9
22008.7
22008.4
22007.7
22007.7
22007.3
22007.1
22006.7
22006.1
22005.3
22003.8
22002.3
21999.1
21996.4
21990.7
21986.6
21977.8
21971.5
21958.6
21949.3
21931.1
21918.3
21892.7
21875
21838.2
21813.6
21759.9
21723.4
21639.1
21575.5
21377.8
21849.3
52424
31358.2
23760.2
21586.1
20730.1
20277.5
19974.1
19739
19542.1
19369.5
19218.5
19083
18964.9
18856.7
18763.8
18678.5
18604.2
18536.4
18476.4
18422.5
18373.9
18330.1
18290.4
18254.6
18222.2
18193.1
18166.5
18142.4
18120.3
18100.2
18081.7
18064.8
18049.4
18035.1
18022.2
18010.1
17999.2
17988.8
17979.5
17970.7
17962.7
17955.1
17948.2
17941.6
17935.6
17929.9
17924.6
17919.6
17914.9
17910.3
17905.9
17901.6
17897.5
17893.3
17889.4
17885
17880.9
17876.1
17871.4
17865.9
17860.1
17853.4
17845.7
17838.7
17832.2
17825.7
17817.9
17810.3
17800.5
17791.7
17779.2
17769.1
17753.4
17741.6
17721.9
17708
17683.1
17666.6
17635.1
17614.7
17574.3
17548
17494.5
17457.9
17382.2
17322
17164.3
17501.5
44604.9
26955
19695.9
17503.6
16655.5
16253.6
16020.4
15858.9
15731.6
15621.7
15525.3
15437.2
15359.8
15287
15224.2
15165.2
15113.6
15065.7
15023.1
14984.4
14949.3
14917.4
14888.2
14861.9
14837.8
14816.2
14796.4
14778.3
14761.7
14746.5
14732.6
14719.6
14707.9
14697
14687.1
14677.8
14669.4
14661.4
14654.2
14647.2
14641
14634.9
14629.4
14624.1
14619.2
14614.4
14609.9
14605.4
14601.1
14596.8
14592.5
14588
14583.5
14578.6
14573.7
14568.2
14562.5
14555.9
14548.9
14540.9
14532
14522.1
14510.5
14500.1
14490.6
14481.2
14470.1
14459.6
14446.5
14434.9
14419.3
14406.5
14387.8
14373.7
14351.3
14335.8
14308.8
14291.4
14258.8
14238.2
14198.6
14173
14123.5
14088.9
14023.4
13968.6
13845.1
14086.2
38186.5
23454.1
16572.2
14348.5
13464.3
13062.5
12855.5
12733.1
12649.2
12582.2
12525.7
12473.7
12428.1
12383.7
12345.4
12308.2
12275.6
12244.5
12216.6
12190.9
12167.3
12145.7
12125.7
12107.5
12090.8
12075.7
12061.8
12048.9
12037.1
12026.3
12016.3
12006.9
11998.5
11990.5
11983.3
11976.4
11970.3
11964.3
11959
11953.8
11949.1
11944.5
11940.3
11936.2
11932.3
11928.5
11924.8
11921.1
11917.4
11913.5
11909.5
11905.3
11900.9
11896.1
11891
11885.1
11879
11871.8
11864
11855.1
11845
11833.9
11820.8
11809.2
11798.5
11788.2
11776
11764.6
11750.5
11738.1
11721.7
11708.3
11689.2
11674.8
11652.5
11637
11610.8
11593.8
11563
11543.7
11507.1
11483.8
11439.6
11408.9
11352.9
11305
11209.6
11381.1
32866.6
20613.3
14160.9
11917.4
10979.3
10546.3
10332.7
10220.6
10156.5
10114.1
10083.2
10056.4
10034.1
10011.5
9992.28
9972.57
9955.38
9938.23
9922.64
9908
9894.25
9881.44
9869.38
9858.32
9847.96
9838.6
9829.82
9821.67
9814.11
9807.12
9800.62
9794.47
9788.91
9783.6
9778.86
9774.24
9770.11
9766.05
9762.42
9758.83
9755.58
9752.36
9749.37
9746.4
9743.56
9740.68
9737.86
9734.93
9731.94
9728.74
9725.36
9721.68
9717.74
9713.29
9708.53
9702.99
9697.02
9690.06
9682.39
9673.64
9663.69
9652.69
9639.73
9628.25
9617.71
9607.57
9595.57
9584.52
9570.82
9558.88
9543.22
9530.37
9512.47
9498.72
9478.19
9463.48
9439.83
9423.95
9396.48
9378.92
9346.62
9326.17
9287.57
9261.51
9214.16
9174.5
9100.58
9222.34
28415.6
18246.5
12285.5
10047.6
9056.08
8577.17
8335.97
8212.29
8148.58
8114.15
8095.52
8083.06
8075.66
8067.95
8062.43
8055.92
8050.67
8044.57
8038.96
8033.38
8027.84
8022.48
8017.17
8012.2
8007.39
8002.99
7998.76
7994.74
7990.95
7987.39
7984.04
7980.78
7977.84
7974.94
7972.4
7969.82
7967.56
7965.24
7963.19
7961.09
7959.2
7957.24
7955.43
7953.55
7951.72
7949.8
7947.86
7945.79
7943.59
7941.14
7938.49
7935.49
7932.22
7928.46
7924.32
7919.48
7914.14
7907.92
7900.93
7893.01
7883.86
7873.83
7861.9
7851.38
7841.69
7832.4
7821.43
7811.31
7798.91
7787.97
7773.96
7762.2
7746.37
7733.78
7715.86
7702.39
7681.99
7667.5
7644.05
7628.21
7600.84
7582.94
7550.28
7528.6
7489.06
7457.75
7400.31
7486.75
24654.9
16202.4
10808.8
8608.61
7575.34
7048.65
6769.73
6620.75
6542.78
6502.7
6484.37
6476.19
6475.32
6475.75
6478.2
6480.43
6483.38
6485.29
6487.13
6488.54
6489.47
6490.09
6490.31
6490.39
6490.25
6490.08
6489.74
6489.3
6488.8
6488.26
6487.69
6487
6486.41
6485.69
6485.14
6484.43
6483.86
6483.14
6482.57
6481.84
6481.23
6480.46
6479.76
6478.93
6478.07
6477.08
6476.03
6474.82
6473.44
6471.8
6469.93
6467.73
6465.21
6462.26
6458.91
6454.97
6450.49
6445.27
6439.27
6432.5
6424.56
6415.87
6405.48
6396.28
6387.83
6379.69
6370.15
6361.25
6350.53
6340.87
6328.87
6318.44
6305
6293.77
6278.7
6266.65
6249.64
6236.65
6217.25
6203.12
6180.59
6164.91
6138.12
6120.01
6087.8
6063.63
6019.29
6080.52
21387.4
14414.8
9623.26
7494.84
6437.91
5870.32
5552.65
5372.31
5271.32
5215.88
5188.33
5175.73
5173.72
5175.55
5180.61
5186.78
5193.96
5200.6
5207.11
5213.2
5218.65
5223.62
5227.96
5231.95
5235.44
5238.66
5241.48
5243.98
5246.24
5248.23
5250.05
5251.57
5253.03
5254.22
5255.42
5256.36
5257.33
5258.05
5258.81
5259.34
5259.9
5260.23
5260.57
5260.73
5260.75
5260.69
5260.49
5260.13
5259.54
5258.69
5257.64
5256.26
5254.55
5252.45
5249.92
5246.93
5243.4
5239.26
5234.39
5228.86
5222.28
5215.06
5206.38
5198.63
5191.55
5184.62
5176.64
5169.02
5160.08
5151.76
5141.8
5132.75
5121.66
5111.87
5099.51
5088.93
5075.07
5063.64
5047.91
5035.5
5017.32
5003.72
4982.25
4967.09
4941.5
4923.08
4889.19
4932.41
18425.5
12837.3
8641.5
6619.84
5561.06
4964.87
4613.92
4402.69
4275.67
4199.73
4156.79
4133.33
4123.74
4121.45
4123.96
4129.46
4136.81
4144.78
4152.98
4161.22
4169
4176.45
4183.3
4189.82
4195.75
4201.34
4206.44
4211.11
4215.46
4219.4
4223.08
4226.38
4229.49
4232.25
4234.92
4237.25
4239.5
4241.46
4243.38
4245
4246.59
4247.91
4249.17
4250.21
4251.13
4251.85
4252.44
4252.85
4252.96
4252.89
4252.62
4252.02
4251.08
4249.83
4248.14
4246.05
4243.43
4240.35
4236.59
4232.27
4227.05
4221.25
4214.25
4207.9
4202.15
4196.41
4189.91
4183.53
4176.26
4169.24
4161.15
4153.46
4144.48
4136.11
4126.12
4117.03
4105.87
4096.02
4083.42
4072.75
4058.27
4046.71
4029.77
4017.3
3997.29
3983.43
3957.78
3988.16
15616.3
11399.6
7786.92
5910.06
4874.71
4265.84
3891.4
3654.58
3503.4
3406.27
3345.48
3307.65
3286.58
3275.45
3271.83
3272.73
3276.43
3282.52
3289.43
3297.23
3305.04
3312.9
3320.48
3327.91
3334.92
3341.66
3347.97
3353.89
3359.48
3364.65
3369.55
3374.04
3378.31
3382.19
3385.91
3389.27
3392.51
3395.42
3398.24
3400.73
3403.14
3405.25
3407.28
3409.04
3410.7
3412.11
3413.38
3414.43
3415.27
3415.86
3416.22
3416.21
3416.02
3415.58
3414.65
3413.38
3411.62
3409.46
3406.71
3403.49
3399.51
3394.99
3389.52
3384.44
3379.89
3375.23
3370.05
3364.83
3359.01
3353.21
3346.72
3340.32
3333.11
3326.11
3318.1
3310.47
3301.55
3293.26
3283.24
3274.28
3262.88
3253.29
3240.11
3230.07
3214.7
3204.37
3185.16
3206.41
12854.2
9997.75
6985.33
5298.79
4317.02
3714.91
3330.01
3076.38
2906.59
2791.28
2713.73
2661.13
2627.21
2605.24
2592.73
2586.22
2584.35
2585.49
2588.52
2593.58
2599.22
2605.5
2611.99
2618.66
2625.26
2631.79
2638.11
2644.17
2650.04
2655.56
2660.88
2665.86
2670.63
2675.05
2679.32
2683.25
2687.03
2690.5
2693.87
2696.91
2699.86
2702.51
2705.06
2707.34
2709.5
2711.42
2713.2
2714.75
2716.12
2717.23
2718.14
2718.77
2719.09
2719.13
2718.81
2718.34
2717.32
2715.95
2714.06
2711.75
2708.84
2705.42
2701.26
2697.3
2693.77
2690.07
2686.01
2681.81
2677.22
2672.52
2667.37
2662.15
2656.42
2650.68
2644.31
2638.03
2630.96
2624.15
2616.26
2608.94
2600.07
2592.33
2582.26
2574.35
2562.76
2555.17
2540.94
2555.7
10130.3
8463.93
6159.61
4720.92
3829.81
3258.54
2879.62
2620.85
2440.85
2313.31
2222.96
2158.01
2112.45
2079.96
2058.02
2043.21
2034.13
2029.14
2026.9
2027.35
2029.03
2032.15
2036.04
2040.44
2045.26
2050.25
2055.35
2060.43
2065.54
2070.47
2075.33
2079.99
2084.53
2088.82
2093
2096.92
2100.73
2104.29
2107.75
2110.94
2114.05
2116.89
2119.64
2122.14
2124.54
2126.71
2128.75
2130.58
2132.24
2133.68
2134.92
2135.95
2136.66
2137.26
2137.29
2137.24
2136.76
2136.08
2134.87
2133.3
2131.23
2128.72
2125.62
2122.6
2119.92
2117.05
2113.91
2110.62
2107.03
2103.3
2099.26
2095.1
2090.59
2085.98
2080.97
2075.93
2070.4
2064.95
2058.84
2053.02
2046.26
2040.19
2032.65
2026.6
2018.04
2012.55
2002.18
2012.33
7419.36
6707.42
5239.51
4109.99
3354.46
2844.43
2492.36
2243.42
2064.32
1932.92
1836.12
1763.57
1709.81
1669.24
1639.41
1617.21
1601.26
1589.97
1582.21
1577.37
1574.7
1573.47
1573.82
1574.9
1577.03
1579.51
1582.4
1585.56
1588.99
1592.46
1596.06
1599.63
1603.2
1606.66
1610.12
1613.44
1616.71
1619.83
1622.89
1625.77
1628.59
1631.22
1633.78
1636.16
1638.44
1640.56
1642.56
1644.39
1646.08
1647.59
1648.93
1650.08
1651.02
1651.75
1652.2
1652.29
1652.09
1651.81
1651.14
1650.11
1648.68
1646.87
1644.58
1642.33
1640.32
1638.14
1635.76
1633.23
1630.48
1627.58
1624.48
1621.24
1617.75
1614.15
1610.28
1606.34
1602.1
1597.87
1593.26
1588.79
1583.78
1579.18
1573.69
1569.2
1563.06
1559.16
1551.77
1558.64
4752.1
4730.34
4166.02
3400.07
2831.13
2419.51
2120.53
1900.41
1736.36
1611.99
1517.23
1443.8
1387.18
1342.77
1308.36
1281.35
1260.46
1244.28
1231.89
1222.52
1215.64
1210.59
1207.22
1204.96
1203.96
1203.35
1203.65
1204.4
1205.71
1207.18
1209.01
1210.85
1212.87
1214.98
1217.21
1219.43
1221.7
1223.92
1226.14
1228.26
1230.39
1232.41
1234.41
1236.3
1238.14
1239.88
1241.53
1243.09
1244.52
1245.84
1247.02
1248.05
1248.94
1249.64
1250.12
1250.35
1250.08
1249.97
1249.56
1248.86
1247.87
1246.56
1244.88
1243.2
1241.7
1240.06
1238.25
1236.3
1234.21
1232.02
1229.66
1227.21
1224.59
1221.89
1219.02
1216.07
1212.94
1209.8
1206.43
1203.15
1199.56
1196.22
1192.38
1189.16
1184.92
1182.19
1177.1
1181.66
2297.92
2868.76
2805.61
2542.67
2208.8
1935.16
1718.92
1549.98
1417.99
1313.89
1231.67
1165.84
1113.29
1070.74
1036.48
1008.59
986.015
967.664
952.781
940.754
931.06
923.295
917.141
912.26
908.559
905.676
903.597
902.088
901.205
900.644
900.611
900.489
900.795
901.438
902.245
903.162
904.106
905.13
906.189
907.291
908.456
909.633
910.831
912.016
913.171
914.314
915.396
916.437
917.411
918.314
919.117
919.847
920.371
920.916
920.971
921.071
920.8
920.651
920.285
919.715
918.93
917.908
916.554
915.283
914.174
912.978
911.655
910.228
908.689
907.064
905.322
903.504
901.611
899.671
897.623
895.513
893.286
891.038
888.668
886.342
883.858
881.542
878.948
876.765
873.96
872.16
868.775
871.706
843.086
1336.83
1550.64
1544.95
1488.46
1372.93
1261.14
1162.97
1079.24
1008.8
950.191
901.17
860.42
826.237
797.7
773.693
753.535
736.57
722.25
710.212
700.03
691.482
684.268
678.215
673.147
668.905
665.396
662.463
660.094
658.136
656.599
655.358
654.377
653.663
653.181
652.825
652.549
652.484
652.21
652.284
652.528
652.92
653.329
653.753
654.155
654.615
655.01
655.481
655.836
656.285
656.543
656.806
656.67
656.61
656.509
656.525
656.256
656.049
655.695
655.211
654.514
653.632
652.491
651.352
650.462
649.585
648.689
647.732
646.71
645.599
644.409
643.156
641.838
640.474
639.051
637.597
636.092
634.584
633.024
631.499
629.902
628.408
626.768
625.379
623.626
622.509
620.338
622.133
366.106
517.78
676.056
760.311
801.187
797.753
783.531
754.926
722.834
691.887
663.207
637.113
613.904
593.324
575.266
559.413
545.532
533.408
522.778
513.517
505.387
498.308
492.095
486.677
481.932
477.789
474.171
471.01
468.255
465.859
463.77
461.966
460.397
459.046
457.883
456.895
456.038
455.314
454.684
454.156
453.729
453.383
453.098
452.87
452.679
452.545
452.427
452.348
452.273
452.208
452.125
452.032
451.889
451.724
451.502
451.253
450.927
450.549
450.087
449.552
448.904
448.166
447.285
446.537
445.914
445.259
444.575
443.858
443.11
442.325
441.508
440.662
439.785
438.887
437.967
437.04
436.099
435.163
434.213
433.288
432.336
431.441
430.483
429.655
428.653
427.965
426.695
427.699
248.259
265.905
305.391
345.089
378.456
398.39
411.144
414.559
413.534
410.567
404.707
397.765
390.494
383.223
376.172
369.459
363.149
357.302
351.883
346.926
342.369
338.224
334.436
330.997
327.866
325.027
322.447
320.111
317.991
316.074
314.335
312.764
311.342
310.058
308.898
307.853
306.908
306.057
305.289
304.597
303.974
303.413
302.904
302.445
302.026
301.648
301.299
300.979
300.678
300.395
300.114
299.841
299.557
299.27
298.961
298.639
298.284
297.904
297.476
297.013
296.486
295.914
295.261
294.755
294.341
293.911
293.465
293.004
292.53
292.044
291.547
291.041
290.527
290.008
289.486
288.964
288.442
287.926
287.41
286.908
286.402
285.922
285.425
284.986
284.479
284.144
283.395
283.931
216.757
210.118
211.874
216.891
226.393
234.891
242.201
247.631
251.053
253.446
254.148
253.896
253.421
252.256
250.671
248.839
246.878
244.857
242.806
240.784
238.799
236.883
235.038
233.281
231.609
230.029
228.537
227.136
225.82
224.59
223.438
222.365
221.363
220.433
219.566
218.763
218.016
217.325
216.683
216.089
215.538
215.028
214.555
214.116
213.707
213.326
212.969
212.635
212.319
212.02
211.73
211.453
211.178
210.909
210.636
210.363
210.08
209.79
209.483
209.163
208.822
208.46
208.064
207.789
207.568
207.343
207.114
206.881
206.65
206.416
206.186
205.958
205.734
205.517
205.305
205.099
204.896
204.701
204.51
204.324
204.148
203.975
203.809
203.648
203.491
203.364
203.031
203.246
209.543
196.877
189.47
184.454
184.206
185.017
186.966
189.67
192.188
194.336
196.11
197.197
198.082
198.25
198.214
197.899
197.502
196.859
196.075
195.197
194.247
193.257
192.241
191.221
190.205
189.207
188.229
187.282
186.367
185.488
184.646
183.844
183.079
182.355
181.668
181.019
180.407
179.83
179.287
178.776
178.298
177.848
177.429
177.033
176.668
176.322
176.005
175.705
175.431
175.173
174.935
174.714
174.51
174.318
174.144
173.977
173.827
173.676
173.554
173.418
173.326
173.178
173.082
173.022
172.971
172.9
172.836
172.737
172.651
172.542
172.468
172.339
172.332
172.286
172.272
172.297
172.276
172.376
172.422
172.509
172.727
172.801
172.917
173.053
173.062
173.096
173.194
173.238
209.888
197.462
190.241
185.65
185.867
187.081
189.669
192.768
195.667
198.071
200.068
201.376
202.273
202.723
202.483
202.343
201.944
201.326
200.547
199.662
198.695
197.684
196.642
195.593
194.545
193.514
192.503
191.522
190.572
189.66
188.784
187.949
187.152
186.395
185.678
184.999
184.359
183.754
183.186
182.65
182.152
181.679
181.245
180.831
180.456
180.097
179.779
179.472
179.206
178.952
178.733
178.533
178.358
178.212
178.04
178.028
177.623
177.526
177.53
177.505
177.449
177.481
177.371
177.442
177.588
177.769
177.934
178.09
178.248
178.415
178.598
178.797
179.013
179.242
179.48
179.724
179.971
180.218
180.466
180.71
180.956
181.195
181.44
181.666
181.917
182.111
182.401
182.489
218.184
212.887
215.655
222.613
234.582
244.879
254.023
260.692
265.135
268.036
269.315
269.379
268.614
267.708
266.049
264.116
262.024
259.848
257.63
255.428
253.258
251.155
249.124
247.183
245.331
243.576
241.913
240.348
238.872
237.489
236.19
234.976
233.839
232.778
231.788
230.866
230.008
229.209
228.469
227.779
227.147
226.553
226.018
225.513
225.065
224.643
224.276
223.933
223.643
223.381
223.153
222.986
222.837
222.628
222.525
222.331
222.289
222.071
222.081
222.239
222.5
222.805
223.134
223.511
223.83
224.164
224.514
224.883
225.272
225.678
226.101
226.537
226.981
227.428
227.878
228.326
228.772
229.213
229.652
230.083
230.516
230.933
231.365
231.757
232.202
232.533
233.057
233.18
252.963
274.168
320.946
366.794
405.977
429.094
444.084
448.276
447.137
443.859
437.341
429.571
421.328
413.153
405.196
397.62
390.487
383.858
377.71
372.061
366.861
362.107
357.751
353.777
350.145
346.833
343.81
341.056
338.542
336.253
334.163
332.262
330.525
328.947
327.505
326.197
325
323.92
322.93
322.039
321.229
320.496
319.843
319.248
318.73
318.261
317.857
317.517
317.216
317
316.817
316.644
316.514
316.361
316.237
316.069
316.172
316.439
316.775
317.203
317.691
318.265
318.896
319.576
320.151
320.749
321.372
322.02
322.691
323.379
324.082
324.792
325.506
326.218
326.928
327.629
328.326
329.011
329.693
330.357
331.025
331.663
332.322
332.917
333.588
334.089
334.863
335.074
379.057
547.568
724.641
818.132
863.357
859.241
842.99
810.679
775.003
740.736
708.934
680.102
654.323
631.501
611.37
593.674
578.106
564.446
552.418
541.862
532.547
524.364
517.131
510.764
505.133
500.162
495.768
491.88
488.444
485.403
482.712
480.334
478.228
476.374
474.729
473.294
472.008
470.907
469.91
469.08
468.321
467.699
467.15
466.689
466.299
465.967
465.732
465.571
465.474
465.544
465.26
465.216
465.349
465.609
465.954
466.364
466.856
467.462
468.157
468.963
469.848
470.847
471.927
473.023
473.941
474.889
475.863
476.859
477.873
478.899
479.932
480.966
481.998
483.022
484.038
485.04
486.034
487.007
487.974
488.91
489.851
490.739
491.663
492.475
493.421
494.074
495.196
495.376
887.447
1425.31
1655.95
1649.01
1586.17
1459.19
1338.04
1231.66
1140.79
1064.41
1000.55
947.156
902.428
864.877
833.236
806.528
783.883
764.683
748.312
734.394
722.472
712.323
703.607
696.18
689.803
684.36
679.709
675.73
672.354
669.473
667.041
664.974
663.254
661.8
660.63
659.641
658.818
658.209
657.705
657.383
657.125
656.947
656.895
656.734
656.644
656.801
657.094
657.476
657.879
658.364
658.887
659.446
660.07
660.793
661.6
662.507
663.504
664.615
665.823
667.153
668.581
670.142
671.804
673.404
674.726
676.071
677.438
678.819
680.21
681.604
682.999
684.387
685.768
687.133
688.486
689.814
691.13
692.411
693.686
694.909
696.144
697.292
698.503
699.535
700.784
701.578
703.101
703.169
2424.72
3032.73
2963.87
2680.42
2324.81
2032.67
1801.75
1621.11
1479.36
1367.32
1278.15
1206.6
1148.8
1101.85
1063.48
1032.04
1006.15
984.84
967.195
952.682
940.627
930.751
922.558
915.891
910.402
905.966
902.394
899.52
897.315
895.57
894.268
893.315
892.721
892.323
892.295
892.043
892.218
892.611
893.062
893.643
894.222
894.913
895.616
896.387
897.171
898.033
898.947
899.914
900.921
901.975
903.079
904.243
905.46
906.756
908.128
909.6
911.164
912.846
914.634
916.557
918.594
920.781
923.09
925.234
926.987
928.758
930.543
932.335
934.132
935.923
937.709
939.48
941.237
942.969
944.683
946.361
948.021
949.632
951.234
952.764
954.308
955.737
957.244
958.526
960.062
961.073
962.834
962.883
4980.87
4957.34
4358.17
3551.5
2951.71
2516.37
2198.94
1964.32
1788.28
1654.13
1550.79
1470.24
1407.05
1357.13
1317.51
1286.02
1260.91
1240.99
1225.09
1212.63
1202.73
1195.13
1189.21
1184.84
1181.56
1179.28
1177.79
1176.9
1176.68
1176.61
1176.97
1177.7
1178.68
1179.77
1181.05
1182.36
1183.7
1185.17
1186.65
1188.2
1189.75
1191.33
1192.91
1194.49
1196.06
1197.64
1199.22
1200.82
1202.43
1204.07
1205.75
1207.47
1209.24
1211.09
1213
1215.02
1217.14
1219.38
1221.74
1224.25
1226.89
1229.71
1232.67
1235.36
1237.54
1239.74
1241.96
1244.17
1246.39
1248.59
1250.78
1252.95
1255.11
1257.22
1259.32
1261.36
1263.38
1265.34
1267.29
1269.14
1271.01
1272.73
1274.56
1276.09
1277.96
1279.15
1281.33
1281.3
7734.07
6978.82
5439.55
4259.72
3467
2929.04
2555.3
2289.24
2095.91
1952.79
1845.63
1764.42
1702.63
1655.33
1619.14
1591.49
1570.45
1554.65
1542.82
1534.36
1528.15
1524.2
1521.63
1520.46
1520.05
1520.5
1521.53
1523.09
1524.98
1527.04
1529.29
1531.66
1534.15
1536.69
1539.25
1541.82
1544.34
1546.84
1549.27
1551.67
1554.01
1556.31
1558.56
1560.78
1562.95
1565.09
1567.2
1569.3
1571.39
1573.49
1575.61
1577.77
1579.98
1582.26
1584.62
1587.09
1589.67
1592.39
1595.25
1598.29
1601.49
1604.89
1608.47
1611.69
1614.3
1616.92
1619.56
1622.2
1624.85
1627.47
1630.09
1632.67
1635.24
1637.75
1640.25
1642.68
1645.09
1647.41
1649.74
1651.92
1654.17
1656.19
1658.38
1660.17
1662.42
1663.78
1666.46
1666.33
10517.4
8742.13
6350.07
4853.78
3920.55
3317.53
2913.73
2635.05
2438.36
2296.91
2194.25
2118.98
2063.91
2023.51
1994.19
1973.13
1958.38
1948.37
1941.95
1938.42
1936.54
1936.79
1937.82
1939.97
1942.63
1945.8
1949.19
1952.85
1956.61
1960.4
1964.2
1967.97
1971.66
1975.29
1978.79
1982.21
1985.5
1988.69
1991.73
1994.69
1997.51
2000.26
2002.91
2005.49
2007.99
2010.44