/*--------------------------------*- C++ -*----------------------------------*\
| =========                 |                                                 |
| \\      /  F ield         | OpenFOAM: The Open Source CFD Toolbox           |
|  \\    /   O peration     | Version:  2306                                  |
|   \\  /    A nd           | Website:  www.openfoam.com                      |
|    \\/     M anipulation  |                                                 |
\*---------------------------------------------------------------------------*/
FoamFile
{
    version     2.0;
    format      ascii;
    arch        "LSB;label=32;scalar=64";
    class       volScalarField;
    location    "2000";
    object      k;
}
// * * * * * * * * * * * * * * * * * * * * * * * * * * * * * * * * * * * * * //

dimensions      [0 2 -2 0 0 0 0];

internalField   nonuniform List<scalar> 
20540
(
36.3083
124.238
36.2957
124.219
36.2423
124.143
36.145
124.004
35.9958
123.791
35.785
123.486
35.5011
123.072
35.1308
122.526
34.6584
121.82
34.0661
120.921
33.3338
119.787
32.4389
118.37
31.3573
116.609
30.064
114.432
28.5353
111.749
26.7519
108.456
24.7041
104.428
22.3999
99.5199
19.8767
93.5731
17.2167
86.4252
14.5639
77.9347
12.1287
68.0251
10.1467
56.7556
8.76705
44.4153
7.95122
31.5424
7.51091
19.7317
7.22598
11.7268
6.96084
8.11749
6.73665
6.85867
6.63742
6.31163
6.61717
6.1315
6.61847
6.07662
6.6211
6.0768
6.62485
6.13561
6.65044
6.32839
6.75376
6.89135
6.97792
8.18363
7.24591
11.8775
7.54535
20.0474
8.03525
32.1283
8.96166
45.3191
10.5358
57.9961
12.7922
69.5881
15.5544
79.8009
18.5603
88.5676
21.5822
95.9616
24.4641
102.125
27.1146
107.222
29.4895
111.415
31.5763
114.851
33.3818
117.659
34.9246
119.948
36.2286
121.809
37.3197
123.316
38.2239
124.532
38.9655
125.507
39.5668
126.282
40.0478
126.892
40.4261
127.366
40.717
127.725
40.9337
127.991
41.0875
128.178
41.1881
128.3
41.2437
128.367
41.2611
128.388
35.1991
23.1181
20.7017
19.4949
18.7188
18.1813
17.7912
17.4939
17.2607
17.0738
16.9215
16.795
16.6897
16.5996
16.5237
16.4577
16.4012
16.3516
16.3086
16.2706
16.2372
16.2075
16.1812
16.1576
16.1367
16.118
16.1011
16.086
16.0723
16.0601
16.0489
16.0388
16.0297
16.0214
16.0139
16.0071
16.001
15.9954
15.9905
15.9861
15.9824
15.9792
15.9767
15.9748
15.9737
15.9733
15.9739
15.9755
15.9783
15.9824
15.9879
15.9951
16.0043
16.0157
16.0296
16.0461
16.0659
16.089
16.1163
16.1477
16.1843
16.2261
16.2745
16.3206
16.3604
16.4024
16.4471
16.4945
16.5446
16.5973
16.653
16.7117
16.7734
16.8384
16.9071
16.979
17.0564
17.1355
17.225
17.311
17.4208
17.5087
17.6623
17.7383
17.9716
18.0782
18.3762
18.6742
30.6479
18.3637
16.1451
15.0604
14.3769
13.9062
13.5658
13.3075
13.1055
12.9438
12.8123
12.7032
12.6125
12.5349
12.4697
12.413
12.3645
12.3219
12.285
12.2524
12.2238
12.1984
12.1758
12.1557
12.1377
12.1217
12.1073
12.0944
12.0827
12.0723
12.0627
12.0541
12.0463
12.0392
12.0328
12.027
12.0218
12.017
12.0128
12.0089
12.0057
12.0028
12.0005
11.9987
11.9974
11.9968
11.9968
11.9977
11.9993
12.002
12.0057
12.0106
12.0169
12.0248
12.0345
12.0461
12.0601
12.0763
12.0956
12.1177
12.1436
12.1729
12.207
12.2392
12.2671
12.2966
12.3278
12.3607
12.3953
12.4317
12.4699
12.5101
12.5519
12.596
12.6418
12.6901
12.7405
12.7932
12.8495
12.9063
12.9721
13.0298
13.1179
13.1637
13.2953
13.3336
13.5256
13.5843
34.5666
20.7945
18.3647
17.1826
16.4414
15.9303
15.5601
15.2792
15.0592
14.883
14.7396
14.6206
14.5216
14.4368
14.3655
14.3036
14.2506
14.204
14.1637
14.1281
14.0968
14.069
14.0443
14.0223
14.0026
13.9852
13.9694
13.9553
13.9425
13.9311
13.9207
13.9112
13.9027
13.8949
13.888
13.8815
13.8758
13.8706
13.8659
13.8617
13.8581
13.8549
13.8523
13.8502
13.8487
13.8479
13.8477
13.8484
13.8499
13.8523
13.8559
13.8607
13.8669
13.8746
13.8843
13.8958
13.9097
13.9258
13.945
13.9669
13.9926
14.0217
14.0555
14.0874
14.1149
14.144
14.1748
14.2071
14.241
14.2766
14.3137
14.3529
14.3933
14.436
14.4798
14.5262
14.5737
14.624
14.6758
14.73
14.7884
14.8435
14.9194
14.9606
15.0757
15.0883
15.3052
15.0226
37.4587
22.2116
19.6412
18.4127
17.6505
17.126
16.7463
16.4582
16.2328
16.052
15.9051
15.7829
15.6814
15.5944
15.5213
15.4577
15.4034
15.3556
15.3142
15.2776
15.2455
15.217
15.1917
15.1691
15.1489
15.131
15.1149
15.1004
15.0873
15.0755
15.0649
15.0551
15.0464
15.0384
15.0313
15.0247
15.0189
15.0135
15.0087
15.0043
15.0006
14.9973
14.9945
14.9923
14.9906
14.9896
14.9892
14.9896
14.9908
14.9929
14.9961
15.0004
15.0061
15.0131
15.022
15.0326
15.0454
15.0604
15.0781
15.0983
15.1221
15.149
15.1802
15.2095
15.2348
15.2616
15.2897
15.3193
15.3502
15.3826
15.4163
15.4518
15.488
15.5266
15.5655
15.6072
15.6485
15.6937
15.7376
15.7862
15.8337
15.8832
15.9437
15.9776
16.0736
16.0587
16.3068
15.7283
39.9333
23.1051
20.3739
19.1052
18.3306
17.8001
17.4168
17.1265
16.8994
16.7174
16.5694
16.4464
16.3442
16.2565
16.183
16.119
16.0643
16.0162
15.9745
15.9377
15.9054
15.8767
15.8512
15.8285
15.8082
15.7902
15.774
15.7594
15.7462
15.7344
15.7237
15.7139
15.7051
15.6971
15.69
15.6833
15.6774
15.672
15.6672
15.6628
15.6589
15.6556
15.6527
15.6503
15.6485
15.6473
15.6467
15.6468
15.6477
15.6494
15.652
15.6557
15.6606
15.6668
15.6747
15.684
15.6954
15.7086
15.7243
15.7423
15.7634
15.7872
15.8148
15.8407
15.863
15.8866
15.9114
15.9374
15.9644
15.9927
16.0219
16.0528
16.0839
16.1173
16.1502
16.1861
16.2203
16.2592
16.2942
16.3363
16.3721
16.4151
16.46
16.486
16.5625
16.5258
16.7796
16.0793
42.2473
23.7831
20.8403
19.5237
18.7374
18.2038
17.8195
17.5292
17.3025
17.1208
16.9732
16.8505
16.7487
16.6613
16.5881
16.5242
16.4698
16.4218
16.3803
16.3437
16.3115
16.2829
16.2575
16.2349
16.2147
16.1968
16.1806
16.1662
16.1531
16.1413
16.1306
16.1209
16.1122
16.1042
16.0971
16.0905
16.0847
16.0792
16.0744
16.07
16.0662
16.0628
16.0599
16.0574
16.0555
16.054
16.0532
16.0531
16.0535
16.0548
16.0568
16.0598
16.0639
16.0691
16.0758
16.0837
16.0934
16.1047
16.1183
16.1336
16.1517
16.1721
16.1957
16.2178
16.2368
16.2569
16.278
16.3
16.3228
16.3466
16.371
16.3969
16.4225
16.4503
16.4769
16.5069
16.5337
16.5661
16.5922
16.6276
16.6524
16.6884
16.719
16.7375
16.7952
16.7486
16.9644
16.3342
44.4849
24.3911
21.169
19.7878
18.9861
18.4494
18.0653
17.7764
17.5513
17.3712
17.225
17.1035
17.0028
16.9162
16.8439
16.7807
16.7269
16.6795
16.6385
16.6023
16.5705
16.5423
16.5172
16.4949
16.475
16.4573
16.4414
16.4271
16.4142
16.4027
16.3921
16.3826
16.374
16.3661
16.3591
16.3526
16.3469
16.3415
16.3368
16.3324
16.3286
16.3252
16.3222
16.3197
16.3177
16.3161
16.315
16.3146
16.3147
16.3154
16.3169
16.3192
16.3224
16.3266
16.332
16.3384
16.3465
16.3557
16.3669
16.3795
16.3945
16.4112
16.4307
16.4489
16.4645
16.4809
16.4982
16.5161
16.5345
16.5537
16.5732
16.5941
16.6142
16.6366
16.657
16.6809
16.7007
16.7267
16.7446
16.773
16.7884
16.817
16.8351
16.8474
16.8861
16.8422
16.9885
16.5243
46.6722
25.0079
21.4301
19.959
19.1337
18.592
18.2081
17.9214
17.6989
17.5212
17.3773
17.2577
17.1588
17.0736
17.0027
16.9405
16.8879
16.8413
16.8012
16.7657
16.7346
16.707
16.6824
16.6605
16.641
16.6238
16.6083
16.5943
16.5817
16.5704
16.5602
16.5508
16.5425
16.5348
16.528
16.5217
16.5161
16.5108
16.5062
16.5019
16.4982
16.4948
16.4918
16.4893
16.4871
16.4854
16.4842
16.4835
16.4833
16.4835
16.4844
16.486
16.4884
16.4915
16.4956
16.5006
16.5069
16.5141
16.5229
16.5328
16.5446
16.5577
16.573
16.5872
16.5994
16.6122
16.6256
16.6395
16.6536
16.6684
16.6831
16.6991
16.7139
16.731
16.7455
16.7637
16.7769
16.7966
16.8076
16.8287
16.8371
16.8572
16.8654
16.873
16.8934
16.8602
16.9299
16.6258
48.8129
25.6803
21.6687
20.0745
19.2127
18.6615
18.2768
17.9921
17.7728
17.5982
17.4574
17.3403
17.2439
17.1606
17.0917
17.0311
16.98
16.9347
16.8957
16.8613
16.8311
16.8043
16.7804
16.7593
16.7404
16.7237
16.7087
16.6952
16.6831
16.6722
16.6623
16.6532
16.6452
16.6378
16.6313
16.6252
16.6198
16.6147
16.6103
16.6061
16.6025
16.5992
16.5963
16.5937
16.5916
16.5898
16.5884
16.5874
16.5869
16.5867
16.5871
16.5879
16.5895
16.5916
16.5945
16.598
16.6026
16.6078
16.6143
16.6215
16.6302
16.6398
16.651
16.6615
16.6703
16.6796
16.6893
16.6993
16.7094
16.7199
16.7302
16.7415
16.7514
16.7634
16.7726
16.7853
16.793
16.8065
16.8121
16.8255
16.8286
16.8408
16.8412
16.8452
16.849
16.8284
16.8382
16.6472
50.9004
26.4366
21.9184
20.161
19.2444
18.6763
18.2878
18.0045
17.7884
17.6174
17.4801
17.3663
17.273
17.1923
17.1259
17.0673
17.0182
16.9745
16.937
16.904
16.875
16.8493
16.8264
16.8062
16.7881
16.7723
16.7579
16.7451
16.7335
16.7231
16.7137
16.7051
16.6975
16.6905
16.6843
16.6785
16.6734
16.6686
16.6644
16.6605
16.657
16.6538
16.6511
16.6486
16.6464
16.6446
16.643
16.6419
16.6411
16.6406
16.6404
16.6407
16.6414
16.6426
16.6444
16.6465
16.6495
16.6528
16.6571
16.6617
16.6675
16.6737
16.6811
16.688
16.6937
16.6998
16.706
16.7124
16.7187
16.7253
16.7315
16.7385
16.744
16.7514
16.7561
16.7635
16.7668
16.7741
16.7754
16.7818
16.7808
16.7858
16.7806
16.7813
16.7734
16.7617
16.7391
16.6133
52.9207
27.2924
22.2058
20.2408
19.2456
18.6492
18.2519
17.9678
17.7543
17.5869
17.4537
17.3436
17.254
17.1764
17.113
17.0571
17.0104
16.9688
16.9333
16.902
16.8746
16.8503
16.8287
16.8096
16.7926
16.7777
16.7642
16.7522
16.7414
16.7317
16.7229
16.7149
16.7079
16.7013
16.6956
16.6902
16.6856
16.6811
16.6772
16.6735
16.6704
16.6674
16.6648
16.6624
16.6603
16.6585
16.6569
16.6557
16.6547
16.6538
16.6533
16.653
16.653
16.6533
16.6541
16.655
16.6565
16.6581
16.6604
16.6627
16.6658
16.6689
16.6728
16.6764
16.6793
16.6824
16.6856
16.6887
16.6915
16.6946
16.6972
16.7004
16.7022
16.7054
16.7062
16.7088
16.7085
16.7102
16.7081
16.7091
16.7041
16.704
16.6944
16.6917
16.6742
16.6652
16.6338
16.5378
54.8537
28.2539
22.5523
20.3341
19.2312
18.5909
18.1769
17.8881
17.6755
17.5112
17.382
17.2761
17.1906
17.1167
17.057
17.0041
16.9604
16.9214
16.8883
16.8592
16.8337
16.8112
16.7912
16.7736
16.7579
16.7442
16.7319
16.721
16.7111
16.7023
16.6943
16.6871
16.6807
16.6748
16.6697
16.6648
16.6606
16.6566
16.6532
16.6499
16.647
16.6444
16.642
16.6399
16.638
16.6362
16.6347
16.6334
16.6323
16.6312
16.6304
16.6296
16.6291
16.6287
16.6286
16.6284
16.6286
16.6287
16.6292
16.6294
16.6302
16.6306
16.6314
16.6321
16.6326
16.6331
16.6335
16.6337
16.6336
16.6337
16.6333
16.633
16.6317
16.6312
16.6289
16.6278
16.6241
16.6223
16.6164
16.6138
16.6047
16.6013
16.5871
16.5818
16.5583
16.5478
16.5149
16.4358
56.6718
29.3198
22.9738
20.4597
19.2167
18.5123
18.0701
17.7704
17.5554
17.3928
17.267
17.1651
17.0841
17.0142
16.9586
16.9094
16.8692
16.8333
16.803
16.7766
16.7534
16.7331
16.7151
16.6993
16.6853
16.6732
16.6623
16.6526
16.6439
16.6363
16.6293
16.623
16.6175
16.6124
16.608
16.6039
16.6004
16.5969
16.594
16.5912
16.5889
16.5866
16.5846
16.5827
16.5811
16.5796
16.5782
16.5769
16.5758
16.5747
16.5736
16.5726
16.5716
16.5706
16.5699
16.5687
16.568
16.5667
16.5658
16.5642
16.563
16.5611
16.5593
16.5576
16.556
16.5544
16.5525
16.5505
16.5479
16.5456
16.5423
16.5398
16.5353
16.5325
16.5269
16.5235
16.5164
16.5122
16.5029
16.498
16.4855
16.4795
16.462
16.4541
16.4274
16.4137
16.3802
16.3138
58.3383
30.4818
23.4807
20.6342
19.2177
18.4252
17.9397
17.6199
17.3972
17.2331
17.1092
17.0107
16.9339
16.8682
16.8171
16.7719
16.7357
16.7034
16.6765
16.6531
16.6329
16.6151
16.5995
16.586
16.574
16.5638
16.5546
16.5465
16.5393
16.533
16.5273
16.5222
16.5178
16.5137
16.5103
16.507
16.5043
16.5016
16.4994
16.4972
16.4954
16.4937
16.4922
16.4908
16.4895
16.4883
16.4872
16.4861
16.4851
16.484
16.4829
16.4817
16.4805
16.4792
16.4779
16.4761
16.4746
16.4723
16.4702
16.4673
16.4645
16.4608
16.4569
16.4532
16.45
16.4467
16.4429
16.4392
16.4345
16.4305
16.4248
16.4206
16.4137
16.4091
16.4008
16.3958
16.386
16.3801
16.3682
16.3614
16.3464
16.3384
16.3187
16.3083
16.28
16.2632
16.2255
16.1743
59.8049
31.7246
24.0768
20.8708
19.2496
18.343
17.7954
17.4431
17.2046
17.034
16.9092
16.8123
16.7389
16.677
16.6304
16.5894
16.5574
16.5291
16.506
16.4863
16.4693
16.4546
16.4418
16.4309
16.4213
16.4134
16.4064
16.4002
16.3948
16.3902
16.386
16.3823
16.3792
16.3764
16.3742
16.3719
16.3702
16.3685
16.3672
16.3658
16.3648
16.3637
16.3628
16.362
16.3612
16.3605
16.3598
16.3591
16.3583
16.3574
16.3564
16.3553
16.354
16.3525
16.351
16.3488
16.3467
16.3438
16.3409
16.337
16.3331
16.328
16.3226
16.3174
16.313
16.3084
16.3032
16.2982
16.2921
16.2867
16.2794
16.2737
16.2651
16.2592
16.249
16.2427
16.2309
16.2238
16.2099
16.2019
16.185
16.1755
16.1542
16.1417
16.1125
16.0934
16.0502
16.014
61.0094
33.0244
24.7596
21.1779
19.3263
18.2796
17.6489
17.2483
16.9832
16.7988
16.6681
16.5696
16.4977
16.4384
16.3958
16.3587
16.3311
16.3069
16.2879
16.2721
16.2588
16.2476
16.238
16.2302
16.2234
16.2181
16.2136
16.2097
16.2065
16.2038
16.2015
16.1995
16.1981
16.1967
16.196
16.195
16.1946
16.1939
16.1938
16.1934
16.1933
16.1931
16.193
16.1929
16.1929
16.1927
16.1926
16.1924
16.1921
16.1915
16.1908
16.1899
16.1888
16.1873
16.1858
16.1835
16.1812
16.1778
16.1745
16.17
16.1654
16.1594
16.153
16.1468
16.1416
16.1361
16.13
16.1241
16.117
16.1106
16.1023
16.0956
16.0859
16.0789
16.0676
16.0603
16.0471
16.0392
16.0239
16.0148
15.9967
15.9859
15.9635
15.9496
15.9196
15.8991
15.8517
15.8281
61.8715
34.3467
25.5192
21.5576
19.4574
18.2481
17.5129
17.0464
16.741
16.5327
16.3889
16.2839
16.21
16.151
16.1107
16.0767
16.0528
16.0326
16.0176
16.0059
15.9964
15.989
15.9829
15.9785
15.975
15.9727
15.9709
15.9697
15.969
15.9687
15.9686
15.9686
15.9691
15.9696
15.9705
15.9711
15.9722
15.9729
15.9741
15.9749
15.976
15.9768
15.9778
15.9786
15.9795
15.9801
15.9808
15.9812
15.9815
15.9814
15.9813
15.9808
15.98
15.9789
15.9775
15.9753
15.9731
15.9697
15.9663
15.9615
15.9565
15.9502
15.9432
15.9365
15.9308
15.9248
15.9182
15.9117
15.904
15.897
15.8881
15.8807
15.8704
15.8626
15.8507
15.8425
15.8287
15.8199
15.8038
15.794
15.775
15.7633
15.74
15.7249
15.6945
15.6732
15.6236
15.6102
62.2874
35.642
26.3361
22.0041
19.647
18.2584
17.3997
16.8492
16.4881
16.2435
16.077
15.9582
15.877
15.8144
15.7737
15.7407
15.7193
15.702
15.6906
15.6825
15.6768
15.6731
15.6706
15.6698
15.6698
15.6707
15.6722
15.6739
15.676
15.6783
15.6807
15.6831
15.6859
15.6884
15.6912
15.6937
15.6965
15.6989
15.7016
15.7039
15.7064
15.7084
15.7108
15.7126
15.7146
15.7162
15.7179
15.7191
15.7203
15.721
15.7214
15.7215
15.7214
15.7207
15.7197
15.718
15.716
15.7129
15.7096
15.705
15.7
15.6936
15.6865
15.6796
15.6738
15.6676
15.6608
15.6539
15.6461
15.6387
15.6296
15.6216
15.6112
15.6027
15.5907
15.5816
15.5677
15.5581
15.5416
15.5311
15.5115
15.499
15.4751
15.4593
15.4289
15.407
15.3572
15.352
62.1217
36.8406
27.1788
22.5022
19.8907
18.3144
17.3182
16.6679
16.2356
15.9411
15.7405
15.5986
15.5027
15.4308
15.3852
15.3498
15.3283
15.3121
15.3028
15.2975
15.2947
15.2942
15.2952
15.2978
15.3012
15.3055
15.3101
15.3149
15.32
15.3252
15.3304
15.3354
15.3405
15.3453
15.3504
15.355
15.3598
15.3641
15.3686
15.3725
15.3767
15.3802
15.384
15.3871
15.3905
15.3932
15.396
15.3983
15.4006
15.4023
15.4037
15.4046
15.4052
15.4049
15.4046
15.4035
15.402
15.3994
15.3966
15.3923
15.3876
15.3815
15.3746
15.3678
15.362
15.3558
15.3491
15.3421
15.3343
15.3267
15.3177
15.3093
15.299
15.2899
15.278
15.2682
15.2544
15.2438
15.2276
15.2159
15.1964
15.183
15.1589
15.1427
15.1125
15.0899
15.0429
15.0432
61.198
37.8473
27.9978
23.0244
20.1738
18.4113
17.2708
16.5097
15.9934
15.636
15.3892
15.2136
15.0939
15.0053
14.9485
14.9057
14.8801
14.8618
14.852
14.8474
14.846
14.8477
14.851
14.8565
14.8627
14.8701
14.8776
14.8853
14.8934
14.9013
14.9093
14.917
14.9247
14.932
14.9394
14.9463
14.9532
14.9595
14.9661
14.9718
14.9778
14.9829
14.9884
14.993
14.9979
15.0019
15.0062
15.0096
15.0131
15.0159
15.0185
15.0204
15.0221
15.0227
15.023
15.0222
15.0216
15.0197
15.0175
15.0139
15.0096
15.0039
14.9974
14.9909
14.9854
14.9794
14.9728
14.9659
14.9582
14.9505
14.9417
14.9331
14.9229
14.9134
14.9017
14.8912
14.8777
14.8662
14.8503
14.8374
14.8183
14.8037
14.7802
14.7632
14.7342
14.7117
14.6692
14.6722
59.2887
38.5392
28.7185
23.5251
20.4675
18.5319
17.2499
16.3741
15.7661
15.3357
15.0322
14.8125
14.6594
14.5453
14.4698
14.4132
14.3778
14.3529
14.3387
14.3316
14.329
14.3306
14.3344
14.3412
14.3491
14.3585
14.3682
14.3782
14.3888
14.3991
14.4096
14.4197
14.4299
14.4395
14.4492
14.4583
14.4674
14.4758
14.4844
14.492
14.4999
14.5068
14.514
14.5202
14.5267
14.5322
14.5379
14.5427
14.5476
14.5516
14.5555
14.5585
14.5612
14.5632
14.5645
14.5643
14.5642
14.5628
14.5615
14.5585
14.5549
14.5498
14.5437
14.5377
14.5324
14.5266
14.5203
14.5135
14.5061
14.4983
14.4896
14.4809
14.4709
14.461
14.4495
14.4384
14.4252
14.4128
14.3973
14.3833
14.3648
14.3491
14.3266
14.309
14.2815
14.2605
14.2215
14.2271
56.1106
38.7627
29.2296
23.9324
20.723
18.6427
17.2335
16.2485
15.5483
15.0407
14.6737
14.4019
14.2069
14.0594
13.9569
13.8795
13.8278
13.7904
13.7668
13.7527
13.7452
13.7433
13.7447
13.75
13.7578
13.7674
13.7776
13.7887
13.8006
13.8123
13.8245
13.8364
13.8484
13.8599
13.8715
13.8824
13.8934
13.9037
13.9141
13.9235
13.9332
13.9418
13.9506
13.9584
13.9664
13.9734
13.9806
13.9867
13.993
13.9982
14.0034
14.0076
14.0115
14.0145
14.0171
14.0181
14.0184
14.0172
14.0166
14.0144
14.0114
14.0069
14.0012
13.9957
13.9907
13.9852
13.9791
13.9724
13.9651
13.9573
13.9488
13.9399
13.93
13.9199
13.9085
13.897
13.8838
13.8708
13.8556
13.841
13.823
13.8068
13.7853
13.7676
13.7418
13.7227
13.6872
13.6949
51.3262
38.3366
29.3648
24.1353
20.8626
18.6868
17.1797
16.1027
15.3196
14.7385
14.3078
13.9809
13.7391
13.5523
13.4165
13.3117
13.2372
13.1813
13.1426
13.1163
13.0991
13.09
13.0845
13.0856
13.0896
13.0966
13.1048
13.1148
13.1262
13.1377
13.15
13.1624
13.175
13.1873
13.2
13.212
13.2241
13.2356
13.2473
13.258
13.269
13.2789
13.289
13.2981
13.3074
13.3157
13.3241
13.3315
13.3389
13.3452
13.3516
13.3568
13.3618
13.3658
13.3692
13.3716
13.3719
13.3716
13.3713
13.3695
13.367
13.363
13.3578
13.3526
13.3479
13.3426
13.3366
13.33
13.3227
13.315
13.3065
13.2975
13.2877
13.2774
13.266
13.2543
13.2412
13.2279
13.2129
13.1981
13.1807
13.1644
13.1442
13.127
13.1032
13.0859
13.0539
13.0631
44.751
36.828
28.8756
23.9666
20.7661
18.5739
17.0185
15.8823
15.0381
14.3976
13.9115
13.534
13.2464
13.0194
12.8476
12.7118
12.6101
12.531
12.4723
12.4289
12.3971
12.3761
12.3608
12.3532
12.3499
12.35
12.353
12.359
12.3672
12.3759
12.3863
12.397
12.4085
12.42
12.4321
12.4439
12.4559
12.4675
12.4793
12.4903
12.5017
12.5122
12.5229
12.5326
12.5425
12.5516
12.5607
12.5689
12.5771
12.5842
12.5913
12.5972
12.6029
12.6077
12.6113
12.6157
12.6157
12.6161
12.614
12.6133
12.6111
12.6075
12.6025
12.5976
12.5931
12.5879
12.5819
12.5752
12.5678
12.56
12.5515
12.5424
12.5327
12.5223
12.5112
12.4994
12.4866
12.4734
12.4588
12.4441
12.4276
12.4118
12.3931
12.3768
12.3553
12.34
12.3115
12.3215
36.9523
33.2242
27.4111
23.1859
20.2552
18.1663
16.641
15.4996
14.6325
13.9602
13.4383
13.0242
12.7003
12.4393
12.2349
12.0696
11.9403
11.8368
11.7556
11.6926
11.6429
11.6064
11.5776
11.558
11.5436
11.535
11.5298
11.5272
11.5285
11.5317
11.5379
11.5443
11.5521
11.5606
11.5703
11.5799
11.59
11.5999
11.6102
11.6201
11.6306
11.6403
11.6505
11.6598
11.6693
11.6782
11.6871
11.6953
11.7034
11.7107
11.7177
11.7238
11.7296
11.7342
11.7386
11.7418
11.7416
11.7421
11.7393
11.7388
11.7362
11.7333
11.7283
11.7235
11.7191
11.7139
11.7076
11.7005
11.6924
11.6844
11.6755
11.6662
11.6564
11.6463
11.636
11.625
11.6129
11.6003
11.5865
11.5725
11.5571
11.5422
11.5253
11.5104
11.4913
11.4786
11.4527
11.4631
27.8381
27.4007
24.6571
21.4838
19.0845
17.2688
15.8895
14.8247
13.9942
13.3349
12.8112
12.3868
12.0464
11.7667
11.5413
11.3551
11.2042
11.0804
10.9792
10.8977
10.8304
10.7778
10.734
10.7009
10.6736
10.6538
10.6382
10.627
10.6199
10.6145
10.6133
10.6107
10.6128
10.6165
10.6216
10.6269
10.6327
10.6385
10.6453
10.6525
10.6606
10.6682
10.6763
10.6837
10.6915
10.6989
10.7063
10.7134
10.7202
10.7268
10.7325
10.7383
10.7429
10.7466
10.7505
10.7502
10.751
10.7498
10.7483
10.7442
10.7436
10.7397
10.7341
10.7287
10.7244
10.7194
10.7125
10.7041
10.6944
10.6855
10.6737
10.6632
10.6508
10.6376
10.6355
10.6283
10.6188
10.6078
10.5955
10.5826
10.5685
10.5548
10.5397
10.5264
10.51
10.499
10.4772
10.4871
17.879
20.3497
19.9185
18.532
16.9745
15.6436
14.5638
13.6875
12.9774
12.3957
11.9206
11.5261
11.2016
10.9293
10.7038
10.5138
10.3552
10.2222
10.1099
10.0168
9.93735
9.87244
9.81659
9.77159
9.733
9.70208
9.67628
9.65529
9.63894
9.62506
9.6153
9.60692
9.60128
9.59746
9.59592
9.59317
9.59309
9.59166
9.59391
9.59789
9.60263
9.60687
9.61154
9.61517
9.61971
9.62363
9.62815
9.63253
9.63707
9.64154
9.64484
9.64962
9.65041
9.65158
9.6503
9.64985
9.65044
9.64697
9.64642
9.64355
9.64039
9.63429
9.62334
9.61073
9.60774
9.60822
9.60558
9.59855
9.59016
9.58028
9.56817
9.55344
9.5359
9.52973
9.53051
9.52581
9.51792
9.50812
9.49681
9.48438
9.47093
9.4578
9.44429
9.43259
9.41922
9.40996
9.39301
9.40182
10.4358
13.1814
14.2397
14.1627
13.7973
13.1203
12.4973
11.9313
11.4379
11.0112
10.6476
10.3346
10.0686
9.83937
9.64384
9.47536
9.33055
9.20634
9.09848
9.00662
8.92613
8.85806
8.79807
8.74751
8.70309
8.66547
8.63288
8.605
8.58138
8.56094
8.54392
8.52927
8.51729
8.50694
8.4991
8.49203
8.48672
8.48179
8.47852
8.47649
8.47552
8.47488
8.47361
8.47097
8.47045
8.46751
8.46758
8.46769
8.46961
8.47112
8.47159
8.47253
8.47089
8.47018
8.47054
8.46617
8.46462
8.46478
8.46125
8.45879
8.45438
8.4449
8.43816
8.42607
8.42699
8.42403
8.41895
8.41007
8.40323
8.39126
8.38441
8.37083
8.371
8.36635
8.35971
8.35186
8.34323
8.33424
8.32495
8.31558
8.30597
8.29659
8.28676
8.27786
8.26733
8.2599
8.2459
8.25274
7.29127
8.32411
9.29264
9.80066
9.98954
9.9459
9.82095
9.60417
9.38038
9.16282
8.96008
8.77302
8.60495
8.45345
8.31864
8.19851
8.09148
7.99693
7.91225
7.83794
7.77106
7.71258
7.65985
7.61369
7.57221
7.53573
7.50312
7.47434
7.44875
7.42612
7.40607
7.38833
7.37277
7.3589
7.34697
7.33628
7.3271
7.31893
7.31194
7.30579
7.30082
7.29624
7.29234
7.28829
7.28512
7.28205
7.27964
7.27758
7.27592
7.27438
7.27281
7.27117
7.26925
7.26723
7.26487
7.26215
7.25924
7.25586
7.25202
7.24742
7.24215
7.2358
7.2289
7.22347
7.21916
7.21433
7.2092
7.20363
7.19801
7.19201
7.18588
7.1795
7.173
7.16625
7.1593
7.15223
7.14509
7.13795
7.13082
7.12377
7.11671
7.10986
7.10284
7.09638
7.08915
7.08358
7.07348
7.07885
6.293
6.39771
6.64493
6.91309
7.10658
7.22056
7.27008
7.26398
7.23779
7.18895
7.12561
7.05723
6.98839
6.92055
6.8553
6.7935
6.73515
6.68113
6.63046
6.58411
6.54082
6.50141
6.46477
6.43143
6.40058
6.37248
6.34658
6.32299
6.30128
6.28155
6.26342
6.24694
6.23187
6.21815
6.20566
6.19432
6.18399
6.17462
6.16614
6.15839
6.15146
6.14511
6.13939
6.13408
6.12929
6.12487
6.12089
6.11717
6.11378
6.11054
6.10744
6.10438
6.10131
6.09818
6.09494
6.09155
6.08795
6.0841
6.07988
6.07527
6.07014
6.06447
6.05814
6.05364
6.04998
6.04617
6.0422
6.03808
6.03384
6.0295
6.02506
6.02054
6.01596
6.01134
6.00671
6.00208
5.99748
5.99291
5.9884
5.98395
5.97956
5.97528
5.97102
5.96698
5.96278
5.95927
5.95252
5.95619
5.95779
5.84099
5.80441
5.81666
5.84623
5.87934
5.90512
5.91615
5.91237
5.90699
5.89303
5.87242
5.84787
5.82044
5.79147
5.76209
5.73244
5.70347
5.67489
5.64751
5.62092
5.59572
5.57152
5.54871
5.52699
5.50661
5.4873
5.46925
5.45222
5.43635
5.42144
5.40757
5.39459
5.38254
5.3713
5.36087
5.35118
5.34218
5.33387
5.32612
5.319
5.31237
5.30626
5.30057
5.29532
5.29041
5.2859
5.28162
5.27768
5.2739
5.27037
5.26692
5.26363
5.26035
5.25713
5.25389
5.25053
5.24727
5.24354
5.23991
5.23591
5.23169
5.22721
5.22431
5.22213
5.21989
5.21755
5.21526
5.213
5.21068
5.20839
5.20606
5.20373
5.20144
5.19919
5.19696
5.19484
5.19282
5.19098
5.18907
5.18824
5.18332
5.18293
5.17884
5.17868
5.17502
5.17389
5.17674
5.86139
5.68515
5.55832
5.48134
5.43734
5.41439
5.40603
5.40116
5.39546
5.38807
5.37868
5.36702
5.35264
5.3363
5.31825
5.2992
5.27907
5.25869
5.23798
5.21756
5.19727
5.17757
5.15829
5.13978
5.12184
5.10475
5.08831
5.07274
5.05785
5.04381
5.03045
5.0179
5.00602
4.99487
4.98436
4.97451
4.96528
4.95661
4.94854
4.94095
4.93391
4.92731
4.92119
4.91548
4.9102
4.90527
4.90078
4.89652
4.89275
4.88911
4.8859
4.88289
4.88016
4.87758
4.87515
4.87298
4.87009
4.87006
4.86236
4.86029
4.85965
4.85751
4.85657
4.85363
4.85315
4.85436
4.85199
4.85476
4.8538
4.85413
4.8573
4.85635
4.85684
4.85825
4.85875
4.85745
4.85766
4.85806
4.85875
4.85974
4.86103
4.86255
4.86429
4.8661
4.86811
4.86994
4.87232
4.87347
5.86615
5.6872
5.56658
5.49175
5.45339
5.43427
5.43202
5.43048
5.43009
5.42571
5.41957
5.41071
5.39899
5.38471
5.36853
5.35105
5.33223
5.31292
5.29311
5.27342
5.25373
5.23451
5.21561
5.1974
5.17967
5.16275
5.1464
5.13091
5.11602
5.10198
5.08857
5.07596
5.06398
5.05273
5.04211
5.03213
5.02277
5.01396
5.00578
4.99804
4.99092
4.98418
4.97802
4.97221
4.96696
4.96196
4.9576
4.95335
4.94979
4.9464
4.94334
4.94114
4.93824
4.93601
4.93364
4.92984
4.92693
4.92413
4.92172
4.9208
4.91764
4.91722
4.91732
4.91959
4.92339
4.92736
4.93123
4.93509
4.9389
4.94259
4.9462
4.94968
4.95308
4.95645
4.95983
4.96323
4.96671
4.9703
4.97399
4.97777
4.98163
4.98552
4.98945
4.9933
4.99723
5.0008
5.00501
5.00723
5.97423
5.85396
5.84339
5.86507
5.91741
5.96537
6.01307
6.03664
6.05054
6.04603
6.04084
6.02754
6.00834
5.98506
5.95926
5.9323
5.90458
5.87696
5.84942
5.82266
5.79649
5.77143
5.7472
5.72421
5.70217
5.6814
5.66157
5.64299
5.62533
5.60883
5.59322
5.57866
5.56494
5.55217
5.54017
5.52904
5.5186
5.50892
5.49992
5.49153
5.48385
5.47664
5.47013
5.46403
5.45858
5.45355
5.44909
5.44504
5.44161
5.43854
5.43587
5.43352
5.43082
5.42966
5.42721
5.42436
5.42336
5.42037
5.42212
5.42363
5.42619
5.43023
5.43481
5.44001
5.44438
5.44892
5.45366
5.45865
5.4639
5.46937
5.47504
5.48086
5.48678
5.49276
5.49878
5.50481
5.51082
5.51681
5.52277
5.52868
5.53456
5.54034
5.54609
5.55164
5.55732
5.56234
5.56849
5.57129
6.3303
6.45664
6.76028
7.07189
7.32145
7.45767
7.54469
7.54178
7.52699
7.4837
7.42355
7.35642
7.2871
7.2183
7.1513
7.0874
7.02676
6.97007
6.91686
6.86763
6.82165
6.77934
6.73997
6.70381
6.67026
6.63945
6.61092
6.58477
6.56054
6.53839
6.51786
6.49911
6.48177
6.46593
6.4513
6.43799
6.42565
6.41452
6.40421
6.39488
6.38642
6.37859
6.37172
6.36538
6.35974
6.35502
6.35017
6.34696
6.34368
6.34075
6.33783
6.33589
6.33315
6.33115
6.32741
6.32707
6.32951
6.33295
6.33632
6.34048
6.34542
6.3513
6.35786
6.36506
6.37119
6.37762
6.38439
6.3915
6.39892
6.40659
6.41444
6.42241
6.43042
6.43843
6.44638
6.45425
6.46203
6.4697
6.47727
6.48471
6.49204
6.49922
6.50633
6.51316
6.52013
6.52628
6.53376
6.53737
7.36321
8.49683
9.59771
10.1648
10.4079
10.3699
10.2521
10.0305
9.79742
9.57126
9.35821
9.16197
8.98372
8.82325
8.67927
8.55061
8.43547
8.33291
8.24099
8.15926
8.08578
8.0205
7.96167
7.90936
7.8622
7.82014
7.78226
7.74842
7.7179
7.69071
7.66609
7.64423
7.62443
7.60683
7.59095
7.57686
7.56412
7.55299
7.5428
7.53399
7.52616
7.51897
7.51312
7.50761
7.50325
7.49937
7.49548
7.49319
7.49082
7.49051
7.48693
7.48787
7.48599
7.48456
7.486
7.48906
7.49319
7.49829
7.50399
7.51049
7.51758
7.52558
7.53425
7.54339
7.55115
7.55923
7.56764
7.57634
7.5853
7.59444
7.6037
7.613
7.62229
7.63151
7.64064
7.64964
7.6585
7.66721
7.67577
7.68416
7.69241
7.70044
7.7084
7.71597
7.72376
7.73046
7.73895
7.74252
10.6341
13.6191
14.8014
14.741
14.3823
13.6839
13.0349
12.4442
11.9254
11.477
11.0917
10.7606
10.476
10.2311
10.0198
9.83732
9.67916
9.54218
9.42282
9.3194
9.22871
9.15023
9.08105
9.02123
8.96834
8.92255
8.88215
8.84707
8.81621
8.78943
8.76581
8.74551
8.72755
8.71221
8.6987
8.68726
8.67728
8.66891
8.6614
8.65564
8.65046
8.64576
8.64245
8.63939
8.63709
8.63563
8.63156
8.63107
8.62882
8.63144
8.6343
8.63712
8.64067
8.64458
8.64912
8.65449
8.66068
8.66777
8.67557
8.68421
8.69344
8.70355
8.7143
8.72516
8.73422
8.74352
8.75304
8.76274
8.77259
8.78252
8.79249
8.80244
8.81233
8.82211
8.83177
8.84128
8.85062
8.85978
8.86878
8.87756
8.88619
8.89454
8.90283
8.91063
8.91877
8.92553
8.93458
8.93766
18.3634
21.0696
20.6713
19.2777
17.669
16.2872
15.1603
14.2435
13.4954
12.8815
12.3753
11.9551
11.6045
11.3107
11.0634
10.8546
10.6778
10.5278
10.4001
10.2917
10.1988
10.1204
10.0527
9.9958
9.94643
9.90528
9.86964
9.83992
9.81452
9.79319
9.77531
9.7605
9.74801
9.73797
9.72972
9.72349
9.7182
9.71416
9.71126
9.70996
9.70848
9.70774
9.70504
9.70646
9.70916
9.71233
9.71498
9.71864
9.72208
9.72647
9.73134
9.73655
9.74219
9.74834
9.75498
9.76229
9.77024
9.77897
9.78834
9.79851
9.80928
9.82088
9.83309
9.84502
9.85485
9.86484
9.87494
9.88514
9.89538
9.90564
9.91588
9.92604
9.93611
9.94605
9.95585
9.96548
9.97493
9.98418
9.99325
10.0021
10.0108
10.0191
10.0274
10.0352
10.0433
10.05
10.0591
10.0622
28.6657
28.3257
25.5938
22.3345
19.8506
17.96
16.5157
15.396
14.516
13.8149
13.2516
12.7943
12.4212
12.1146
11.8618
11.6526
11.479
11.3349
11.2148
11.1153
11.032
10.9636
10.906
10.8594
10.8199
10.7887
10.7623
10.7418
10.7249
10.7115
10.7019
10.6938
10.6883
10.6845
10.6831
10.681
10.6802
10.682
10.6843
10.688
10.6914
10.6955
10.6993
10.7039
10.709
10.7147
10.7205
10.7267
10.733
10.7396
10.7465
10.7538
10.7613
10.7693
10.7776
10.7864
10.7957
10.8056
10.816
10.8272
10.8389
10.8513
10.8643
10.8767
10.8868
10.897
10.9072
10.9175
10.9278
10.938
10.9482
10.9582
10.9682
10.978
10.9876
10.9971
11.0064
11.0155
11.0244
11.033
11.0415
11.0496
11.0578
11.0653
11.0733
11.0797
11.0886
11.0916
38.0474
34.3659
28.4677
24.1114
21.0646
18.879
17.2723
16.0629
15.1357
14.4128
13.8437
13.3903
13.0277
12.7353
12.4989
12.3076
12.152
12.026
11.9236
11.8411
11.7739
11.721
11.6776
11.6444
11.6172
11.5977
11.5817
11.5711
11.563
11.5574
11.5562
11.5533
11.5546
11.5573
11.5613
11.5661
11.5707
11.5763
11.5819
11.5886
11.5951
11.6022
11.6092
11.6165
11.6238
11.6314
11.639
11.6468
11.6547
11.6627
11.6709
11.6793
11.6878
11.6967
11.7059
11.7155
11.7254
11.7358
11.7467
11.7582
11.7701
11.7828
11.7959
11.8082
11.8182
11.8282
11.8382
11.8483
11.8582
11.8682
11.878
11.8878
11.8974
11.9068
11.9161
11.9253
11.9342
11.943
11.9515
11.9598
11.968
11.9758
11.9836
11.9908
11.9985
12.0045
12.0131
12.016
46.0772
38.1588
30.0249
24.9382
21.5926
19.2837
17.6321
16.4163
15.5028
14.804
14.2643
13.8422
13.5114
13.25
13.0433
12.8797
12.75
12.6479
12.5673
12.5046
12.4555
12.4187
12.3899
12.3698
12.3543
12.3451
12.3384
12.3363
12.3346
12.3363
12.3406
12.3451
12.3508
12.3575
12.3648
12.3728
12.3807
12.389