/*--------------------------------*- C++ -*----------------------------------*\
| =========                 |                                                 |
| \\      /  F ield         | OpenFOAM: The Open Source CFD Toolbox           |
|  \\    /   O peration     | Version:  2306                                  |
|   \\  /    A nd           | Website:  www.openfoam.com                      |
|    \\/     M anipulation  |                                                 |
\*---------------------------------------------------------------------------*/
FoamFile
{
    version     2.0;
    format      ascii;
    arch        "LSB;label=32;scalar=64";
    class       volScalarField;
    location    "2000";
    object      mag(U);
}
// * * * * * * * * * * * * * * * * * * * * * * * * * * * * * * * * * * * * * //

dimensions      [0 1 -1 0 0 0 0];

internalField   nonuniform List<scalar> 
20540
(
40.4283
29.8091
40.4535
29.8322
40.4866
29.8624
40.5291
29.9015
40.5831
29.9514
40.651
30.0144
40.7355
30.0932
40.8396
30.191
40.967
30.3117
41.1216
30.46
41.3082
30.6413
41.5318
30.8624
41.798
31.1311
42.1123
31.457
42.48
31.8515
42.9057
32.3283
43.3913
32.9033
43.9347
33.5952
44.5262
34.4251
45.1439
35.4157
45.7471
36.5894
46.2708
37.965
46.6326
39.5488
46.7624
41.3188
46.6406
43.2026
46.3033
45.0235
45.8313
46.4094
45.3444
47.0048
44.9529
47.0179
44.7067
46.8276
44.6039
46.673
44.572
46.6052
44.5741
46.6109
44.6122
46.6911
44.7244
46.856
44.9764
47.0426
45.3676
47.0157
45.8481
46.3907
46.3089
44.9579
46.6281
43.0859
46.7174
41.1496
46.535
39.3246
46.1048
37.6836
45.5065
36.2497
44.8295
35.0186
44.1414
33.973
43.4839
33.0913
42.879
32.3516
42.3365
31.733
41.8585
31.2169
41.443
30.7872
41.0856
30.4299
40.7808
30.1334
40.5226
29.8877
40.3054
29.6845
40.1239
29.517
39.9729
29.3794
39.8482
29.2668
39.7459
29.1751
39.6625
29.1008
39.5952
29.0411
39.5413
28.9936
39.4988
28.9562
39.4657
28.9272
39.4404
28.905
9.26218
6.2677
5.64506
5.33191
5.12946
4.98908
4.88708
4.80928
4.7482
4.69921
4.65931
4.62613
4.59851
4.57487
4.55494
4.53763
4.5228
4.50977
4.49847
4.48849
4.47972
4.47193
4.46501
4.45883
4.45331
4.44841
4.44397
4.44
4.43641
4.43319
4.43026
4.42759
4.4252
4.42301
4.42106
4.41926
4.41766
4.4162
4.41491
4.41376
4.41278
4.41196
4.4113
4.41082
4.41055
4.41048
4.41067
4.41114
4.41192
4.41305
4.41459
4.41658
4.41912
4.42223
4.42605
4.43058
4.43601
4.44235
4.44983
4.45842
4.46847
4.4799
4.49319
4.50582
4.51675
4.52827
4.54056
4.55358
4.56734
4.58186
4.59718
4.61336
4.63039
4.64834
4.66736
4.68724
4.70873
4.73067
4.75566
4.77956
4.81044
4.83503
4.87845
4.89981
4.96696
4.99811
5.08365
5.19146
16.3931
12.2244
11.2324
10.7237
10.3895
10.1558
9.98507
9.85425
9.75124
9.66839
9.60078
9.54447
9.49752
9.45729
9.42334
9.39384
9.36852
9.34629
9.32697
9.30992
9.29492
9.2816
9.26975
9.25917
9.24972
9.24131
9.23371
9.2269
9.22075
9.21522
9.21019
9.20562
9.20151
9.19776
9.1944
9.19132
9.18857
9.18606
9.18386
9.1819
9.18022
9.17881
9.1777
9.17689
9.17644
9.17636
9.1767
9.17756
9.17896
9.18097
9.1837
9.18722
9.19169
9.19718
9.2039
9.21188
9.22144
9.23259
9.24573
9.26083
9.27847
9.29855
9.32186
9.34401
9.36318
9.38336
9.40488
9.42766
9.45174
9.47714
9.50393
9.53217
9.56194
9.59321
9.62642
9.66097
9.69848
9.73648
9.78012
9.82122
9.87518
9.91711
9.99238
10.0289
10.1424
10.1982
10.3187
10.7105
20.7843
16.487
15.3134
14.6999
14.2904
14.0021
13.7906
13.6281
13.4998
13.3966
13.3122
13.2419
13.1832
13.1329
13.0904
13.0535
13.0218
12.9939
12.9697
12.9484
12.9295
12.9128
12.898
12.8847
12.8728
12.8623
12.8527
12.8442
12.8364
12.8295
12.8232
12.8174
12.8123
12.8076
12.8033
12.7994
12.796
12.7928
12.7901
12.7876
12.7855
12.7838
12.7824
12.7814
12.7809
12.7809
12.7814
12.7825
12.7844
12.7871
12.7907
12.7954
12.8013
12.8085
12.8173
12.8278
12.8403
12.8549
12.8721
12.8919
12.915
12.9413
12.9718
13.0008
13.0259
13.0523
13.0805
13.1103
13.1418
13.175
13.21
13.2469
13.2859
13.3267
13.3702
13.4152
13.4644
13.5137
13.5711
13.624
13.6952
13.7486
13.8471
13.8946
14.038
14.1141
14.2439
14.8266
23.54
19.4736
18.2114
17.5352
17.0765
16.751
16.5114
16.3267
16.1808
16.0631
15.9669
15.8867
15.8197
15.7622
15.7137
15.6715
15.6352
15.6033
15.5756
15.5512
15.5296
15.5105
15.4935
15.4783
15.4647
15.4526
15.4417
15.4319
15.423
15.415
15.4078
15.4012
15.3953
15.3899
15.385
15.3806
15.3766
15.373
15.3698
15.367
15.3646
15.3626
15.361
15.3599
15.3594
15.3594
15.36
15.3614
15.3636
15.3668
15.3711
15.3766
15.3835
15.392
15.4023
15.4147
15.4294
15.4466
15.4668
15.49
15.5171
15.5479
15.5837
15.6177
15.6471
15.6781
15.711
15.7459
15.7828
15.8217
15.8627
15.9058
15.9514
15.999
16.0499
16.1022
16.1599
16.2168
16.2841
16.3448
16.4283
16.489
16.6029
16.6579
16.8197
16.905
17.0552
17.616
25.4713
21.7877
20.4966
19.782
19.2878
18.9338
18.6719
18.4696
18.3092
18.1798
18.0739
17.9855
17.9116
17.8482
17.7946
17.748
17.708
17.6728
17.6422
17.6151
17.5913
17.5702
17.5513
17.5345
17.5195
17.5061
17.494
17.4831
17.4733
17.4645
17.4565
17.4492
17.4426
17.4366
17.4312
17.4263
17.4219
17.4179
17.4144
17.4112
17.4086
17.4063
17.4046
17.4034
17.4028
17.4028
17.4035
17.4051
17.4076
17.4112
17.416
17.4221
17.4299
17.4394
17.451
17.4648
17.4812
17.5005
17.5231
17.5491
17.5794
17.6139
17.6538
17.6918
17.7247
17.7592
17.796
17.8349
17.8761
17.9194
17.9651
18.0131
18.0638
18.1167
18.1733
18.2312
18.2953
18.358
18.4328
18.499
18.5915
18.6575
18.782
18.8421
19.0171
19.1008
19.2926
19.6906
26.9317
23.6947
22.4231
21.69
21.1708
20.7945
20.5143
20.297
20.1243
19.9847
19.8703
19.7747
19.6947
19.6261
19.568
19.5175
19.4741
19.436
19.4027
19.3734
19.3475
19.3246
19.3041
19.2859
19.2695
19.2549
19.2418
19.23
19.2193
19.2097
19.201
19.193
19.1858
19.1793
19.1734
19.1681
19.1633
19.1589
19.1551
19.1517
19.1488
19.1463
19.1445
19.1431
19.1424
19.1424
19.1432
19.1449
19.1476
19.1515
19.1567
19.1634
19.1719
19.1822
19.1949
19.2099
19.2278
19.2487
19.2733
19.3016
19.3345
19.3721
19.4155
19.4567
19.4924
19.53
19.5699
19.6121
19.6567
19.7036
19.7531
19.8049
19.8599
19.9168
19.978
20.0402
20.1093
20.1764
20.2569
20.3274
20.4264
20.4964
20.628
20.6916
20.8769
20.9506
21.1964
21.3917
28.0974
25.3237
24.1135
23.3806
22.8462
22.4529
22.1577
21.9276
21.7441
21.5953
21.4732
21.3711
21.2856
21.2122
21.1499
21.0958
21.0493
21.0083
20.9727
20.9412
20.9134
20.8887
20.8668
20.8472
20.8296
20.8139
20.7997
20.787
20.7755
20.7652
20.7558
20.7472
20.7395
20.7324
20.7261
20.7203
20.7151
20.7104
20.7063
20.7026
20.6994
20.6968
20.6947
20.6933
20.6925
20.6925
20.6933
20.6951
20.698
20.7021
20.7076
20.7148
20.7238
20.7348
20.7483
20.7643
20.7835
20.8058
20.8321
20.8622
20.8974
20.9375
20.9838
21.0277
21.0657
21.1057
21.1482
21.1931
21.2405
21.2903
21.3429
21.3979
21.4561
21.5163
21.5811
21.6467
21.7197
21.7901
21.8749
21.9486
22.0522
22.1251
22.2612
22.3271
22.5203
22.5799
22.8761
22.9082
29.0668
26.7462
25.6328
24.9191
24.3797
23.9749
23.6679
23.4269
23.2339
23.077
22.9478
22.8397
22.7489
22.671
22.6048
22.5473
22.4977
22.4542
22.4161
22.3826
22.353
22.3266
22.3032
22.2822
22.2635
22.2467
22.2316
22.218
22.2057
22.1946
22.1845
22.1753
22.1671
22.1595
22.1527
22.1465
22.1409
22.1359
22.1314
22.1274
22.124
22.1212
22.119
22.1174
22.1165
22.1164
22.1172
22.119
22.122
22.1263
22.1321
22.1396
22.1491
22.1607
22.1749
22.1917
22.2118
22.2353
22.263
22.2947
22.3317
22.3738
22.4225
22.4686
22.5085
22.5506
22.5951
22.6422
22.6919
22.744
22.799
22.8564
22.9173
22.98
23.0476
23.1157
23.1916
23.2645
23.3522
23.4284
23.5347
23.6101
23.7485
23.8159
24.0138
24.0608
24.3889
24.3345
29.9
28.0071
27.0186
26.3431
25.8098
25.3997
25.0844
24.8348
24.6336
24.4694
24.3338
24.22
24.1243
24.0421
23.9721
23.9113
23.8588
23.8126
23.7723
23.7367
23.7052
23.6773
23.6524
23.6301
23.6101
23.5923
23.5762
23.5617
23.5486
23.5367
23.526
23.5162
23.5074
23.4993
23.492
23.4854
23.4794
23.474
23.4692
23.465
23.4613
23.4582
23.4558
23.454
23.453
23.4528
23.4536
23.4554
23.4585
23.4629
23.4689
23.4766
23.4864
23.4985
23.5132
23.5307
23.5516
23.576
23.6047
23.6378
23.6762
23.7199
23.7706
23.8184
23.8598
23.9034
23.9496
23.9983
24.0497
24.1036
24.1605
24.2198
24.2825
24.3472
24.4167
24.4867
24.5645
24.6394
24.7286
24.8069
24.9142
24.9918
25.1304
25.199
25.3979
25.4378
25.7734
25.6986
30.6362
29.1373
28.2934
27.6749
27.1598
26.7516
26.4322
26.1764
25.9687
25.7981
25.6568
25.5378
25.4375
25.3512
25.2776
25.2135
25.1581
25.1095
25.0668
25.0292
24.9959
24.9663
24.9399
24.9163
24.8951
24.8762
24.8591
24.8437
24.8297
24.8171
24.8057
24.7953
24.7859
24.7773
24.7695
24.7624
24.756
24.7502
24.7451
24.7405
24.7366
24.7332
24.7306
24.7286
24.7275
24.7271
24.7278
24.7296
24.7326
24.7371
24.7432
24.7511
24.7611
24.7735
24.7886
24.8066
24.8281
24.8532
24.8827
24.9167
24.9563
25.0012
25.0532
25.1023
25.1448
25.1896
25.237
25.2869
25.3396
25.3948
25.453
25.5135
25.5776
25.6435
25.7142
25.7855
25.8643
25.9406
26.0304
26.1101
26.2171
26.2965
26.4334
26.5038
26.699
26.7384
27.0618
26.9979
31.3027
30.1607
29.4723
28.9276
28.4438
28.0457
27.7273
27.4685
27.2562
27.0807
26.9344
26.8108
26.7062
26.6161
26.539
26.4718
26.4136
26.3624
26.3175
26.2779
26.2427
26.2115
26.1836
26.1586
26.1362
26.1161
26.098
26.0816
26.0668
26.0534
26.0413
26.0302
26.0202
26.011
26.0027
25.9951
25.9883
25.9821
25.9766
25.9717
25.9674
25.9638
25.9609
25.9587
25.9574
25.9569
25.9574
25.9591
25.9621
25.9665
25.9726
25.9806
25.9908
26.0033
26.0186
26.0369
26.0588
26.0844
26.1145
26.1491
26.1894
26.2352
26.2881
26.3381
26.3813
26.4268
26.475
26.5257
26.5792
26.6352
26.6942
26.7555
26.8202
26.8869
26.9581
27.0301
27.1091
27.1862
27.2756
27.3563
27.4619
27.5428
27.6764
27.7489
27.9365
27.9803
28.2803
28.2335
31.9197
31.0966
30.5662
30.1091
29.6697
29.2911
28.9798
28.722
28.5078
28.3289
28.1789
28.0514
27.9431
27.8495
27.7692
27.699
27.6381
27.5844
27.5373
27.4956
27.4586
27.4257
27.3962
27.3699
27.3462
27.3249
27.3057
27.2884
27.2727
27.2585
27.2456
27.2338
27.2231
27.2133
27.2045
27.1964
27.1891
27.1825
27.1766
27.1713
27.1667
27.1627
27.1595
27.1571
27.1555
27.1548
27.1551
27.1567
27.1595
27.1638
27.1699
27.1779
27.188
27.2006
27.216
27.2345
27.2565
27.2823
27.3127
27.3476
27.3883
27.4345
27.488
27.5384
27.582
27.6279
27.6764
27.7275
27.7814
27.8377
27.8969
27.9585
28.0234
28.0903
28.1614
28.2336
28.3122
28.3894
28.4779
28.559
28.6624
28.7441
28.873
28.9481
29.1253
29.1754
29.4484
29.4156
32.5031
31.9619
31.5846
31.2243
30.8417
30.4927
30.1957
29.9438
29.731
29.5511
29.3988
29.2686
29.1573
29.0607
28.9775
28.9046
28.8411
28.7851
28.7358
28.6921
28.6532
28.6186
28.5876
28.5598
28.5348
28.5124
28.4921
28.4737
28.4571
28.442
28.4283
28.4158
28.4044
28.394
28.3845
28.3759
28.3681
28.361
28.3546
28.3489
28.3439
28.3396
28.3361
28.3334
28.3315
28.3305
28.3307
28.332
28.3346
28.3388
28.3447
28.3525
28.3626
28.3751
28.3904
28.4088
28.4309
28.4567
28.4871
28.522
28.5628
28.6091
28.6626
28.713
28.7566
28.8025
28.8511
28.9021
28.9559
29.0121
29.0712
29.1325
29.1971
29.2637
29.3343
29.4061
29.4838
29.5607
29.6476
29.7283
29.8288
29.911
30.0343
30.1116
30.2771
30.3329
30.5795
30.5562
33.0662
32.7717
32.537
32.2772
31.9614
31.6523
31.3776
31.1376
30.9303
30.7524
30.6
30.4684
30.3553
30.2564
30.1709
30.0957
30.0299
29.9717
29.9203
29.8747
29.8341
29.7978
29.7653
29.7361
29.7097
29.6861
29.6646
29.6452
29.6276
29.6116
29.597
29.5838
29.5716
29.5606
29.5505
29.5413
29.5329
29.5253
29.5184
29.5123
29.5069
29.5022
29.4983
29.4952
29.493
29.4917
29.4916
29.4926
29.495
29.4989
29.5046
29.5122
29.522
29.5343
29.5495
29.5677
29.5895
29.6151
29.6452
29.68
29.7204
29.7664
29.8196
29.8697
29.913
29.9586
30.0067
30.0574
30.1107
30.1664
30.2249
30.2857
30.3495
30.4153
30.485
30.556
30.6323
30.7081
30.7929
30.873
30.97
31.0523
31.1693
31.2482
31.4015
31.4611
31.6831
31.6654
33.6213
33.5398
33.4334
33.2725
33.0301
32.7699
32.5258
32.3042
32.1077
31.9355
31.7858
31.655
31.5414
31.4414
31.3544
31.2775
31.2099
31.1499
31.0967
31.0494
31.0071
30.9692
30.9352
30.9046
30.877
30.8521
30.8295
30.8091
30.7904
30.7735
30.7581
30.744
30.7311
30.7193
30.7085
30.6987
30.6897
30.6816
30.6742
30.6676
30.6617
30.6566
30.6523
30.6488
30.6462
30.6446
30.6441
30.6448
30.6468
30.6504
30.6558
30.6631
30.6726
30.6845
30.6993
30.7172
30.7386
30.7638
30.7935
30.8277
30.8676
30.913
30.9654
31.0149
31.0576
31.1025
31.15
31.1999
31.2524
31.3073
31.3648
31.4246
31.4873
31.5521
31.6204
31.69
31.7645
31.8391
31.9213
32.0003
32.0934
32.1751
32.2854
32.3648
32.5061
32.5672
32.7666
32.7519
34.1803
34.2793
34.2847
34.2159
34.0492
33.8447
33.639
33.443
33.2629
33.101
32.9575
32.8302
32.7182
32.6187
32.5315
32.4538
32.3851
32.3238
32.2693
32.2205
32.1768
32.1376
32.1022
32.0703
32.0415
32.0154
31.9918
31.9702
31.9506
31.9327
31.9164
31.9015
31.8878
31.8753
31.8638
31.8533
31.8438
31.835
31.8271
31.82
31.8136
31.808
31.8033
31.7993
31.7963
31.7943
31.7934
31.7937
31.7954
31.7986
31.8035
31.8104
31.8195
31.831
31.8453
31.8627
31.8835
31.9081
31.9371
31.9706
32.0097
32.0542
32.1056
32.154
32.1959
32.2399
32.2865
32.3354
32.3868
32.4405
32.4968
32.5554
32.6166
32.6799
32.7464
32.8145
32.8868
32.9597
33.0391
33.1163
33.2053
33.2857
33.3891
33.468
33.5972
33.6581
33.836
33.8233
34.7562
35.0033
35.1028
35.1156
35.0221
34.8769
34.7156
34.5517
34.3942
34.2477
34.1145
33.9941
33.8865
33.7896
33.7038
33.6266
33.5579
33.4962
33.4409
33.3913
33.3467
33.3064
33.2699
33.237
33.2071
33.18
33.1553
33.1328
33.1123
33.0935
33.0763
33.0606
33.0461
33.0329
33.0207
33.0096
32.9994
32.99
32.9815
32.9738
32.967
32.9609
32.9556
32.9512
32.9478
32.9453
32.944
32.9439
32.9451
32.9478
32.9523
32.9587
32.9673
32.9783
32.992
33.0087
33.0289
33.0527
33.0809
33.1135
33.1515
33.1948
33.2449
33.2921
33.3329
33.3758
33.4211
33.4688
33.5189
33.5713
33.6261
33.683
33.7425
33.8041
33.8685
33.9348
34.0047
34.0754
34.1517
34.2268
34.3113
34.3896
34.4862
34.5631
34.6804
34.7396
34.8971
34.8857
35.3642
35.725
35.9002
35.9815
35.9546
35.8681
35.7548
35.6282
35.4987
35.3729
35.2548
35.1451
35.0451
34.9536
34.8713
34.7965
34.7293
34.6684
34.6134
34.5638
34.5188
34.478
34.4409
34.4073
34.3767
34.3488
34.3233
34.3
34.2787
34.2591
34.2412
34.2247
34.2096
34.1956
34.1828
34.171
34.1602
34.1503
34.1412
34.133
34.1256
34.119
34.1133
34.1084
34.1045
34.1015
34.0997
34.0991
34.0999
34.1021
34.1061
34.112
34.12
34.1303
34.1434
34.1594
34.1787
34.2017
34.2288
34.2603
34.2971
34.339
34.3876
34.4334
34.4729
34.5145
34.5585
34.6048
34.6533
34.7041
34.7571
34.8123
34.8698
34.9295
34.9917
35.0556
35.1229
35.1913
35.2641
35.3367
35.4164
35.4918
35.5814
35.6551
35.7606
35.817
35.955
35.9447
36.0225
36.4581
36.6909
36.8259
36.8554
36.8232
36.7577
36.671
36.5738
36.4735
36.3749
36.2802
36.1915
36.1086
36.0326
35.9625
35.8987
35.8402
35.7869
35.7384
35.6941
35.6536
35.6167
35.5829
35.5521
35.5238
35.4979
35.4741
35.4523
35.4322
35.4136
35.3966
35.3809
35.3664
35.353
35.3406
35.3292
35.3188
35.3092
35.3005
35.2926
35.2855
35.2793
35.2739
35.2696
35.2662
35.2639
35.2628
35.2631
35.2648
35.2682
35.2735
35.2809
35.2906
35.3029
35.3181
35.3366
35.3585
35.3846
35.4149
35.4503
35.4907
35.5375
35.5817
35.6198
35.66
35.7026
35.7472
35.794
35.843
35.8941
35.9474
36.0028
36.0601
36.1199
36.1814
36.2457
36.3114
36.3804
36.4499
36.5246
36.5964
36.6785
36.7481
36.8419
36.8943
37.0145
37.005
36.7537
37.2189
37.4897
37.6628
37.7362
37.7501
37.7286
37.6816
37.6185
37.5467
37.4715
37.3957
37.322
37.2511
37.1845
37.1218
37.0637
37.0098
36.96
36.9141
36.8718
36.8329
36.797
36.7641
36.7337
36.7058
36.68
36.6562
36.6342
36.6139
36.5952
36.5778
36.5618
36.5469
36.5332
36.5204
36.5087
36.4978
36.4878
36.4787
36.4704
36.4629
36.4562
36.4505
36.4457
36.4419
36.4391
36.4376
36.4374
36.4386
36.4415
36.4462
36.4529
36.4619
36.4735
36.4879
36.5054
36.5263
36.5512
36.5802
36.6141
36.6529
36.6978
36.7403
36.777
36.8157
36.8565
36.8994
36.9443
36.9913
37.0405
37.0915
37.1446
37.1995
37.2567
37.3154
37.3764
37.4389
37.504
37.5696
37.6391
37.7063
37.7809
37.8452
37.9277
37.9756
38.079
38.0702
37.5853
38.0281
38.3138
38.5084
38.6115
38.6605
38.6759
38.6648
38.6347
38.5922
38.5424
38.4883
38.4327
38.377
38.3228
38.2704
38.2208
38.1737
38.1295
38.0882
38.0496
38.0138
37.9803
37.9493
37.9205
37.8938
37.8689
37.8458
37.8245
37.8046
37.7861
37.7689
37.7529
37.738
37.7242
37.7114
37.6995
37.6884
37.6783
37.6689
37.6603
37.6526
37.6457
37.6396
37.6345
37.6303
37.6272
37.6253
37.6246
37.6254
37.6278
37.6319
37.6381
37.6464
37.6572
37.6708
37.6873
37.7072
37.7309
37.7585
37.7909
37.828
37.871
37.9117
37.9468
37.9838
38.0228
38.0638
38.1069
38.1518
38.1986
38.2473
38.2978
38.3501
38.4043
38.4599
38.5174
38.5762
38.637
38.6981
38.7619
38.8238
38.8904
38.9488
39.0202
39.0632
39.1513
39.1431
38.5498
38.9118
39.1828
39.3808
39.4984
39.5697
39.6119
39.6296
39.6282
39.6131
39.5883
39.5568
39.521
39.4827
39.4433
39.4038
39.365
39.3273
39.2911
39.2564
39.2235
39.1924
39.163
39.1354
39.1095
39.0852
39.0623
39.041
39.021
39.0023
38.9848
38.9684
38.9531
38.9388
38.9254
38.9129
38.9012
38.8904
38.8803
38.871
38.8625
38.8547
38.8478
38.8416
38.8363
38.832
38.8287
38.8265
38.8256
38.826
38.828
38.8316
38.8372
38.845
38.8551
38.8678
38.8835
38.9023
38.9248
38.951
38.9819
39.0172
39.0583
39.097
39.1304
39.1656
39.2028
39.2418
39.2827
39.3254
39.3698
39.4159
39.4637
39.513
39.5638
39.6159
39.6694
39.724
39.7799
39.836
39.8936
39.9494
40.0079
40.0597
40.1205
40.1582
40.2324
40.2249
39.6858
39.8987
40.1191
40.3006
40.4163
40.4956
40.5527
40.5896
40.6098
40.617
40.6142
40.6037
40.5873
40.5669
40.5436
40.5185
40.4923
40.4658
40.4394
40.4134
40.388
40.3636
40.34
40.3175
40.2959
40.2754
40.2559
40.2374
40.22
40.2035
40.1879
40.1732
40.1593
40.1462
40.1339
40.1224
40.1115
40.1014
40.092
40.0832
40.075
40.0676
40.0609
40.055
40.0499
40.0457
40.0424
40.0402
40.0392
40.0394
40.0412
40.0445
40.0497
40.0569
40.0664
40.0784
40.0932
40.1111
40.1324
40.1573
40.1865
40.2202
40.259
40.2957
40.3274
40.3608
40.3959
40.4328
40.4713
40.5115
40.5532
40.5964
40.641
40.687
40.7341
40.7822
40.8313
40.8811
40.9315
40.9818
41.0327
41.0819
41.1323
41.177
41.2279
41.2603
41.3216
41.3146
41.0373
41.0152
41.1477
41.2898
41.3863
41.4584
41.5172
41.562
41.5943
41.6164
41.6298
41.6361
41.6363
41.6321
41.624
41.6133
41.6003
41.5859
41.5704
41.5544
41.5379
41.5215
41.5052
41.4892
41.4734
41.4582
41.4433
41.4291
41.4154
41.4021
41.3895
41.3775
41.366
41.355
41.3446
41.3348
41.3255
41.3167
41.3085
41.3008
41.2936
41.2871
41.2811
41.2759
41.2713
41.2676
41.2647
41.2628
41.2619
41.2623
41.264
41.2673
41.2723
41.2792
41.2882
41.2996
41.3137
41.3306
41.3508
41.3744
41.4022
41.4339
41.4706
41.5051
41.535
41.5663
41.5992
41.6336
41.6696
41.707
41.7457
41.7856
41.8266
41.8687
41.9116
41.9551
41.9992
42.0435
42.0879
42.1319
42.1757
42.2177
42.2599
42.2975
42.339
42.366
42.4158
42.4089
42.6224
42.2926
42.2952
42.3713
42.4295
42.4788
42.5253
42.5659
42.5996
42.6272
42.6491
42.6658
42.6776
42.6856
42.6899
42.6913
42.6902
42.6871
42.6823
42.6763
42.6692
42.6615
42.6531
42.6445
42.6355
42.6265
42.6174
42.6084
42.5995
42.5906
42.582
42.5735
42.5654
42.5575
42.5499
42.5426
42.5355
42.5289
42.5225
42.5165
42.511
42.5059
42.5013
42.4972
42.4937
42.4908
42.4888
42.4875
42.4873
42.4881
42.4902
42.4937
42.4987
42.5055
42.5143
42.5252
42.5386
42.5547
42.5739
42.5963
42.6224
42.6523
42.6866
42.719
42.7467
42.7758
42.8063
42.838
42.871
42.9051
42.9404
42.9765
43.0135
43.051
43.0891
43.1275
43.1659
43.2041
43.242
43.2791
43.3155
43.3501
43.3843
43.4146
43.4473
43.4689
43.5081
43.5012
44.3744
43.751
43.5804
43.5614
43.5619
43.5728
43.5941
43.6183
43.6426
43.6661
43.6877
43.7071
43.7238
43.7382
43.75
43.7597
43.7672
43.773
43.7769
43.7795
43.7808
43.781
43.7803
43.7788
43.7767
43.7741
43.7711
43.7677
43.764
43.7602
43.7562
43.7521
43.7479
43.7438
43.7396
43.7355
43.7314
43.7274
43.7236
43.72
43.7167
43.7136
43.7109
43.7085
43.7065
43.705
43.7042
43.7041
43.7048
43.7064
43.7092
43.7131
43.7185
43.7254
43.7341
43.7449
43.7578
43.7732
43.7914
43.8126
43.837
43.8648
43.8967
43.9265
43.9519
43.9785
44.0062
44.0349
44.0646
44.095
44.1263
44.158
44.1903
44.2227
44.2553
44.2877
44.3199
44.3514
44.3823
44.4122
44.441
44.4682
44.4945
44.5177
44.5423
44.5585
44.5879
44.5809
46.0711
45.3193
44.9777
44.8509
44.7799
44.7412
44.7274
44.7262
44.7321
44.7429
44.7561
44.7707
44.7854
44.8
44.8137
44.8265
44.8381
44.8487
44.8581
44.8663
44.8734
44.8795
44.8848
44.8891
44.8927
44.8956
44.8979
44.8997
44.9009
44.9018
44.9023
44.9025
44.9025
44.9022
44.9017
44.901
44.9002
44.8994
44.8986
44.8978
44.897
44.8962
44.8957
44.8952
44.8951
44.8953
44.8961
44.8973
44.8993
44.902
44.9057
44.9104
44.9163
44.9236
44.9325
44.9431
44.9558
44.9705
44.9878
45.0075
45.0301
45.0556
45.0846
45.1114
45.1341
45.1578
45.1821
45.2072
45.233
45.2593
45.2859
45.3127
45.3395
45.3662
45.3926
45.4186
45.444
45.4684
45.4921
45.5145
45.5359
45.5557
45.5745
45.591
45.608
45.6188
45.6392
45.6318
47.259
46.7157
46.343
46.1517
46.0231
45.9416
45.894
45.866
45.8512
45.8456
45.8464
45.8515
45.8593
45.8691
45.8798
45.891
45.9024
45.9135
45.9244
45.9346
45.9444
45.9534
45.9619
45.9697
45.9769
45.9834
45.9894
45.9948
45.9997
46.0042
46.0082
46.0118
46.015
46.018
46.0206
46.023
46.0252
46.0272
46.029
46.0307
46.0324
46.0339
46.0356
46.0373
46.0392
46.0413
46.0437
46.0465
46.0498
46.0537
46.0583
46.0638
46.0703
46.0779
46.0869
46.0973
46.1094
46.1233
46.1391
46.157
46.1774
46.1999
46.2253
46.2484
46.2678
46.2877
46.3082
46.3289
46.35
46.3712
46.3923
46.4134
46.4341
46.4544
46.4742
46.4933
46.5115
46.5287
46.545
46.5602
46.5741
46.5868
46.5986
46.6085
46.6186
46.6243
46.6365
46.6287
47.6856
47.5143
47.3339
47.2175
47.1128
47.0344
46.9817
46.9464
46.9237
46.9101
46.9035
46.902
46.9042
46.9092
46.916
46.9242
46.9332
46.9426
46.9524
46.9621
46.9718
46.9812
46.9904
46.9991
47.0076
47.0155
47.0231
47.0303
47.0371
47.0434
47.0494
47.055
47.0603
47.0653
47.0699
47.0743
47.0784
47.0823
47.0859
47.0894
47.0928
47.0961
47.0994
47.1028
47.1062
47.1097
47.1134
47.1173
47.1216
47.1263
47.1316
47.1375
47.1441
47.1517
47.1602
47.1699
47.1808
47.1931
47.2068
47.2222
47.2392
47.2579
47.2784
47.2968
47.312
47.3276
47.343
47.3586
47.3741
47.3893
47.4043
47.4188
47.4328
47.4463
47.4588
47.4706
47.4816
47.4916
47.5005
47.5086
47.5156
47.5215
47.5266
47.5303
47.534
47.5348
47.5396
47.5313
47.6648
47.7214
47.7416
47.7803
47.7865
47.7825
47.7813
47.7819
47.7837
47.7874
47.7929
47.7998
47.8078
47.8166
47.826
47.8358
47.8458
47.8559
47.866
47.876
47.8858
47.8953
47.9046
47.9136
47.9223
47.9307
47.9387
47.9464
47.9538
47.9609
47.9676
47.974
47.9801
47.9859
47.9915
47.9968
48.0018
48.0066
48.0113
48.0157
48.02
48.0242
48.0283
48.0323
48.0364
48.0405
48.0446
48.0489
48.0535
48.0582
48.0634
48.0689
48.0749
48.0815
48.0888
48.0968
48.1057
48.1154
48.126
48.1376
48.1501
48.1635
48.1778
48.1902
48.2003
48.2101
48.2199
48.2293
48.2383
48.2468
48.2549
48.2623
48.2691
48.2752
48.2804
48.2849
48.2885
48.2912
48.2932
48.2944
48.2947
48.2942
48.293
48.291
48.2889
48.285
48.2832
48.2743
47.5486
47.6856
47.7947
47.9237
48.0114
48.0775
48.1348
48.1832
48.2237
48.2589
48.2897
48.3169
48.3412
48.3631
48.3831
48.4014
48.4183
48.4339
48.4484
48.4619
48.4746
48.4865
48.4977
48.5083
48.5183
48.5278
48.5368
48.5453
48.5534
48.5611
48.5684
48.5753
48.5819
48.5882
48.5942
48.5999
48.6054
48.6106
48.6157
48.6205
48.6251
48.6296
48.6339
48.6381
48.6423
48.6464
48.6504
48.6545
48.6587
48.6629
48.6673
48.6719
48.6767
48.6818
48.6871
48.6928
48.6989
48.7053
48.712
48.7191
48.7264
48.7339
48.7413
48.7475
48.7521
48.7564
48.7602
48.7636
48.7664
48.7686
48.7702
48.7712
48.7714
48.771
48.7699
48.768
48.7655
48.7623
48.7584
48.7539
48.749
48.7434
48.7375
48.731
48.7243
48.717
48.7103
48.7007
47.4827
47.6403
47.7785
47.9421
48.0637
48.1615
48.2469
48.3198
48.3815
48.4345
48.4805
48.5205
48.5555
48.5864
48.6138
48.6383
48.6604
48.6803
48.6984
48.715
48.7302
48.7442
48.7572
48.7692
48.7805
48.791
48.8008
48.8101
48.8188
48.827
48.8348
48.8421
48.8491
48.8557
48.862
48.868
48.8737
48.8791
48.8843
48.8892
48.8939
48.8985
48.9028
48.907
48.911
48.9149
48.9186
48.9223
48.9258
48.9293
48.9328
48.9361
48.9395
48.9428
48.946
48.9493
48.9524
48.9554
48.9583
48.9609
48.9632
48.9649
48.9661
48.9663
48.9659
48.9651
48.9638
48.9618
48.9592
48.956
48.9521
48.9477
48.9426
48.937
48.9307
48.9238
48.9164
48.9087
48.9003
48.8917
48.8827
48.8733
48.8637
48.8539
48.8439
48.8339
48.8238
48.8133
47.4877
47.6438
47.7809
47.9429
48.0628
48.1587
48.2422
48.313
48.3728
48.424
48.4683
48.5066
48.5401
48.5697
48.5958
48.6192
48.6402
48.6592
48.6765
48.6924
48.7069
48.7203
48.7328
48.7444
48.7552
48.7654
48.7749
48.7839
48.7924
48.8004
48.808
48.8152
48.8221
48.8285
48.8347
48.8406
48.8462
48.8515
48.8566
48.8614
48.866
48.8703
48.8745
48.8784
48.8821
48.8856
48.8889
48.8919
48.8947
48.8973
48.8997
48.9017
48.9035
48.9049
48.9059
48.9067
48.9068
48.9065
48.9055
48.9037
48.901
48.8973
48.8924
48.8872
48.8823
48.8768
48.8707
48.864
48.8567
48.8488
48.8403
48.8312
48.8217
48.8115
48.801
48.79
48.7788
48.7672
48.7553
48.7433
48.7311
48.7187
48.7063
48.6939
48.6815
48.6692
48.6566
48.6451
47.5631
47.6943
47.7986
47.9216
48.0026
48.062
48.1124
48.1542
48.1886
48.218
48.2437
48.2663
48.2864
48.3046
48.3214
48.3368
48.351
48.3644
48.3769
48.3887
48.3999
48.4105
48.4206
48.4303
48.4394
48.4482
48.4565
48.4645
48.4722
48.4795
48.4864
48.4931
48.4995
48.5056
48.5115
48.517
48.5224
48.5274
48.5323
48.5369
48.5412
48.5453
48.5491
48.5527
48.556
48.559
48.5617
48.5641
48.5661
48.5677
48.5688
48.5695
48.5696
48.5691
48.5679
48.5661
48.5632
48.5595
48.5547
48.5486
48.5412
48.5324
48.5218
48.5115
48.5024
48.4928
48.4825
48.4715
48.46
48.448
48.4354
48.4223
48.4088
48.3951
48.381
48.3665
48.3519
48.3372
48.3224
48.3075
48.2926
48.2779
48.2631
48.2485
48.2341
48.22
48.2055
48.1929
47.6829
47.725
47.7321
47.7563
47.7478
47.7306
47.7174
47.7076
47.7005
47.6967
47.6957
47.6972
47.7007
47.7057
47.7118
47.7189
47.7267
47.7349
47.7434
47.7521
47.7609
47.7697
47.7783
47.7868
47.7952
47.8033
47.8112
47.8188
47.8262
47.8332
47.8401
47.8466
47.8529
47.8589
47.8646
47.8701
47.8753
47.8802
47.8849
47.8893
47.8934
47.8973
47.9008
47.904
47.9068
47.9093
47.9114
47.913
47.9141
47.9147
47.9146
47.9138
47.9122
47.9098
47.9064
47.902
47.8963
47.8892
47.8806
47.8706
47.8586
47.8448
47.8289
47.8138
47.8008
47.7872
47.773
47.7583
47.7429
47.7271
47.7109
47.6942
47.6774
47.6602
47.6429
47.6256
47.6081
47.5906
47.5732
47.556
47.5388
47.5218
47.5051
47.4887
47.4723
47.4567
47.4407
47.4269
47.6917
47.4919
47.2865
47.1479
47.0257
46.9337
46.8711
46.8279
46.7991
46.781
46.7708
46.7667
46.7669
46.7704
46.7762
46.7837
46.7924
46.8018
46.8116
46.8217
46.8318
46.8418
46.8516
46.8611
46.8703
46.8792
46.8877
46.8958
46.9035
46.9108
46.9177
46.9243
46.9305
46.9364
46.9419
46.9471
46.952
46.9565
46.9607
46.9646
46.9682
46.9714
46.9743
46.9768
46.9789
46.9806
46.9817
46.9823
46.9823
46.9816
46.98
46.9776
46.9742
46.9697
46.964
46.957
46.9485
46.9383
46.9264
46.9126
46.8965
46.8784
46.8577
46.8386
46.8223
46.8054
46.7879
46.7699
46.7514
46.7324
46.7132
46.6936
46.6739
46.6541
46.6343
46.6144
46.5946
46.5749
46.5555
46.5362
46.5171
46.4985
46.4801
46.4622
46.4445
46.4277
46.4101
46.3959
47.2347
46.6446
46.2444
46.0333
45.8931
45.8038
45.7513
45.7202
45.7036
45.6972
45.6979
45.7035
45.7122
45.7231
45.7354
45.7483
45.7615
45.7746
45.7874
45.7999
45.8117
45.823
45.8337
45.8436
45.853
45.8617
45.8698
45.8774
45.8843
45.8908
45.8967
45.9022
45.9073
45.912
45.9162
45.9201
45.9237
45.9269
45.9298
45.9324
45.9347
45.9366
45.9382
45.9394
45.9401
45.9403
45.94
45.9391
45.9375
45.9351
45.9318
45.9276
45.9222
45.9156
45.9076
45.898
45.8869
45.8739
45.8588
45.8417
45.8223
45.8005
45.776
45.7535
45.7345
45.715
45.6948
45.6742
45.6532
45.6317
45.6101
45.5883
45.5664
45.5445
45.5226
45.5008
45.4791
45.4577
45.4365
45.4157
45.3952
45.3751
45.3554
45.3363
45.3172
45.2994
45.2805
45.266
45.997
45.1984
44.836
44.6975
44.6216
44.5815
44.5681
44.5684
44.5767
44.5903
44.6069
44.6251
44.6437
44.6622
44.68
44.697
44.7128
44.7275
44.741
44.7533
44.7645
44.7746
44.7836
44.7917
44.7989
44.8053
44.811
44.816
44.8204
44.8243
44.8277
44.8306
44.8332
44.8354
44.8372
44.8388
44.8401
44.8411
44.8419
44.8423
44.8425
44.8424
44.842
44.8412
44.84
44.8384
44.8361
44.8333
44.8299
44.8256
44.8204
44.8142
44.8069
44.7982
44.788
44.7762
44.7625
44.747
44.7293
44.7093
44.6868
44.662
44.6342
44.609
44.5877
44.566
44.5437
44.521
44.4978
44.4745
44.4508
44.4271
44.4034
44.3797
44.3561
44.3327
44.3095
44.2866
44.2641
44.2419
44.2201
44.1989
44.1781
44.1578
44.1378
44.1191
44.0991
44.084
44.2523
43.5869
43.4043
43.3831
43.3861
43.4018
43.4287
43.4592
43.4901
43.5204
43.5491
43.5755
43.5994
43.6208
43.6397
43.6561
43.6703
43.6825
43.6928
43.7014
43.7086
43.7144
43.719
43.7227
43.7255
43.7275
43.7289
43.7297
43.7301
43.7301
43.7296
43.729
43.7281
43.727
43.7256
43.7242
43.7226
43.7208
43.7189
43.7169
43.7147
43.7122
43.7096
43.7066
43.7035
43.6999
43.6959
43.6913
43.686
43.68
43.673
43.665
43.6557
43.6451
43.633
43.6191
43.6034
43.5856
43.5656
43.5432
43.5182
43.4906
43.4602
43.4325
43.4094
43.3859
43.3617
43.3372
43.3124
43.2872
43.2621
43.2367
43.2115
43.1862
43.1612
43.1364
43.1119
43.0877
43.064
43.0406
43.0178
42.9954
42.9736
42.9525
42.9315
42.9119
42.8911
42.8754
42.4557
42.0883
42.0918
42.1756
42.2443
42.3048
42.3628
42.4147
42.4598
42.4987
42.5317
42.5592
42.5817
42.5998
42.6141
42.625
42.633
42.6385
42.642
42.6438
42.6441
42.6433
42.6415
42.6389
42.6358
42.6322
42.6282
42.6239
42.6195
42.615
42.6104
42.6057
42.601
42.5964
42.5918
42.5872
42.5827
42.5782
42.5737
42.5693
42.5649
42.5604
42.5557
42.551
42.546
42.5407
42.535
42.5288
42.5219
42.5143
42.5059
42.4963
42.4855
42.4733
42.4596
42.444
42.4265
42.4069
42.3849
42.3606
42.3334
42.3037
42.2709
42.2413
42.2167
42.1915
42.1659
42.1399
42.1135
42.087
42.0604
42.0337
42.007
41.9806
41.9542
41.9282
41.9026
41.8772
41.8525
41.8281
41.8042
41.7809
41.7581
41.7362
41.7143
41.6941
41.6723
41.6561
40.8247
40.7757
40.9239
41.0846
41.1998
41.2902
41.3664
41.4283
41.4772
41.5153
41.5441
41.5652
41.5796
41.5886
41.5932
41.5942
41.5924
41.5883
41.5825
41.5754
41.5673
41.5586
41.5494
41.54
41.5304
41.5209
41.5114
41.5021
41.4929
41.484
41.4754
41.467
41.4589
41.4511
41.4436
41.4364
41.4294
41.4226
41.416