/*--------------------------------*- C++ -*----------------------------------*\
| =========                 |                                                 |
| \\      /  F ield         | OpenFOAM: The Open Source CFD Toolbox           |
|  \\    /   O peration     | Version:  2306                                  |
|   \\  /    A nd           | Website:  www.openfoam.com                      |
|    \\/     M anipulation  |                                                 |
\*---------------------------------------------------------------------------*/
FoamFile
{
    version     2.0;
    format      ascii;
    arch        "LSB;label=32;scalar=64";
    class       volScalarField;
    location    "2000";
    object      nut;
}
// * * * * * * * * * * * * * * * * * * * * * * * * * * * * * * * * * * * * * //

dimensions      [0 2 -1 0 0 0 0];

internalField   nonuniform List<scalar> 
20540
(
0.0109804
0.0366923
0.0109786
0.0366902
0.0109715
0.03668
0.0109585
0.0366608
0.0109385
0.0366307
0.01091
0.036587
0.0108715
0.0365265
0.0108209
0.0364452
0.0107561
0.0363378
0.0106742
0.0361975
0.0105724
0.0360157
0.0104474
0.0357805
0.0102957
0.0354764
0.0101137
0.0350818
0.00989848
0.0345718
0.00964864
0.0339198
0.00936579
0.0330947
0.0090579
0.0320612
0.00874491
0.0307814
0.00846892
0.0292062
0.00831093
0.0272794
0.00841054
0.0249512
0.00895798
0.0222026
0.0100796
0.0191042
0.0116144
0.0157088
0.0130853
0.0126517
0.0140473
0.01113
0.014565
0.0123009
0.0148376
0.0140163
0.0149216
0.0146209
0.0148633
0.0147795
0.0148375
0.0147796
0.0148557
0.0147551
0.0149092
0.014704
0.0149636
0.0144861
0.0148133
0.0138728
0.014488
0.0120731
0.0139266
0.0109017
0.0128592
0.0124605
0.0113032
0.0155754
0.00975793
0.0190238
0.00870925
0.0221718
0.00827313
0.0249455
0.00828276
0.027288
0.00853468
0.0292233
0.00888976
0.030804
0.00927011
0.0320879
0.00963612
0.0331285
0.00996949
0.033968
0.0102634
0.0346389
0.0105169
0.03517
0.0107323
0.0355866
0.0109131
0.0359098
0.0110639
0.03616
0.0111889
0.0363536
0.0112914
0.0365031
0.0113747
0.0366182
0.0114414
0.036706
0.0114938
0.0367723
0.0115341
0.0368215
0.0115641
0.0368569
0.0115854
0.0368812
0.0115993
0.0368967
0.011607
0.0369049
0.0116094
0.0369073
1.76574e-05
1.43108e-05
1.35422e-05
1.31416e-05
1.28774e-05
1.26912e-05
1.25543e-05
1.2449e-05
1.23658e-05
1.22986e-05
1.22436e-05
1.21978e-05
1.21595e-05
1.21266e-05
1.20988e-05
1.20746e-05
1.20539e-05
1.20356e-05
1.20198e-05
1.20058e-05
1.19934e-05
1.19825e-05
1.19727e-05
1.1964e-05
1.19562e-05
1.19493e-05
1.1943e-05
1.19374e-05
1.19324e-05
1.19278e-05
1.19237e-05
1.19199e-05
1.19165e-05
1.19134e-05
1.19106e-05
1.19081e-05
1.19058e-05
1.19037e-05
1.19019e-05
1.19003e-05
1.18989e-05
1.18977e-05
1.18967e-05
1.1896e-05
1.18956e-05
1.18955e-05
1.18957e-05
1.18963e-05
1.18973e-05
1.18988e-05
1.19009e-05
1.19036e-05
1.1907e-05
1.19112e-05
1.19164e-05
1.19225e-05
1.19299e-05
1.19385e-05
1.19486e-05
1.19602e-05
1.19738e-05
1.19892e-05
1.20071e-05
1.20241e-05
1.20388e-05
1.20542e-05
1.20706e-05
1.2088e-05
1.21063e-05
1.21256e-05
1.21459e-05
1.21673e-05
1.21898e-05
1.22134e-05
1.22383e-05
1.22643e-05
1.22922e-05
1.23207e-05
1.23528e-05
1.23836e-05
1.24228e-05
1.24541e-05
1.25086e-05
1.25355e-05
1.26176e-05
1.2655e-05
1.27589e-05
1.28619e-05
4.24659e-05
2.85172e-05
2.6199e-05
2.50353e-05
2.43061e-05
2.37989e-05
2.34286e-05
2.31463e-05
2.29243e-05
2.27456e-05
2.25999e-05
2.24784e-05
2.23773e-05
2.22904e-05
2.22174e-05
2.21537e-05
2.20992e-05
2.20512e-05
2.20097e-05
2.19729e-05
2.19407e-05
2.1912e-05
2.18865e-05
2.18637e-05
2.18434e-05
2.18254e-05
2.18091e-05
2.17945e-05
2.17813e-05
2.17695e-05
2.17587e-05
2.17489e-05
2.17401e-05
2.1732e-05
2.17248e-05
2.17182e-05
2.17123e-05
2.17068e-05
2.17019e-05
2.16975e-05
2.16937e-05
2.16902e-05
2.16874e-05
2.1685e-05
2.16831e-05
2.16818e-05
2.16811e-05
2.16812e-05
2.16819e-05
2.16835e-05
2.1686e-05
2.16895e-05
2.16942e-05
2.17002e-05
2.17077e-05
2.17167e-05
2.17277e-05
2.17405e-05
2.17557e-05
2.1773e-05
2.17934e-05
2.18164e-05
2.18431e-05
2.18679e-05
2.18895e-05
2.19123e-05
2.19361e-05
2.1961e-05
2.19869e-05
2.2014e-05
2.20419e-05
2.20713e-05
2.21009e-05
2.21325e-05
2.21636e-05
2.21975e-05
2.22294e-05
2.22658e-05
2.22976e-05
2.23371e-05
2.23676e-05
2.24087e-05
2.24435e-05
2.24674e-05
2.25301e-05
2.24934e-05
2.26979e-05
2.20435e-05
0.000105508
6.65564e-05
6.13237e-05
5.88096e-05
5.73064e-05
5.62784e-05
5.55333e-05
5.49685e-05
5.45257e-05
5.41696e-05
5.38795e-05
5.36376e-05
5.34365e-05
5.32634e-05
5.31184e-05
5.29916e-05
5.28835e-05
5.27881e-05
5.27056e-05
5.26327e-05
5.25686e-05
5.25117e-05
5.24611e-05
5.24159e-05
5.23757e-05
5.23401e-05
5.23078e-05
5.2279e-05
5.22529e-05
5.22295e-05
5.22082e-05
5.21888e-05
5.21715e-05
5.21556e-05
5.21415e-05
5.21283e-05
5.21166e-05
5.21057e-05
5.2096e-05
5.20871e-05
5.20793e-05
5.20722e-05
5.2066e-05
5.20606e-05
5.20562e-05
5.20525e-05
5.20498e-05
5.20483e-05
5.20475e-05
5.20479e-05
5.20495e-05
5.20525e-05
5.20571e-05
5.20631e-05
5.20713e-05
5.20811e-05
5.20935e-05
5.21078e-05
5.21253e-05
5.21449e-05
5.21683e-05
5.21943e-05
5.22247e-05
5.22524e-05
5.22764e-05
5.2302e-05
5.23283e-05
5.23554e-05
5.23829e-05
5.24114e-05
5.24397e-05
5.24703e-05
5.24981e-05
5.25304e-05
5.25563e-05
5.25907e-05
5.26114e-05
5.26501e-05
5.26593e-05
5.27069e-05
5.26943e-05
5.27531e-05
5.27255e-05
5.2736e-05
5.27826e-05
5.25754e-05
5.31875e-05
5.05391e-05
0.000203528
0.000118223
0.00010817
0.000103696
0.000101192
9.9541e-05
9.83666e-05
9.74888e-05
9.68072e-05
9.62616e-05
9.58193e-05
9.54513e-05
9.51469e-05
9.48841e-05
9.46657e-05
9.44739e-05
9.43116e-05
9.41677e-05
9.4044e-05
9.39346e-05
9.38385e-05
9.37533e-05
9.36776e-05
9.36101e-05
9.355e-05
9.34972e-05
9.34492e-05
9.34064e-05
9.33676e-05
9.3333e-05
9.33015e-05
9.32728e-05
9.32472e-05
9.32237e-05
9.32029e-05
9.31834e-05
9.31662e-05
9.315e-05
9.31357e-05
9.31223e-05
9.31105e-05
9.30995e-05
9.30898e-05
9.30809e-05
9.30732e-05
9.30662e-05
9.30601e-05
9.30557e-05
9.30514e-05
9.3048e-05
9.30457e-05
9.30442e-05
9.30441e-05
9.30447e-05
9.30471e-05
9.30499e-05
9.30548e-05
9.306e-05
9.30676e-05
9.30754e-05
9.30857e-05
9.30963e-05
9.31093e-05
9.31202e-05
9.31294e-05
9.31397e-05
9.31497e-05
9.31591e-05
9.31671e-05
9.31754e-05
9.31807e-05
9.31894e-05
9.31892e-05
9.3198e-05
9.31893e-05
9.32004e-05
9.31751e-05
9.3195e-05
9.31388e-05
9.31805e-05
9.30696e-05
9.31425e-05
9.29946e-05
9.29706e-05
9.29699e-05
9.25345e-05
9.36768e-05
9.00201e-05
0.000344706
0.000184734
0.000166489
0.000158933
0.00015498
0.000152494
0.000150775
0.000149516
0.000148554
0.00014779
0.000147176
0.000146667
0.00014625
0.000145888
0.000145591
0.00014533
0.00014511
0.000144914
0.000144747
0.0001446
0.00014447
0.000144356
0.000144254
0.000144164
0.000144083
0.000144013
0.000143949
0.000143893
0.000143841
0.000143796
0.000143754
0.000143716
0.000143682
0.000143651
0.000143624
0.000143599
0.000143576
0.000143555
0.000143536
0.000143518
0.000143503
0.000143488
0.000143474
0.000143462
0.00014345
0.000143439
0.000143429
0.000143421
0.000143411
0.000143402
0.000143393
0.000143384
0.000143375
0.000143366
0.000143357
0.000143346
0.000143336
0.000143324
0.000143311
0.000143295
0.000143279
0.000143259
0.000143237
0.000143215
0.000143196
0.000143176
0.000143155
0.000143131
0.000143103
0.000143074
0.000143038
0.000143008
0.00014296
0.000142929
0.000142864
0.000142836
0.00014274
0.00014273
0.000142579
0.000142611
0.000142368
0.000142459
0.000142162
0.000142099
0.000142018
0.00014139
0.000143019
0.000138998
0.000539819
0.000270212
0.000238589
0.000226135
0.000219985
0.000216317
0.000213871
0.00021213
0.000210826
0.000209807
0.000208997
0.000208331
0.00020779
0.000207322
0.000206943
0.000206607
0.000206329
0.00020608
0.00020587
0.000205684
0.000205522
0.000205379
0.000205252
0.000205139
0.00020504
0.000204954
0.000204875
0.000204806
0.000204743
0.000204688
0.000204637
0.000204591
0.000204551
0.000204513
0.000204481
0.00020445
0.000204424
0.000204398
0.000204376
0.000204354
0.000204336
0.000204317
0.000204301
0.000204285
0.00020427
0.000204255
0.000204239
0.000204226
0.000204211
0.000204194
0.000204177
0.000204157
0.000204137
0.000204114
0.000204089
0.000204059
0.000204028
0.000203989
0.000203948
0.000203898
0.000203843
0.000203779
0.000203707
0.000203639
0.00020358
0.000203518
0.000203452
0.000203382
0.000203304
0.000203225
0.000203134
0.000203052
0.000202941
0.000202858
0.000202721
0.000202645
0.000202462
0.000202414
0.000202156
0.000202171
0.00020179
0.000201896
0.000201447
0.000201356
0.0002012
0.000200496
0.00020227
0.000198432
0.0008014
0.000380481
0.000328064
0.000307877
0.000298324
0.000292908
0.000289444
0.000287059
0.000285324
0.000283996
0.00028296
0.000282117
0.000281444
0.000280862
0.0002804
0.00027999
0.000279656
0.000279357
0.000279107
0.000278886
0.000278696
0.000278527
0.000278379
0.000278248
0.000278133
0.000278035
0.000277945
0.000277867
0.000277796
0.000277734
0.000277677
0.000277626
0.000277582
0.000277541
0.000277506
0.000277473
0.000277445
0.000277416
0.000277393
0.000277369
0.000277349
0.000277329
0.000277311
0.000277293
0.000277275
0.000277257
0.000277237
0.000277218
0.000277198
0.000277174
0.000277146
0.000277115
0.000277081
0.000277041
0.000276997
0.000276944
0.000276886
0.000276815
0.000276738
0.000276645
0.000276544
0.000276425
0.000276291
0.000276167
0.000276059
0.000275945
0.000275826
0.000275701
0.000275564
0.000275425
0.00027527
0.000275128
0.000274945
0.000274803
0.000274587
0.000274456
0.000274186
0.000274092
0.000273735
0.000273718
0.000273231
0.000273331
0.000272752
0.000272663
0.000272453
0.000271825
0.000273457
0.000268601
0.0011437
0.000523021
0.000439854
0.000407678
0.000392811
0.000384733
0.000379776
0.000376489
0.000374178
0.000372458
0.00037115
0.000370105
0.000369288
0.000368587
0.000368046
0.000367564
0.000367182
0.000366839
0.000366558
0.000366311
0.000366101
0.000365916
0.000365754
0.000365613
0.00036549
0.000365387
0.000365294
0.000365213
0.000365141
0.000365079
0.000365023
0.000364971
0.000364929
0.000364889
0.000364858
0.000364826
0.0003648
0.000364774
0.000364753
0.000364731
0.000364713
0.000364694
0.000364677
0.000364659
0.000364642
0.000364623
0.000364601
0.000364578
0.000364554
0.000364524
0.000364487
0.000364444
0.000364396
0.000364338
0.000364274
0.000364195
0.000364108
0.000364002
0.000363886
0.000363746
0.000363592
0.000363412
0.000363211
0.000363025
0.000362865
0.000362695
0.000362518
0.000362333
0.000362133
0.000361932
0.00036171
0.000361506
0.000361252
0.000361051
0.000360762
0.000360574
0.000360232
0.000360082
0.000359668
0.000359589
0.000359078
0.000359117
0.000358482
0.000358437
0.000358215
0.000357782
0.000359199
0.000348787
0.00158264
0.000706998
0.000580532
0.000530233
0.000507115
0.00049491
0.000487688
0.000483071
0.000479942
0.000477692
0.000476036
0.000474746
0.00047377
0.000472941
0.000472325
0.00047178
0.000471363
0.000470989
0.000470693
0.000470436
0.00047022
0.000470034
0.000469873
0.000469736
0.000469618
0.000469525
0.00046944
0.00046937
0.000469307
0.000469256
0.00046921
0.000469168
0.000469137
0.000469107
0.000469087
0.000469064
0.000469049
0.000469031
0.00046902
0.000469006
0.000468996
0.000468984
0.000468974
0.000468961
0.000468948
0.000468933
0.000468913
0.000468891
0.000468865
0.000468832
0.00046879
0.000468737
0.000468678
0.000468604
0.000468523
0.000468419
0.000468307
0.000468166
0.000468012
0.000467826
0.000467621
0.000467382
0.000467115
0.000466868
0.000466659
0.000466436
0.000466204
0.000465963
0.000465705
0.000465445
0.000465167
0.000464907
0.000464596
0.000464342
0.000464004
0.000463761
0.00046339
0.000463174
0.000462776
0.000462595
0.000462155
0.000462104
0.000461527
0.00046156
0.000461364
0.000461127
0.000462746
0.000445549
0.00213553
0.000943191
0.00075861
0.000681753
0.000646011
0.000627398
0.000616666
0.000610013
0.000605662
0.000602644
0.000600504
0.000598891
0.00059772
0.000596746
0.000596061
0.000595461
0.000595027
0.000594642
0.000594353
0.00059411
0.000593913
0.000593749
0.000593612
0.000593501
0.00059341
0.000593347
0.000593291
0.000593249
0.000593215
0.000593192
0.000593172
0.000593155
0.00059315
0.000593143
0.000593148
0.000593146
0.000593155
0.000593156
0.000593165
0.000593168
0.000593177
0.000593181
0.000593186
0.000593187
0.000593187
0.000593183
0.000593174
0.000593159
0.000593139
0.000593108
0.000593068
0.000593013
0.000592949
0.000592866
0.000592774
0.000592653
0.000592522
0.000592355
0.000592171
0.000591947
0.000591702
0.000591415
0.000591095
0.0005908
0.000590553
0.000590289
0.000590017
0.000589732
0.000589434
0.000589131
0.000588821
0.000588521
0.000588183
0.000587895
0.000587547
0.000587262
0.000586921
0.000586636
0.000586309
0.000586058
0.000585743
0.000585626
0.000585249
0.000585372
0.000585276
0.000585493
0.000587714
0.000564954
0.00282052
0.00124378
0.000984761
0.000870366
0.000815748
0.000787268
0.000771068
0.000761235
0.000754979
0.000750783
0.000747916
0.000745834
0.000744392
0.00074323
0.00074247
0.000741819
0.00074139
0.000741017
0.000740767
0.000740569
0.000740425
0.000740317
0.000740236
0.000740185
0.000740152
0.00074015
0.000740152
0.000740168
0.000740188
0.00074022
0.000740251
0.000740282
0.000740324
0.000740361
0.000740412
0.00074045
0.0007405
0.000740537
0.000740583
0.00074062
0.000740661
0.000740695
0.00074073
0.000740758
0.000740783
0.000740802
0.000740815
0.000740821
0.000740818
0.000740802
0.000740773
0.000740727
0.000740673
0.000740592
0.000740503
0.000740378
0.000740243
0.000740066
0.000739872
0.000739628
0.000739367
0.000739055
0.00073871
0.000738392
0.00073813
0.00073785
0.000737565
0.00073726
0.000736951
0.000736633
0.000736331
0.000736019
0.0007357
0.000735412
0.000735107
0.000734813
0.00073455
0.000734249
0.000734007
0.000733868
0.000733616
0.000733668
0.000733398
0.000733704
0.000733763
0.000734412
0.000737781
0.000710699
0.00365579
0.00162199
0.00127183
0.00110648
0.00102447
0.000981074
0.000956409
0.000941575
0.000932297
0.000926224
0.000922199
0.000919378
0.000917511
0.000916064
0.000915194
0.000914477
0.000914068
0.00091373
0.000913552
0.000913441
0.000913391
0.000913383
0.000913403
0.000913455
0.000913524
0.000913627
0.000913729
0.000913842
0.000913955
0.000914079
0.000914196
0.000914308
0.00091443
0.000914543
0.000914668
0.000914774
0.000914892
0.00091499
0.000915098
0.000915189
0.000915285
0.00091537
0.000915454
0.000915528
0.000915598
0.000915659
0.000915713
0.000915756
0.000915788
0.000915804
0.000915806
0.00091579
0.000915761
0.000915702
0.00091564
0.000915532
0.000915417
0.000915257
0.000915082
0.00091485
0.000914609
0.000914311
0.000913987
0.00091369
0.000913446
0.000913188
0.000912929
0.000912642
0.000912367
0.000912079
0.000911842
0.000911557
0.000911324
0.000911089
0.000910873
0.000910711
0.000910483
0.000910386
0.000910183
0.00091023
0.00091012
0.000910361
0.000910363
0.000910885
0.000911219
0.000912253
0.00091687
0.000886401
0.00465834
0.00209166
0.00163449
0.00140302
0.00128266
0.0012173
0.00117974
0.00115711
0.00114302
0.00113392
0.00112799
0.00112394
0.00112135
0.00111942
0.00111834
0.00111749
0.00111709
0.0011168
0.00111672
0.00111673
0.00111683
0.00111697
0.00111715
0.00111736
0.00111759
0.00111785
0.00111811
0.00111837
0.00111863
0.0011189
0.00111915
0.00111939
0.00111964
0.00111986
0.00112011
0.00112032
0.00112054
0.00112074
0.00112094
0.00112112
0.0011213
0.00112147
0.00112163
0.00112178
0.00112192
0.00112205
0.00112217
0.00112227
0.00112237
0.00112244
0.0011225
0.00112254
0.00112256
0.00112256
0.00112255
0.0011225
0.00112244
0.00112233
0.00112222
0.00112205
0.00112188
0.00112165
0.00112141
0.00112119
0.00112101
0.00112083
0.00112065
0.00112046
0.00112027
0.0011201
0.00111993
0.00111982
0.00111965
0.0011196
0.00111949
0.0011195
0.00111948
0.00111956
0.00111961
0.00111984
0.00112003
0.00112048
0.00112086
0.00112166
0.00112239
0.00112382
0.00112958
0.00109626
0.00584278
0.00266669
0.00208839
0.00177518
0.00160341
0.00150679
0.00145013
0.00141555
0.00139389
0.0013799
0.00137084
0.00136471
0.00136084
0.00135804
0.00135652
0.0013554
0.00135493
0.00135464
0.00135467
0.00135484
0.00135511
0.00135546
0.00135585
0.00135629
0.00135674
0.00135723
0.00135771
0.0013582
0.00135867
0.00135914
0.00135959
0.00136002
0.00136045
0.00136085
0.00136127
0.00136164
0.00136202
0.00136235
0.0013627
0.00136301
0.00136332
0.00136361
0.00136389
0.00136415
0.0013644
0.00136463
0.00136485
0.00136506
0.00136525
0.00136542
0.00136557
0.0013657
0.00136582
0.00136591
0.001366
0.00136604
0.0013661
0.00136609
0.0013661
0.00136604
0.00136602
0.00136592
0.00136586
0.00136577
0.00136574
0.00136569
0.00136566
0.00136562
0.00136561
0.00136561
0.00136563
0.0013657
0.00136575
0.00136591
0.00136605
0.00136627
0.00136656
0.00136686
0.0013673
0.00136776
0.00136838
0.0013691
0.00136997
0.00137109
0.0013723
0.00137422
0.00138042
0.0013453
0.00721661
0.00336043
0.00264889
0.00223971
0.0020023
0.00186309
0.00177904
0.00172669
0.0016934
0.00167167
0.00165748
0.00164788
0.00164176
0.0016374
0.00163499
0.00163326
0.00163253
0.00163212
0.00163219
0.00163249
0.00163295
0.00163353
0.00163418
0.0016349
0.00163565
0.00163645
0.00163723
0.00163801
0.00163877
0.00163954
0.00164026
0.00164095
0.00164164
0.00164229
0.00164295
0.00164354
0.00164415
0.00164469
0.00164524
0.00164574
0.00164624
0.0016467
0.00164715
0.00164757
0.00164798
0.00164837
0.00164874
0.0016491
0.00164943
0.00164973
0.00165002
0.0016503
0.00165056
0.0016508
0.00165104
0.00165123
0.00165146
0.00165161
0.00165183
0.00165195
0.00165215
0.00165227
0.00165248
0.00165262
0.00165281
0.00165295
0.00165317
0.00165334
0.00165361
0.00165383
0.00165415
0.00165447
0.00165486
0.00165527
0.00165579
0.0016563
0.001657
0.00165757
0.00165853
0.00165927
0.00166044
0.00166147
0.00166291
0.00166443
0.00166614
0.00166873
0.00167458
0.00163851
0.00877255
0.00418499
0.00332929
0.00281322
0.00249664
0.00230223
0.00218065
0.00210282
0.0020522
0.00201858
0.00199624
0.00198095
0.00197099
0.00196387
0.00195975
0.0019568
0.00195538
0.00195454
0.00195445
0.00195476
0.00195535
0.00195613
0.00195704
0.00195809
0.00195917
0.00196034
0.0019615
0.00196266
0.00196379
0.00196493
0.00196601
0.00196705
0.00196809
0.00196907
0.00197006
0.00197096
0.00197187
0.00197269
0.00197353
0.00197429
0.00197504
0.00197575
0.00197644
0.00197709
0.00197772
0.00197832
0.00197891
0.00197948
0.00198001
0.00198051
0.001981
0.00198148
0.00198194
0.0019824
0.00198285
0.00198327
0.00198374
0.00198412
0.00198462
0.001985
0.00198553
0.00198595
0.00198656
0.00198699
0.0019875
0.0019879
0.00198846
0.00198891
0.00198955
0.00199007
0.0019908
0.00199142
0.00199227
0.00199299
0.00199399
0.00199484
0.00199606
0.00199701
0.00199852
0.00199959
0.00200142
0.00200279
0.00200489
0.00200676
0.00200908
0.00201241
0.00201747
0.00198114
0.0104826
0.0051507
0.00413892
0.00350963
0.00310342
0.00284171
0.00267143
0.0025588
0.00248347
0.00243223
0.00239741
0.0023731
0.00235683
0.00234501
0.0023378
0.00233253
0.00232963
0.00232777
0.00232708
0.0023271
0.00232758
0.00232843
0.0023295
0.00233083
0.00233225
0.0023338
0.00233538
0.00233697
0.00233855
0.00234013
0.00234165
0.00234314
0.00234461
0.00234601
0.00234742
0.00234872
0.00235002
0.00235122
0.00235243
0.00235353
0.00235464
0.00235566
0.00235669
0.00235762
0.00235857
0.00235946
0.00236034
0.00236118
0.00236199
0.00236274
0.00236352
0.00236427
0.00236501
0.00236574
0.00236649
0.0023672
0.00236799
0.00236869
0.00236955
0.00237029
0.00237124
0.00237205
0.00237317
0.00237399
0.0023749
0.00237562
0.00237663
0.00237741
0.00237852
0.00237939
0.00238064
0.00238161
0.00238301
0.0023841
0.00238568
0.00238692
0.00238873
0.00239012
0.00239222
0.00239372
0.00239622
0.0023979
0.00240077
0.00240291
0.00240593
0.00240977
0.002414
0.00237803
0.0122881
0.00626595
0.00508105
0.00433694
0.00383613
0.00349805
0.00326866
0.00311128
0.00300262
0.00292657
0.00287348
0.00283553
0.00280932
0.00278989
0.00277744
0.00276805
0.00276233
0.00275836
0.00275626
0.00275535
0.00275524
0.00275577
0.00275674
0.00275816
0.00275979
0.00276165
0.00276361
0.00276562
0.00276766
0.00276972
0.00277174
0.00277373
0.00277571
0.0027776
0.00277951
0.00278129
0.00278308
0.00278473
0.00278641
0.00278793
0.0027895
0.00279091
0.00279237
0.00279368
0.00279504
0.00279628
0.00279756
0.00279874
0.00279992
0.00280105
0.00280213
0.00280322
0.00280433
0.00280541
0.00280653
0.00280762
0.00280881
0.0028099
0.00281123
0.00281239
0.00281387
0.00281515
0.00281687
0.00281816
0.00281955
0.00282066
0.00282217
0.00282336
0.00282501
0.00282629
0.00282811
0.0028295
0.0028315
0.00283302
0.00283522
0.0028369
0.00283933
0.00284118
0.00284389
0.00284592
0.00284897
0.0028511
0.00285462
0.00285697
0.00286078
0.00286463
0.00286824
0.00283322
0.0140873
0.00753905
0.00615069
0.00529372
0.00470046
0.00428276
0.00398726
0.00377657
0.00362592
0.0035171
0.00343885
0.00338139
0.00334038
0.00330927
0.00328848
0.00327224
0.00326158
0.00325376
0.00324885
0.00324589
0.00324427
0.00324375
0.00324403
0.00324511
0.0032466
0.00324854
0.00325066
0.00325293
0.00325534
0.0032578
0.0032603
0.00326277
0.00326527
0.00326768
0.00327013
0.00327244
0.00327477
0.00327695
0.00327917
0.0032812
0.0032833
0.00328518
0.00328717
0.00328891
0.00329079
0.00329246
0.00329421
0.00329581
0.00329747
0.00329903
0.0033006
0.00330212
0.00330365
0.00330502
0.00330663
0.00330815
0.00330981
0.00331139
0.00331325
0.00331491
0.00331698
0.00331881
0.00332121
0.00332304
0.00332495
0.00332651
0.00332857
0.00333021
0.00333243
0.00333418
0.00333658
0.00333844
0.00334104
0.00334304
0.00334585
0.003348
0.00335104
0.00335335
0.00335665
0.00335914
0.00336274
0.00336537
0.00336933
0.00337206
0.00337643
0.00337972
0.00338347
0.00334951
0.0157601
0.00894339
0.00733107
0.00636587
0.0056895
0.00519696
0.00483469
0.00456625
0.00436724
0.00421855
0.00410818
0.00402471
0.00396318
0.00391538
0.00388201
0.00385524
0.00383666
0.00382237
0.00381253
0.00380574
0.00380107
0.00379828
0.00379683
0.00379673
0.00379738
0.00379881
0.0038006
0.00380275
0.00380523
0.00380785
0.00381062
0.00381342
0.00381633
0.00381917
0.00382212
0.00382492
0.00382778
0.00383048
0.00383327
0.00383582
0.0038385
0.00384089
0.00384345
0.00384567
0.00384816
0.00385029
0.00385261
0.00385466
0.00385688
0.00385894
0.00386106
0.00386305
0.00386515
0.00386701
0.00386906
0.00387085
0.00387313
0.00387523
0.00387769
0.0038799
0.0038826
0.00388503
0.00388811
0.00389055
0.00389299
0.00389504
0.00389763
0.00389978
0.00390254
0.0039048
0.00390774
0.00391012
0.00391326
0.00391576
0.00391911
0.00392173
0.00392531
0.00392805
0.00393189
0.00393473
0.00393885
0.00394176
0.00394621
0.00394912
0.00395401
0.00395668
0.00396112
0.00392801
0.0171699
0.010413
0.00858971
0.00752415
0.00677976
0.00622549
0.00580428
0.00548076
0.00523221
0.00503997
0.0048925
0.00477745
0.00469009
0.00461995
0.00456931
0.00452764
0.00449743
0.00447322
0.00445555
0.00444234
0.00443244
0.00442552
0.00442063
0.00441791
0.00441656
0.00441646
0.00441704
0.00441832
0.00442024
0.00442246
0.00442504
0.00442779
0.00443078
0.00443378
0.00443699
0.00444009
0.00444333
0.00444643
0.00444969
0.00445268
0.00445588
0.00445873
0.00446183
0.00446454
0.00446755
0.00447019
0.00447309
0.00447561
0.0044785
0.00448103
0.00448371
0.0044862
0.0044889
0.00449143
0.00449401
0.00449612
0.0044988
0.00450124
0.0045044
0.00450718
0.00451048
0.00451352
0.00451723
0.0045203
0.00452323
0.0045258
0.00452886
0.00453153
0.00453475
0.00453752
0.00454093
0.00454381
0.0045474
0.00455037
0.00455416
0.00455721
0.00456121
0.00456431
0.00456855
0.00457166
0.00457617
0.00457923
0.00458404
0.00458696
0.00459221
0.00459467
0.0045992
0.00456777
0.0181449
0.0118626
0.00987464
0.00872215
0.00792866
0.00733254
0.00686887
0.00650176
0.00621035
0.00597723
0.0057925
0.00564369
0.00552713
0.00543128
0.00535836
0.00529758
0.00525232
0.00521422
0.00518545
0.00516259
0.00514482
0.00513117
0.00512051
0.00511303
0.00510801
0.00510484
0.00510277
0.00510199
0.0051023
0.00510314
0.00510468
0.00510666
0.00510907
0.00511167
0.00511463
0.0051176
0.00512083
0.005124
0.00512743
0.00513061
0.00513409
0.00513722
0.00514069
0.00514374
0.00514715
0.00515019
0.00515357
0.00515652
0.00515987
0.00516281
0.00516612
0.0051692
0.00517241
0.00517529
0.00517862
0.00518123
0.00518415
0.00518653
0.00519029
0.0051936
0.00519741
0.00520099
0.0052052
0.00520886
0.0052122
0.00521525
0.00521869
0.00522181
0.00522539
0.00522861
0.00523236
0.00523568
0.00523959
0.00524296
0.00524703
0.00525041
0.00525466
0.00525802
0.00526248
0.00526576
0.00527045
0.00527356
0.00527852
0.00528138
0.00528676
0.00528903
0.00529344
0.00526429
0.018445
0.0132303
0.0111099
0.00989401
0.00907393
0.00845988
0.00797677
0.00758576
0.00726695
0.00700401
0.00678922
0.00661068
0.00646642
0.00634481
0.00624835
0.00616656
0.00610217
0.00604808
0.0060056
0.00596987
0.0059413
0.0059188
0.00589907
0.00588507
0.00587383
0.00586551
0.00585885
0.00585436
0.00585155
0.00584956
0.00584885
0.00584889
0.00584967
0.00585092
0.0058528
0.00585489
0.0058574
0.00586002
0.00586304
0.00586589
0.00586918
0.00587216
0.0058756
0.00587867
0.00588217
0.00588533
0.00588891
0.00589209
0.00589571
0.00589887
0.00590254
0.00590573
0.00590946
0.00591295
0.00591664
0.0059198
0.00592229
0.00592494
0.00592882
0.00593232
0.00593645
0.00594041
0.00594489
0.00594901
0.00595263
0.00595603
0.0059597
0.00596311
0.00596686
0.00597038
0.00597431
0.00597793
0.005982
0.00598563
0.00598982
0.0059934
0.0059977
0.00600118
0.00600563
0.00600895
0.0060136
0.00601665
0.00602157
0.00602426
0.00602958
0.00603161
0.00603575
0.0060093
0.0177921
0.014422
0.0121829
0.0109504
0.0101339
0.00952848
0.0090521
0.00866217
0.00833843
0.00806477
0.00783533
0.00763902
0.00747569
0.00733448
0.00721837
0.00711781
0.00703554
0.00696468
0.00690717
0.00685768
0.00681705
0.00678349
0.00675385
0.00673095
0.00671152
0.00669528
0.00668196
0.00667196
0.00666427
0.00665768
0.00665334
0.00664993
0.0066477
0.00664634
0.006646
0.00664614
0.00664692
0.00664805
0.00664972
0.00665142
0.00665377
0.00665592
0.00665869
0.00666117
0.00666421
0.006667
0.00667029
0.00667328
0.00667677
0.00667979
0.00668347
0.00668647
0.00669029
0.0066935
0.00669724
0.00670211
0.00670366
0.0067062
0.00670776
0.00671197
0.00671609
0.00672023
0.00672464
0.00672898
0.00673269
0.00673622
0.00673982
0.00674318
0.00674672
0.00675024
0.00675409
0.00675776
0.00676181
0.00676556
0.00676975
0.00677343
0.00677763
0.00678109
0.00678533
0.00678853
0.00679292
0.00679578
0.00680045
0.00680288
0.00680795
0.00680971
0.00681338
0.00678996
0.0165638
0.0148114
0.0129064
0.011772
0.0110076
0.0104419
0.00999984
0.00963772
0.00933472
0.0090743
0.00885183
0.00865676
0.00849032
0.00834289
0.00821783
0.00810707
0.00801328
0.00793087
0.00786079
0.00780063
0.00774757
0.00770518
0.00766523
0.007634
0.00760481
0.00758148
0.0075609
0.00754228
0.00752778
0.0075155
0.00750673
0.00749822
0.00749166
0.00748655
0.00748291
0.00747997
0.00747781
0.00747618
0.0074753
0.00747484
0.00747534
0.00747583
0.00747713
0.00747819
0.00748001
0.00748173
0.00748402
0.00748621
0.00748886
0.00749133
0.00749422
0.00749681
0.00749996
0.00750253
0.00750606
0.00750982
0.00751046
0.00751236
0.0075118
0.00751584
0.00751904
0.00752363
0.00752759
0.00753175
0.0075353
0.00753866
0.00754155
0.00754406
0.00754632
0.00754937
0.00755226
0.00755536
0.00755893
0.00756266
0.0075674
0.0075716
0.00757594
0.00757941
0.00758335
0.00758624
0.00759013
0.00759258
0.00759675
0.00759879
0.00760333
0.00760554
0.00760732
0.00758752
0.0146769
0.0142848
0.0131343
0.0122173
0.0115783
0.0110927
0.0107157
0.0104079
0.0101507
0.00992793
0.00973579
0.00956423
0.00941509
0.00928013
0.00916263
0.00905635
0.00896338
0.00888041
0.00880664
0.00874296
0.00868419
0.00863587
0.00858973
0.0085528
0.00851634
0.00848907
0.00846215
0.0084391
0.00841862
0.00839983
0.00838513
0.0083684
0.0083578
0.00834912
0.00834182
0.00833483
0.00832852
0.00832251
0.008318
0.00831481
0.00831308
0.00831133
0.00831052
0.00830926
0.00830908
0.00830878
0.00830924
0.00830986
0.00831083
0.00831227
0.00831323
0.00831535
0.00831654
0.00831764
0.00832044
0.0083185
0.00832148
0.00832029
0.00832084
0.00831903
0.00832484
0.0083275
0.00833
0.00833289
0.00833629
0.00833959
0.00834094
0.00834104
0.00833997
0.00834096
0.00833852
0.00833869
0.00833709
0.0083349
0.00835113
0.00836008
0.00836671
0.00837113
0.00837497
0.00837731
0.0083801
0.00838159
0.00838466
0.00838606
0.00838989
0.00839171
0.00839309
0.00837654
0.0125197
0.0129916
0.0127271
0.0121562
0.0117404
0.0113815
0.0111054
0.0108784
0.0106893
0.010525
0.0103835
0.0102557
0.0101435
0.0100402
0.00994846
0.00986394
0.00978766
0.00971871
0.00965483
0.00959903
0.00954565
0.0095006
0.00945644
0.00942008
0.00938389
0.00935404
0.00932577
0.00930088
0.00927849
0.00925756
0.00923912
0.00922428
0.00921032
0.00919643
0.00918526
0.00917066
0.00916094
0.00914785
0.00914145
0.00913792
0.00913523
0.00913146
0.00912831
0.00912335
0.00912041
0.00911643
0.00911422
0.00911214
0.00911105
0.00911054
0.00910881
0.0091106
0.00910692
0.00910374
0.00910076
0.00909894
0.00910273
0.00909765
0.00910024
0.00910046
0.00910227
0.00910086
0.00909359
0.00908238
0.00908774
0.00910055
0.00910876
0.00910968
0.00910918
0.00910669
0.00910117
0.00909143
0.00907709
0.0090849
0.00910712
0.00911958
0.00912716
0.00913138
0.00913395
0.00913396
0.00913367
0.00913228
0.0091331
0.00913316
0.00913651
0.00913739
0.00913996
0.00912633
0.0116258
0.0116974
0.0117688
0.0116847
0.0115105
0.0112845
0.0111457
0.0110167
0.0109098
0.010817
0.0107382
0.0106665
0.010604
0.0105456
0.0104931
0.010444
0.0103981
0.0103562
0.0103156
0.0102797
0.0102436
0.0102127
0.010181
0.0101542
0.010127
0.0101033
0.0100803
0.0100596
0.0100404
0.0100224
0.0100059
0.00999052
0.00997741
0.00996402
0.00995301
0.00994188
0.00993366
0.0099231
0.00991962
0.00991376
0.00990776
0.00990033
0.00989116
0.0098786
0.00987132
0.00985753
0.00985175
0.00984491
0.00984405
0.00984084
0.00983806
0.00983629
0.00983453
0.00983376
0.00983613
0.00982574
0.00982617
0.00982963
0.00982674
0.00982828
0.0098285
0.00981971
0.00982118
0.00981017
0.00982575
0.0098321
0.00983382
0.00982757
0.00982709
0.00981598
0.00981806
0.00980534
0.00982588
0.00983586
0.00984214
0.00984606
0.00984899
0.00985112
0.00985338
0.00985496
0.00985712
0.00985825
0.00986062
0.00986132
0.00986391
0.00986384
0.00986484
0.00985271