/*--------------------------------*- C++ -*----------------------------------*\
| =========                 |                                                 |
| \\      /  F ield         | OpenFOAM: The Open Source CFD Toolbox           |
|  \\    /   O peration     | Version:  2306                                  |
|   \\  /    A nd           | Website:  www.openfoam.com                      |
|    \\/     M anipulation  |                                                 |
\*---------------------------------------------------------------------------*/
FoamFile
{
    version     2.0;
    format      ascii;
    arch        "LSB;label=32;scalar=64";
    class       volScalarField;
    location    "2000";
    object      p;
}
// * * * * * * * * * * * * * * * * * * * * * * * * * * * * * * * * * * * * * //

dimensions      [0 2 -2 0 0 0 0];

internalField   nonuniform List<scalar> 
20540
(
166.49
72.9445
166.489
68.6744
166.487
65.4391
166.484
63.6002
166.48
62.4402
166.474
61.5643
166.467
60.8565
166.457
60.276
166.444
59.7934
166.429
59.3859
166.409
59.0387
166.385
58.7417
166.357
58.4885
166.322
58.2745
166.281
58.0969
166.234
57.9535
166.179
57.8424
166.117
57.7613
166.05
57.7068
165.977
57.6735
165.901
57.6552
165.82
57.6478
165.722
57.6564
165.578
57.7071
165.349
57.8546
165.015
58.1438
164.613
58.5405
164.205
58.957
163.819
59.3505
163.47
59.7051
163.226
59.9363
163.12
60.0102
163.146
59.9329
163.304
59.7039
163.595
59.3187
163.98
58.8307
164.395
58.3272
164.828
57.8168
165.253
57.3393
165.604
56.9835
165.848
56.782
166.008
56.6853
166.124
56.6344
166.224
56.6014
166.319
56.581
166.411
56.5773
166.496
56.5957
166.573
56.6408
166.642
56.7157
166.703
56.8224
166.755
56.962
166.799
57.1358
166.836
57.3453
166.868
57.5931
166.894
57.8833
166.915
58.2223
166.932
58.6194
166.946
59.0894
166.958
59.6542
166.966
60.3428
166.973
61.1953
166.978
62.3276
166.981
64.1342
166.983
67.33
166.985
71.5594
9.32124
10.9403
4.42024
-3.24014
-9.54132
-15.3216
-20.9248
-26.2235
-31.2292
-35.9886
-40.5224
-44.8429
-48.9655
-52.9042
-56.6693
-60.2712
-63.7199
-67.0229
-70.189
-73.2238
-76.1355
-78.929
-81.6107
-84.1855
-86.6582
-89.0336
-91.316
-93.5098
-95.6181
-97.6456
-99.5951
-101.47
-103.274
-105.01
-106.681
-108.29
-109.841
-111.335
-112.777
-114.169
-115.515
-116.818
-118.083
-119.313
-120.512
-121.686
-122.84
-123.979
-125.109
-126.237
-127.37
-128.516
-129.683
-130.881
-132.119
-133.407
-134.756
-136.179
-137.689
-139.301
-141.026
-142.889
-144.897
-146.726
-148.247
-149.806
-151.416
-153.077
-154.79
-156.555
-158.375
-160.251
-162.182
-164.176
-166.227
-168.352
-170.534
-172.814
-175.141
-177.621
-180.109
-182.886
-185.54
-188.843
-191.66
-196.009
-199.37
-206.244
9.32685
10.9416
4.4207
-3.23988
-9.54114
-15.3214
-20.9247
-26.2234
-31.2292
-35.9886
-40.5223
-44.8429
-48.9655
-52.9041
-56.6693
-60.2712
-63.7199
-67.0229
-70.1889
-73.2238
-76.1355
-78.929
-81.6106
-84.1854
-86.6582
-89.0336
-91.316
-93.5097
-95.6181
-97.6456
-99.5951
-101.47
-103.274
-105.01
-106.681
-108.29
-109.841
-111.335
-112.777
-114.169
-115.515
-116.818
-118.083
-119.313
-120.512
-121.686
-122.84
-123.979
-125.109
-126.237
-127.37
-128.516
-129.683
-130.881
-132.119
-133.407
-134.756
-136.18
-137.689
-139.301
-141.026
-142.889
-144.897
-146.727
-148.247
-149.807
-151.416
-153.077
-154.79
-156.556
-158.375
-160.251
-162.183
-164.176
-166.228
-168.353
-170.535
-172.815
-175.142
-177.622
-180.11
-182.887
-185.542
-188.844
-191.663
-196.011
-199.377
-206.062
9.32958
10.9441
4.42168
-3.23931
-9.54074
-15.3211
-20.9245
-26.2232
-31.229
-35.9884
-40.5222
-44.8428
-48.9654
-52.9041
-56.6693
-60.2712
-63.7198
-67.0228
-70.1889
-73.2237
-76.1354
-78.9289
-81.6106
-84.1854
-86.6582
-89.0336
-91.316
-93.5097
-95.6181
-97.6455
-99.5951
-101.47
-103.274
-105.01
-106.681
-108.29
-109.841
-111.335
-112.777
-114.169
-115.515
-116.818
-118.083
-119.313
-120.512
-121.686
-122.84
-123.979
-125.109
-126.237
-127.37
-128.516
-129.684
-130.881
-132.119
-133.407
-134.756
-136.18
-137.689
-139.301
-141.026
-142.889
-144.898
-146.727
-148.247
-149.807
-151.417
-153.078
-154.791
-156.557
-158.376
-160.252
-162.184
-164.178
-166.229
-168.354
-170.536
-172.816
-175.144
-177.624
-180.113
-182.89
-185.545
-188.848
-191.668
-196.014
-199.389
-205.77
9.33148
10.9475
4.42324
-3.23837
-9.54006
-15.3206
-20.9241
-26.2229
-31.2287
-35.9882
-40.5221
-44.8426
-48.9653
-52.904
-56.6691
-60.2711
-63.7197
-67.0227
-70.1888
-73.2237
-76.1354
-78.9289
-81.6106
-84.1854
-86.6581
-89.0336
-91.3159
-93.5097
-95.6181
-97.6455
-99.5951
-101.47
-103.274
-105.01
-106.681
-108.29
-109.841
-111.335
-112.777
-114.169
-115.515
-116.818
-118.083
-119.313
-120.512
-121.686
-122.84
-123.979
-125.109
-126.237
-127.37
-128.516
-129.684
-130.881
-132.119
-133.407
-134.756
-136.18
-137.689
-139.301
-141.027
-142.89
-144.898
-146.728
-148.248
-149.808
-151.418
-153.079
-154.792
-156.558
-158.377
-160.254
-162.185
-164.18
-166.231
-168.357
-170.539
-172.819
-175.147
-177.628
-180.117
-182.895
-185.55
-188.855
-191.677
-196.018
-199.399
-205.502
9.33082
10.9512
4.42523
-3.23712
-9.53914
-15.3199
-20.9236
-26.2225
-31.2284
-35.9879
-40.5218
-44.8424
-48.9651
-52.9038
-56.669
-60.2709
-63.7196
-67.0226
-70.1887
-73.2236
-76.1353
-78.9288
-81.6105
-84.1853
-86.6581
-89.0335
-91.3159
-93.5096
-95.618
-97.6455
-99.595
-101.47
-103.274
-105.01
-106.681
-108.29
-109.841
-111.335
-112.777
-114.169
-115.515
-116.818
-118.083
-119.313
-120.512
-121.686
-122.84
-123.979
-125.109
-126.237
-127.37
-128.516
-129.684
-130.881
-132.119
-133.407
-134.756
-136.18
-137.69
-139.302
-141.027
-142.89
-144.899
-146.729
-148.249
-149.809
-151.419
-153.081
-154.793
-156.56
-158.379
-160.256
-162.188
-164.182
-166.234
-168.36
-170.543
-172.824
-175.151
-177.633
-180.122
-182.902
-185.557
-188.863
-191.689
-196.02
-199.399
-205.312
9.32513
10.9547
4.42754
-3.2356
-9.53798
-15.319
-20.9229
-26.2219
-31.2279
-35.9875
-40.5214
-44.8421
-48.9648
-52.9035
-56.6688
-60.2707
-63.7194
-67.0225
-70.1886
-73.2235
-76.1352
-78.9287
-81.6104
-84.1852
-86.658
-89.0334
-91.3158
-93.5096
-95.618
-97.6454
-99.595
-101.47
-103.274
-105.01
-106.681
-108.29
-109.841
-111.335
-112.777
-114.169
-115.515
-116.818
-118.083
-119.313
-120.512
-121.686
-122.84
-123.979
-125.109
-126.237
-127.37
-128.516
-129.684
-130.882
-132.119
-133.407
-134.757
-136.181
-137.69
-139.302
-141.028
-142.891
-144.9
-146.73
-148.251
-149.811
-151.421
-153.083
-154.796
-156.562
-158.382
-160.259
-162.191
-164.186
-166.238
-168.364
-170.547
-172.829
-175.157
-177.64
-180.128
-182.91
-185.565
-188.871
-191.701
-196.02
-199.382
-205.188
9.31188
10.9578
4.43007
-3.23381
-9.53656
-15.3179
-20.922
-26.2212
-31.2273
-35.987
-40.521
-44.8417
-48.9645
-52.9032
-56.6685
-60.2705
-63.7192
-67.0223
-70.1884
-73.2233
-76.135
-78.9285
-81.6103
-84.1851
-86.6579
-89.0333
-91.3157
-93.5095
-95.6179
-97.6453
-99.5949
-101.47
-103.274
-105.01
-106.681
-108.29
-109.841
-111.335
-112.777
-114.169
-115.515
-116.818
-118.083
-119.313
-120.512
-121.686
-122.84
-123.979
-125.109
-126.237
-127.37
-128.517
-129.684
-130.882
-132.12
-133.408
-134.757
-136.181
-137.691
-139.303
-141.029
-142.892
-144.902
-146.732
-148.252
-149.813
-151.423
-153.085
-154.798
-156.565
-158.385
-160.262
-162.195
-164.19
-166.243
-168.369
-170.553
-172.835
-175.163
-177.647
-180.136
-182.919
-185.574
-188.88
-191.712
-196.015
-199.345
-205.075
9.28832
10.9601
4.43269
-3.23181
-9.53487
-15.3166
-20.9209
-26.2202
-31.2265
-35.9864
-40.5204
-44.8412
-48.964
-52.9029
-56.6682
-60.2702
-63.7189
-67.022
-70.1882
-73.2231
-76.1348
-78.9284
-81.6101
-84.1849
-86.6577
-89.0332
-91.3156
-93.5094
-95.6178
-97.6452
-99.5948
-101.47
-103.274
-105.01
-106.681
-108.29
-109.84
-111.335
-112.777
-114.169
-115.515
-116.818
-118.083
-119.313
-120.512
-121.686
-122.84
-123.979
-125.109
-126.237
-127.371
-128.517
-129.684
-130.882
-132.12
-133.408
-134.758
-136.182
-137.692
-139.304
-141.03
-142.894
-144.903
-146.733
-148.255
-149.815
-151.426
-153.088
-154.801
-156.568
-158.389
-160.266
-162.199
-164.195
-166.248
-168.375
-170.559
-172.842
-175.17
-177.656
-180.144
-182.928
-185.583
-188.887
-191.722
-196.004
-199.288
-204.922
9.2514
10.9613
4.4352
-3.22968
-9.53295
-15.315
-20.9195
-26.2191
-31.2256
-35.9855
-40.5197
-44.8406
-48.9635
-52.9024
-56.6677
-60.2698
-63.7186
-67.0217
-70.1879
-73.2228
-76.1346
-78.9281
-81.6099
-84.1847
-86.6575
-89.033
-91.3154
-93.5092
-95.6176
-97.6451
-99.5947
-101.47
-103.274
-105.01
-106.681
-108.29
-109.84
-111.335
-112.777
-114.169
-115.515
-116.818
-118.083
-119.313
-120.512
-121.686
-122.84
-123.979
-125.109
-126.237
-127.371
-128.517
-129.685
-130.882
-132.12
-133.409
-134.758
-136.183
-137.693
-139.305
-141.032
-142.895
-144.905
-146.736
-148.257
-149.818
-151.429
-153.091
-154.805
-156.573
-158.393
-160.271
-162.205
-164.201
-166.254
-168.382
-170.566
-172.85
-175.178
-177.664
-180.152
-182.937
-185.592
-188.891
-191.727
-195.978
-199.211
-204.71
9.1978
10.9605
4.43733
-3.22759
-9.53083
-15.3131
-20.9179
-26.2178
-31.2244
-35.9845
-40.5188
-44.8398
-48.9628
-52.9017
-56.6672
-60.2693
-63.7181
-67.0213
-70.1875
-73.2225
-76.1342
-78.9278
-81.6096
-84.1845
-86.6573
-89.0328
-91.3152
-93.509
-95.6174
-97.6449
-99.5945
-101.47
-103.274
-105.01
-106.681
-108.29
-109.84
-111.335
-112.777
-114.169
-115.515
-116.818
-118.083
-119.313
-120.512
-121.686
-122.84
-123.979
-125.109
-126.237
-127.371
-128.517
-129.685
-130.883
-132.121
-133.409
-134.759
-136.184
-137.694
-139.307
-141.033
-142.897
-144.907
-146.738
-148.26
-149.821
-151.432
-153.095
-154.809
-156.577
-158.398
-160.276
-162.21
-164.207
-166.26
-168.389
-170.573
-172.857
-175.186
-177.672
-180.159
-182.944
-185.597
-188.889
-191.724
-195.932
-199.103
-204.434
9.12415
10.9569
4.43871
-3.22578
-9.52866
-15.311
-20.9161
-26.2161
-31.223
-35.9833
-40.5177
-44.8388
-48.9619
-52.901
-56.6665
-60.2686
-63.7175
-67.0207
-70.187
-73.222
-76.1338
-78.9274
-81.6092
-84.1841
-86.657
-89.0325
-91.3149
-93.5087
-95.6172
-97.6447
-99.5943
-101.47
-103.274
-105.01
-106.681
-108.29
-109.84
-111.335
-112.777
-114.169
-115.515
-116.818
-118.083
-119.312
-120.512
-121.686
-122.84
-123.979
-125.109
-126.238
-127.371
-128.518
-129.685
-130.883
-132.121
-133.41
-134.76
-136.185
-137.695
-139.308
-141.035
-142.899
-144.91
-146.741
-148.263
-149.824
-151.436
-153.099
-154.814
-156.582
-158.403
-160.282
-162.216
-164.213
-166.267
-168.396
-170.58
-172.864
-175.192
-177.678
-180.164
-182.946
-185.598
-188.876
-191.707
-195.854
-198.952
-204.084
9.02721
10.9492
4.43885
-3.2246
-9.52662
-15.3088
-20.9141
-26.2143
-31.2213
-35.9818
-40.5164
-44.8377
-48.9609
-52.9
-56.6656
-60.2679
-63.7168
-67.0201
-70.1864
-73.2214
-76.1333
-78.927
-81.6088
-84.1837
-86.6566
-89.0321
-91.3146
-93.5084
-95.6169
-97.6444
-99.594
-101.469
-103.273
-105.009
-106.68
-108.29
-109.84
-111.335
-112.776
-114.169
-115.515
-116.818
-118.082
-119.312
-120.512
-121.686
-122.84
-123.979
-125.109
-126.238
-127.371
-128.518
-129.686
-130.884
-132.122
-133.411
-134.761
-136.186
-137.696
-139.31
-141.037
-142.902
-144.912
-146.744
-148.266
-149.828
-151.44
-153.103
-154.818
-156.586
-158.408
-160.287
-162.221
-164.218
-166.272
-168.401
-170.585
-172.869
-175.196
-177.68
-180.164
-182.941
-185.589
-188.845
-191.668
-195.731
-198.741
-203.64
8.9043
10.9362
4.43717
-3.22454
-9.52503
-15.3067
-20.9119
-26.2123
-31.2194
-35.9801
-40.5149
-44.8362
-48.9596
-52.8988
-56.6645
-60.2669
-63.7159
-67.0192
-70.1856
-73.2207
-76.1326
-78.9263
-81.6082
-84.1832
-86.6561
-89.0316
-91.3141
-93.508
-95.6165
-97.644
-99.5936
-101.469
-103.273
-105.009
-106.68
-108.289
-109.84
-111.334
-112.776
-114.168
-115.514
-116.818
-118.082
-119.312
-120.512
-121.686
-122.84
-123.979
-125.109
-126.238
-127.371
-128.518
-129.686
-130.884
-132.122
-133.412
-134.762
-136.187
-137.698
-139.311
-141.039
-142.904
-144.915
-146.746
-148.269
-149.831
-151.443
-153.106
-154.821
-156.59
-158.412
-160.291
-162.225
-164.222
-166.275
-168.403
-170.586
-172.869
-175.194
-177.675
-180.155
-182.921
-185.564
-188.787
-191.597
-195.548
-198.453
-203.085
8.75383
10.9162
4.43304
-3.22619
-9.52432
-15.305
-20.9098
-26.2101
-31.2174
-35.9781
-40.5131
-44.8346
-48.9581
-52.8974
-56.6632
-60.2657
-63.7148
-67.0182
-70.1847
-73.2198
-76.1318
-78.9256
-81.6075
-84.1825
-86.6554
-89.031
-91.3135
-93.5074
-95.616
-97.6435
-99.5932
-101.468
-103.273
-105.009
-106.68
-108.289
-109.839
-111.334
-112.776
-114.168
-115.514
-116.817
-118.082
-119.312
-120.512
-121.686
-122.84
-123.979
-125.109
-126.238
-127.371
-128.518
-129.686
-130.884
-132.123
-133.412
-134.762
-136.188
-137.699
-139.312
-141.04
-142.905
-144.916
-146.748
-148.271
-149.833
-151.445
-153.108
-154.823
-156.592
-158.413
-160.292
-162.225
-164.221
-166.274
-168.4
-170.581
-172.861
-175.182
-177.657
-180.131
-182.88
-185.515
-188.689
-191.476
-195.284
-198.068
-202.401
8.5761
10.8875
4.42579
-3.23025
-9.52506
-15.304
-20.9081
-26.2081
-31.2152
-35.976
-40.5111
-44.8327
-48.9563
-52.8958
-56.6617
-60.2642
-63.7135
-67.017
-70.1835
-73.2188
-76.1308
-78.9246
-81.6066
-84.1816
-86.6546
-89.0303
-91.3128
-93.5067
-95.6153
-97.6429
-99.5926
-101.468
-103.272
-105.008
-106.679
-108.288
-109.839
-111.333
-112.775
-114.168
-115.514
-116.817
-118.082
-119.312
-120.511
-121.686
-122.84
-123.979
-125.109
-126.238
-127.371
-128.518
-129.686
-130.884
-132.123
-133.412
-134.762
-136.188
-137.699
-139.313
-141.04
-142.905
-144.917
-146.748
-148.271
-149.833
-151.445
-153.108
-154.822
-156.59
-158.411
-160.288
-162.22
-164.214
-166.264
-168.388
-170.565
-172.839
-175.154
-177.618
-180.083
-182.806
-185.426
-188.532
-191.284
-194.915
-197.561
-201.57
8.37445
10.8481
4.4148
-3.23745
-9.52793
-15.3043
-20.9071
-26.2064
-31.2132
-35.9739
-40.5089
-44.8306
-48.9543
-52.8939
-56.6599
-60.2626
-63.7119
-67.0155
-70.1821
-73.2174
-76.1295
-78.9234
-81.6054
-84.1806
-86.6536
-89.0293
-91.3119
-93.5059
-95.6145
-97.6421
-99.5918
-101.467
-103.271
-105.008
-106.679
-108.288
-109.838
-111.333
-112.775
-114.167
-115.513
-116.817
-118.081
-119.311
-120.511
-121.685
-122.839
-123.978
-125.109
-126.237
-127.371
-128.518
-129.686
-130.884
-132.122
-133.412
-134.762
-136.187
-137.698
-139.312
-141.039
-142.904
-144.915
-146.746
-148.268
-149.829
-151.44
-153.102
-154.815
-156.582
-158.401
-160.276
-162.205
-164.196
-166.242
-168.36
-170.531
-172.796
-175.102
-177.548
-179.998
-182.683
-185.279
-188.294
-190.991
-194.413
-196.905
-200.571
8.15675
10.7956
4.39963
-3.2485
-9.53366
-15.3065
-20.9074
-26.2056
-31.2117
-35.9721
-40.5069
-44.8285
-48.9522
-52.8919
-56.6579
-60.2607
-63.7101
-67.0138
-70.1804
-73.2159
-76.128
-78.922
-81.6041
-84.1793
-86.6524
-89.0281
-91.3108
-93.5048
-95.6134
-97.6411
-99.5909
-101.466
-103.271
-105.007
-106.678
-108.287
-109.837
-111.332
-112.774
-114.167
-115.513
-116.816
-118.08
-119.31
-120.51
-121.685
-122.838
-123.977
-125.108
-126.236
-127.37
-128.517
-129.684
-130.883
-132.121
-133.41
-134.76
-136.185
-137.695
-139.309
-141.035
-142.899
-144.909
-146.738
-148.259
-149.82
-151.429
-153.089
-154.8
-156.563
-158.379
-160.25
-162.175
-164.161
-166.2
-168.309
-170.47
-172.72
-175.011
-177.43
-179.857
-182.488
-185.046
-187.945
-190.562
-193.744
-196.069
-199.385
7.93684
10.7278
4.37994
-3.26392
-9.54293
-15.3114
-20.9097
-26.2062
-31.2112
-35.9708
-40.5053
-44.8266
-48.9502
-52.8898
-56.6559
-60.2586
-63.7081
-67.0118
-70.1786
-73.214
-76.1263
-78.9203
-81.6025
-84.1777
-86.6509
-89.0267
-91.3094
-93.5035
-95.6122
-97.6399
-99.5897
-101.465
-103.269
-105.006
-106.677
-108.286
-109.836
-111.331
-112.773
-114.166
-115.512
-116.815
-118.08
-119.31
-120.509
-121.683
-122.837
-123.976
-125.107
-126.235
-127.368
-128.515
-129.682
-130.88
-132.118
-133.407
-134.756
-136.18
-137.69
-139.302
-141.027
-142.889
-144.897
-146.724
-148.243
-149.801
-151.407
-153.063
-154.77
-156.529
-158.34
-160.205
-162.122
-164.098
-166.126
-168.221
-170.367
-172.594
-174.862
-177.242
-179.634
-182.192
-184.69
-187.446
-189.953
-192.873
-195.018
-197.991
7.73526
10.6425
4.35555
-3.28402
-9.55623
-15.3194
-20.9145
-26.2087
-31.2121
-35.9707
-40.5044
-44.8253
-48.9486
-52.8879
-56.6539
-60.2566
-63.706
-67.0098
-70.1765
-73.2121
-76.1244
-78.9185
-81.6007
-84.1759
-86.6492
-89.025
-91.3078
-93.5019
-95.6106
-97.6384
-99.5882
-101.464
-103.268
-105.004
-106.675
-108.285
-109.835
-111.33
-112.772
-114.164
-115.51
-116.814
-118.078
-119.308
-120.508
-121.682
-122.836
-123.974
-125.105
-126.233
-127.366
-128.512
-129.679
-130.876
-132.113
-133.401
-134.749
-136.172
-137.68
-139.29
-141.012
-142.871
-144.875
-146.698
-148.213
-149.767
-151.368
-153.019
-154.72
-156.471
-158.273
-160.127
-162.032
-163.994
-166.006
-168.079
-170.201
-172.395
-174.628
-176.953
-179.292
-181.753
-184.166
-186.751
-189.115
-191.759
-193.713
-196.359
7.57843
10.5384
4.32655
-3.30877
-9.57372
-15.331
-20.9223
-26.2138
-31.2152
-35.9722
-40.5048
-44.8249
-48.9477
-52.8866
-56.6523
-60.2548
-63.7041
-67.0078
-70.1745
-73.21
-76.1223
-78.9164
-81.5987
-84.174
-86.6472
-89.0231
-91.3059
-93.5001
-95.6089
-97.6367
-99.5866
-101.462
-103.266
-105.003
-106.674
-108.283
-109.834
-111.328
-112.77
-114.163
-115.509
-116.812
-118.077
-119.306
-120.506
-121.68
-122.833
-123.972
-125.101
-126.229
-127.361
-128.507
-129.673
-130.869
-132.105
-133.39
-134.737
-136.157
-137.662
-139.269
-140.987
-142.841
-144.839
-146.654
-148.164
-149.711
-151.304
-152.946
-154.637
-156.376
-158.164
-160.003
-161.889
-163.829
-165.815
-167.857
-169.943
-172.089
-174.27
-176.52
-178.781
-181.121
-183.414
-185.804
-187.993
-190.355
-192.11
-194.451
7.49672
10.4163
4.29369
-3.33785
-9.5952
-15.3461
-20.9334
-26.2219
-31.2207
-35.9759
-40.5071
-44.8261
-48.948
-52.8863
-56.6515
-60.2537
-63.7027
-67.0062
-70.1727
-73.2082
-76.1204
-78.9145
-81.5967
-84.1719
-86.6452
-89.0211
-91.3039
-93.4981
-95.6069
-97.6347
-99.5847
-101.46
-103.265
-105.001
-106.672
-108.281
-109.832
-111.327
-112.769
-114.161
-115.507
-116.81
-118.074
-119.304
-120.503
-121.677
-122.83
-123.968
-125.097
-126.223
-127.355
-128.499
-129.664
-130.858
-132.091
-133.374
-134.718
-136.134
-137.635
-139.235
-140.947
-142.793
-144.78
-146.585
-148.085
-149.622
-151.203
-152.831
-154.506
-156.227
-157.994
-159.808
-161.668
-163.574
-165.522
-167.518
-169.551
-171.631
-173.737
-175.888
-178.041
-180.232
-182.369
-184.542
-186.528
-188.609
-190.161
-192.217
7.52215
10.2796
4.25853
-3.37062
-9.62005
-15.364
-20.9473
-26.2328
-31.229
-35.9821
-40.5116
-44.8293
-48.9501
-52.8875
-56.6519
-60.2536
-63.7021
-67.0053
-70.1716
-73.2068
-76.1189
-78.9128
-81.5949
-84.1701
-86.6433
-89.0191
-91.3019
-93.4961
-95.6049
-97.6327
-99.5826
-101.458
-103.263
-104.999
-106.67
-108.279
-109.83
-111.325
-112.766
-114.159
-115.504
-116.807
-118.072
-119.301
-120.5
-121.673
-122.825
-123.962
-125.09
-126.215
-127.345
-128.487
-129.649
-130.841
-132.071
-133.35
-134.688
-136.098
-137.591
-139.183
-140.885
-142.717
-144.689
-146.478
-147.963
-149.484
-151.046
-152.653
-154.304
-155.998
-157.734
-159.512
-161.331
-163.189
-165.082
-167.012
-168.971
-170.959
-172.962
-174.984
-176.995
-179.007
-180.956
-182.893
-184.655
-186.459
-187.809
-189.596
7.68448
10.1372
4.22307
-3.40625
-9.64739
-15.3837
-20.9633
-26.246
-31.2397
-35.9906
-40.5184
-44.8346
-48.9542
-52.8905
-56.6541
-60.255
-63.7029
-67.0056
-70.1714
-73.2063
-76.1181
-78.9118
-81.5937
-84.1687
-86.6417
-89.0175
-91.3002
-93.4943
-95.603
-97.6308
-99.5807
-101.456
-103.261
-104.997
-106.668
-108.277
-109.828
-111.322
-112.764
-114.156
-115.502
-116.804
-118.068
-119.297
-120.495
-121.667
-122.818
-123.954
-125.08
-126.203
-127.331
-128.469
-129.628
-130.815
-132.04
-133.312
-134.642
-136.043
-137.525
-139.104
-140.789
-142.602
-144.55
-146.314
-147.777
-149.274
-150.809
-152.384
-153.999
-155.653
-157.344
-159.07
-160.829
-162.619
-164.434
-166.273
-168.128
-169.995
-171.861
-173.723
-175.555
-177.361
-179.091
-180.779
-182.304
-183.838
-184.986
-186.515
8.00563
10.0066
4.19002
-3.44362
-9.67618
-15.4039
-20.9799
-26.2604
-31.2518
-36.0007
-40.527
-44.8417
-48.9602
-52.8953
-56.658
-60.2581
-63.7053
-67.0074
-70.1726
-73.2071
-76.1184
-78.9119
-81.5935
-84.1682
-86.641
-89.0166
-91.2991
-93.493
-95.6016
-97.6293
-99.5791
-101.454
-103.259
-104.995
-106.666
-108.275
-109.825
-111.32
-112.761
-114.153
-115.498
-116.8
-118.063
-119.291
-120.488
-121.659
-122.809
-123.942
-125.066
-126.186
-127.309
-128.443
-129.596
-130.776
-131.993
-133.255
-134.574
-135.96
-137.426
-138.984
-140.645
-142.428
-144.341
-146.069
-147.499
-148.961
-150.454
-151.983
-153.547
-155.142
-156.767
-158.42
-160.095
-161.79
-163.499
-165.215
-166.933
-168.644
-170.336
-172.003
-173.624
-175.197
-176.686
-178.116
-179.397
-180.667
-181.614
-182.89
8.49251
9.90538
4.16846
-3.48054
-9.70525
-15.4229
-20.9957
-26.2744
-31.2638
-36.0112
-40.5363
-44.8499
-48.9673
-52.9015
-56.6633
-60.2626
-63.7091
-67.0105
-70.1752
-73.2092
-76.1201
-78.9131
-81.5944
-84.1687
-86.6413
-89.0167
-91.2989
-93.4926
-95.6011
-97.6285
-99.5781
-101.453
-103.258
-104.994
-106.664
-108.273
-109.823
-111.317
-112.759
-114.15
-115.495
-116.796
-118.058
-119.285
-120.48
-121.649
-122.796
-123.926
-125.046
-126.161
-127.279
-128.406
-129.55
-130.719
-131.923
-133.171
-134.473
-135.838
-137.278
-138.806
-140.431
-142.171
-144.032
-145.706
-147.089
-148.498
-149.932
-151.395
-152.885
-154.398
-155.932
-157.482
-159.043
-160.61
-162.176
-163.733
-165.275
-166.793
-168.276
-169.716
-171.097
-172.417
-173.651
-174.815
-175.85
-176.862
-177.608
-178.631
9.12554
9.84144
4.17694
-3.51233
-9.73284
-15.4392
-21.0088
-26.2864
-31.2742
-36.0204
-40.5446
-44.8575
-48.9742
-52.9077
-56.669
-60.2677
-63.7136
-67.0146
-70.1787
-73.2124
-76.1227
-78.9154
-81.5963
-84.1704
-86.6426
-89.0177
-91.2998
-93.4932
-95.6016
-97.6287
-99.5781
-101.453
-103.257
-104.993
-106.663
-108.272
-109.822
-111.316
-112.756
-114.147
-115.49
-116.791
-118.051
-119.276
-120.469
-121.635
-122.778
-123.904
-125.018
-126.126
-127.234
-128.351
-129.482
-130.636
-131.822
-133.049
-134.324
-135.658
-137.061
-138.545
-140.118
-141.794
-143.58
-145.179
-146.494
-147.827
-149.178
-150.548
-151.935
-153.335
-154.743
-156.154
-157.564
-158.963
-160.346
-161.706
-163.034
-164.323
-165.564
-166.749
-167.87
-168.922
-169.891
-170.79
-171.577
-172.336
-172.88
-173.651
9.8484
9.81039
4.23424
-3.53028
-9.75539
-15.4502
-21.0175
-26.2947
-31.2813
-36.0267
-40.5505
-44.863
-48.9794
-52.9126
-56.6735
-60.272
-63.7176
-67.0184
-70.1821
-73.2156
-76.1256
-78.9181
-81.5987
-84.1726
-86.6446
-89.0194
-91.3013
-93.4945
-95.6028
-97.6297
-99.579
-101.454
-103.257
-104.993
-106.663
-108.272
-109.821
-111.314
-112.754
-114.143
-115.486
-116.784
-118.043
-119.265
-120.454
-121.616
-122.753
-123.872
-124.977
-126.075
-127.171
-128.272
-129.385
-130.517
-131.676
-132.871
-134.108
-135.397
-136.747
-138.167
-139.664
-141.251
-142.929
-144.421
-145.64
-146.869
-148.106
-149.35
-150.599
-151.848
-153.091
-154.322
-155.535
-156.725
-157.885
-159.008
-160.089
-161.119
-162.093
-163.006
-163.851
-164.628
-165.329
-165.964
-166.505
-167.017
-167.36
-167.88
10.5903
9.78426
4.33892
-3.52436
-9.76776
-15.4528
-21.0191
-26.2975
-31.2836
-36.0285
-40.5524
-44.8649
-48.9813
-52.9146
-56.6755
-60.2741
-63.7197
-67.0204
-70.1841
-73.2176
-76.1276
-78.92
-81.6005
-84.1743
-86.6462
-89.0209
-91.3028
-93.4958
-95.604
-97.6308
-99.5799
-101.455
-103.258
-104.993
-106.663
-108.271
-109.82
-111.312
-112.751
-114.139
-115.48
-116.776
-118.032
-119.25
-120.434
-121.589
-122.719
-123.828
-124.921
-126.003
-127.081
-128.159
-129.246
-130.346
-131.466
-132.614
-133.797
-135.022
-136.296
-137.626
-139.018
-140.478
-142.008
-143.351
-144.439
-145.528
-146.611
-147.69
-148.758
-149.813
-150.847
-151.855
-152.832
-153.774
-154.675
-155.531
-156.335
-157.085
-157.775
-158.404
-158.969
-159.47
-159.905
-160.282
-160.585
-160.858
-161.006
-161.282
11.3211
9.74369
4.45656
-3.50471
-9.7714
-15.4457
-21.0133
-26.2944
-31.2804
-36.0255
-40.5498
-44.8626
-48.9794
-52.9129
-56.6742
-60.273
-63.7188
-67.0198
-70.1837
-73.2174
-76.1275
-78.9201
-81.6007
-84.1745
-86.6466
-89.0213
-91.3032
-93.4963
-95.6045
-97.6313
-99.5803
-101.455
-103.258
-104.993
-106.663
-108.27
-109.818
-111.309
-112.746
-114.133
-115.472
-116.765
-118.017
-119.229
-120.407
-121.552
-122.67
-123.765
-124.84
-125.901
-126.953
-128
-129.047
-130.101
-131.167
-132.251
-133.358
-134.493
-135.661
-136.867
-138.113
-139.401
-140.731
-141.879
-142.797
-143.701
-144.587
-145.455
-146.299
-147.116
-147.9
-148.648
-149.356
-150.021
-150.637
-151.203
-151.716
-152.174
-152.576
-152.922
-153.212
-153.448
-153.63
-153.764
-153.842
-153.894
-153.859
-153.904
11.9924
9.71324
4.56791
-3.48904
-9.77786
-15.4396
-21.0082
-26.2907
-31.2761
-36.0213
-40.5457
-44.8587
-48.9755
-52.9093
-56.6708
-60.2699
-63.7159
-67.0172
-70.1813
-73.2152
-76.1256
-78.9183
-81.5991
-84.1732
-86.6454
-89.0203
-91.3023
-93.4955
-95.6037
-97.6306
-99.5796
-101.454
-103.257
-104.992
-106.661
-108.268
-109.815
-111.305
-112.74
-114.124
-115.459
-116.748
-117.994
-119.199
-120.366
-121.499
-122.602
-123.677
-124.728
-125.759
-126.773
-127.776
-128.771
-129.762
-130.752
-131.747
-132.749
-133.761
-134.786
-135.824
-136.876
-137.94
-139.011
-139.909
-140.61
-141.285
-141.93
-142.545
-143.126
-143.669
-144.171
-144.631
-145.044
-145.411
-145.729
-145.998
-146.218
-146.389
-146.511
-146.586
-146.616
-146.603
-146.549
-146.459
-146.33
-146.18
-145.977
-145.812
12.4411
9.71036
4.65177
-3.47435
-9.78045
-15.4361
-21.0066
-26.2905
-31.2759
-36.0211
-40.5452
-44.8581
-48.975
-52.9087
-56.6701
-60.2691
-63.7152
-67.0164
-70.1805
-73.2145
-76.1248
-78.9176
-81.5985
-84.1725
-86.6448
-89.0197
-91.3018
-93.495
-95.6032
-97.63
-99.5789
-101.453
-103.256
-104.99
-106.659
-108.265
-109.811
-111.299
-112.733
-114.113
-115.444
-116.728
-117.966
-119.162
-120.318
-121.436
-122.519
-123.57
-124.592
-125.587
-126.558
-127.509
-128.44
-129.356
-130.258
-131.148
-132.027
-132.897
-133.757
-134.606
-135.44
-136.256
-137.047
-137.68
-138.155
-138.595
-138.998
-139.363
-139.687
-139.969
-140.208
-140.402
-140.552
-140.658
-140.719
-140.737
-140.712
-140.648
-140.545
-140.406
-140.233
-140.03
-139.798
-139.541
-139.26
-138.963
-138.64
-138.327
12.633
9.71532
4.68982
-3.46676
-9.78058
-15.4342
-21.0059
-26.2909
-31.2766
-36.0218
-40.5457
-44.8587
-48.9757
-52.9092
-56.6705
-60.2696
-63.7156
-67.0167
-70.1808
-73.2147
-76.1251
-78.9178
-81.5986
-84.1727
-86.6449
-89.0198
-91.3018
-93.495
-95.6032
-97.6299
-99.5787
-101.453
-103.255
-104.989
-106.658
-108.263
-109.807
-111.294
-112.725
-114.102
-115.429
-116.707
-117.938
-119.124
-120.267
-121.37
-122.433
-123.46
-124.452
-125.41
-126.336
-127.232
-128.099
-128.938
-129.75
-130.534
-131.29
-132.018
-132.715
-133.377
-134.002
-134.581
-135.109
-135.498
-135.767
-135.996
-136.185
-136.332
-136.436
-136.498
-136.517
-136.495
-136.431
-136.328
-136.187
-136.01
-135.798
-135.555
-135.284
-134.985
-134.663
-134.321
-133.96
-133.584
-133.195
-132.796
-132.388
-131.976
12.5822
9.72458
4.68837
-3.46369
-9.77671
-15.4318
-21.004
-26.2893
-31.2752
-36.0206
-40.5447
-44.8578
-48.9749
-52.9085
-56.6699
-60.2689
-63.715
-67.0162
-70.1803
-73.2143
-76.1247
-78.9174
-81.5982
-84.1723
-86.6446
-89.0195
-91.3015
-93.4946
-95.6028
-97.6294
-99.5781
-101.452
-103.254
-104.988
-106.655
-108.26
-109.803
-111.288
-112.717
-114.091
-115.413
-116.685
-117.909
-119.085
-120.216
-121.302
-122.346
-123.348
-124.309
-125.229
-126.11
-126.951
-127.753
-128.515
-129.236
-129.915
-130.551
-131.139
-131.678
-132.161
-132.585
-132.942
-133.226
-133.392
-133.477
-133.52
-133.521
-133.479
-133.396
-133.272
-133.109
-132.908
-132.671
-132.402
-132.101
-131.772
-131.418
-131.04
-130.642
-130.227
-129.796
-129.354
-128.901
-128.442
-127.977
-127.509
-127.042
-126.564
12.2883
9.73862
4.64737
-3.46521
-9.76897
-15.4291
-21.0011
-26.2858
-31.272
-36.0178
-40.5424
-44.8558
-48.973
-52.9068
-56.6685
-60.2676
-63.7138
-67.0151
-70.1794
-73.2134
-76.1239
-78.9167
-81.5976
-84.1717
-86.644
-89.0189
-91.301
-93.4941
-95.6022
-97.6288
-99.5774
-101.451
-103.253
-104.986
-106.653
-108.257
-109.799
-111.282
-112.708
-114.08
-115.398
-116.664
-117.88
-119.047
-120.165
-121.236
-122.26
-123.238
-124.169
-125.053
-125.89
-126.678
-127.417
-128.105
-128.739
-129.317
-129.837
-130.295
-130.685
-131.003
-131.244
-131.4
-131.466
-131.437
-131.362
-131.244
-131.086
-130.887
-130.647
-130.37
-130.059
-129.715
-129.341
-128.941
-128.517
-128.071
-127.607
-127.128
-126.636
-126.134
-125.625
-125.11
-124.592
-124.074
-123.557
-123.041
-122.534
-122.015
11.7431
9.76172
4.56263
-3.47295
-9.75849
-15.4279
-20.9994
-26.2831
-31.2702
-36.0164
-40.5417
-44.8556
-48.9729
-52.9068
-56.6688
-60.268
-63.7143
-67.0157
-70.18
-73.214
-76.1245
-78.9172
-81.5981
-84.1722
-86.6445
-89.0193
-91.3014
-93.4944
-95.6024
-97.6289
-99.5774
-101.451
-103.253
-104.985
-106.652
-108.254
-109.795
-111.277
-112.701
-114.069
-115.383
-116.644
-117.853
-119.011
-120.118
-121.174
-122.18
-123.135
-124.037
-124.887
-125.682
-126.421
-127.102
-127.721
-128.274
-128.76
-129.175
-129.512
-129.769
-129.938
-130.015
-129.993
-129.868
-129.671
-129.46
-129.208
-128.917
-128.587
-128.22
-127.82
-127.389
-126.932
-126.451
-125.949
-125.429
-124.895
-124.348
-123.793
-123.231
-122.665
-122.098
-121.53
-120.966
-120.405
-119.851
-119.301
-118.767
-118.22
11.0016
9.80879
4.45389
-3.48182
-9.74657
-15.4308
-21.0025
-26.285
-31.2735
-36.0199
-40.5452
-44.8591
-48.9763
-52.9101
-56.6719
-60.2709
-63.717
-67.0181
-70.1822
-73.216
-76.1263
-78.9188
-81.5995
-84.1734
-86.6455
-89.0202
-91.3021
-93.495
-95.6028
-97.6291
-99.5774
-101.451
-103.252
-104.984
-106.65
-108.252
-109.792
-111.272
-112.695
-114.06
-115.371
-116.628
-117.831
-118.981
-120.078
-121.123
-122.114
-123.05
-123.929
-124.75
-125.512
-126.21
-126.843
-127.406
-127.895
-128.308
-128.638
-128.88
-129.031
-129.083
-129.034
-128.875
-128.605
-128.28
-127.969
-127.616
-127.227
-126.802
-126.343
-125.854
-125.339
-124.802
-124.245
-123.672
-123.087
-122.491
-121.889
-121.283
-120.675
-120.068
-119.464
-118.864
-118.271
-117.686
-117.112
-116.544
-115.997
-115.432
10.2168
9.86204
4.33796