/*--------------------------------*- C++ -*----------------------------------*\
| =========                 |                                                 |
| \\      /  F ield         | OpenFOAM: The Open Source CFD Toolbox           |
|  \\    /   O peration     | Version:  2306                                  |
|   \\  /    A nd           | Website:  www.openfoam.com                      |
|    \\/     M anipulation  |                                                 |
\*---------------------------------------------------------------------------*/
FoamFile
{
    version     2.0;
    format      ascii;
    arch        "LSB;label=32;scalar=64";
    class       surfaceScalarField;
    location    "2000";
    object      phi;
}
// * * * * * * * * * * * * * * * * * * * * * * * * * * * * * * * * * * * * * //

dimensions      [0 3 -1 0 0 0 0];

oriented        oriented;

internalField   nonuniform List<scalar> 
40747
(
1.08606e-05
4.01988e-06
4.41461e-06
6.44601e-06
1.3148e-05
8.87321e-06
8.253e-06
9.30962e-06
1.59207e-05
1.47292e-05
1.17818e-05
1.2392e-05
1.92835e-05
2.17896e-05
1.52108e-05
1.58545e-05
2.33645e-05
3.02941e-05
1.86557e-05
1.99195e-05
2.83206e-05
4.05263e-05
2.21916e-05
2.47847e-05
3.43447e-05
5.28199e-05
2.58751e-05
3.06612e-05
4.16745e-05
6.7565e-05
2.97555e-05
3.77941e-05
5.06036e-05
8.52139e-05
3.38809e-05
4.64781e-05
6.14963e-05
0.000106284
3.83042e-05
5.7073e-05
7.48063e-05
0.000131361
4.30887e-05
7.00219e-05
9.11013e-05
0.000161092
4.83161e-05
8.58739e-05
0.000111095
0.000196171
5.40974e-05
0.000105313
0.000135688
0.000237313
6.05871e-05
0.000129198
0.000166026
0.000285203
6.80042e-05
0.000158609
0.00020357
0.000340413
7.66568e-05
0.000194917
0.000250194
0.000403273
8.69732e-05
0.000239877
0.000308306
0.000473676
9.95315e-05
0.000295748
0.000381008
0.000550803
0.000115075
0.000365465
0.000472276
0.000632746
0.000134486
0.000452865
0.000587165
0.000716035
0.000158662
0.000562989
0.000731995
0.000795107
0.000188207
0.000702449
0.000914485
0.000861792
0.000222814
0.000879878
0.00114374
0.000904997
0.00026024
0.00110632
0.00142991
0.000910969
0.000295273
0.00139488
0.001782
0.000865992
0.000319024
0.00175825
0.00220165
0.000765677
0.000319024
0.00220164
0.00268404
0.000623672
0.000286491
0.00271657
0.00324275
0.0004561
0.000225981
0.00330325
0.00390765
0.000268572
0.000145273
0.00398836
0.00373262
0.000100464
6.75857e-05
0.0038103
0.00372779
-6.28171e-05
-9.41191e-06
0.00380478
0.0037282
-0.000226513
-8.64208e-05
0.00380521
0.00373391
-0.00039591
-0.00016408
0.00381156
0.00379102
-0.000579659
-0.00024206
0.00386899
0.003166
-0.000744788
-0.000300338
0.00322427
0.00263668
-0.000885058
-0.000330927
0.00266727
0.00217547
-0.000983777
-0.000329025
0.00217357
0.00177052
-0.00102666
-0.000303483
0.00174498
0.00142828
-0.00101772
-0.000266707
0.0013915
0.00114833
-0.000970442
-0.000227572
0.00110919
0.000922665
-0.000898483
-0.000191396
0.000886489
0.000742004
-0.000813064
-0.00016054
0.000711148
0.000597895
-0.000722629
-0.00013537
0.000572725
0.000483063
-0.000633075
-0.000115274
0.000462967
0.000391461
-0.000548178
-9.93169e-05
0.000375504
0.000318205
-0.000470103
-8.6568e-05
0.000305456
0.000259423
-0.000399861
-7.62321e-05
0.000249087
0.00021208
-0.000337696
-6.76818e-05
0.00020353
0.000173808
-0.000283361
-6.04459e-05
0.000166573
0.000142758
-0.000236328
-5.41822e-05
0.000136495
0.000117483
-0.000195924
-4.86472e-05
0.000111948
9.68466e-05
-0.000161426
-4.36695e-05
9.18689e-05
7.99516e-05
-0.000132112
-3.91282e-05
7.54103e-05
6.60869e-05
-0.000107301
-3.4937e-05
6.18957e-05
5.46853e-05
-8.63691e-05
-3.10317e-05
5.078e-05
4.52922e-05
-6.87557e-05
-2.73625e-05
4.16229e-05
3.75417e-05
-5.39666e-05
-2.38868e-05
3.4066e-05
3.1138e-05
-4.15708e-05
-2.05649e-05
2.78162e-05
2.58409e-05
-3.11962e-05
-1.73548e-05
2.26308e-05
2.14551e-05
-2.25237e-05
-1.42057e-05
1.8306e-05
1.78206e-05
-1.52814e-05
-1.10485e-05
1.46634e-05
1.48067e-05
-9.23831e-06
-7.77322e-06
1.15314e-05
1.23058e-05
-4.19937e-06
-4.17674e-06
8.70937e-06
1.02297e-05
6.05297e-06
2.60383e-06
3.84217e-06
2.00345e-06
6.00382e-07
1.84683e-06
1.56616e-07
1.76033e-06
8.65028e-08
1.70282e-06
5.75062e-08
1.66215e-06
4.06721e-08
1.63196e-06
3.01941e-08
1.60863e-06
2.33254e-08
1.59014e-06
1.84888e-08
1.57521e-06
1.49352e-08
1.56293e-06
1.22801e-08
1.55271e-06
1.0217e-08
1.54409e-06
8.61722e-09
1.53677e-06
7.32292e-09
1.53051e-06
6.25971e-09
1.52511e-06
5.40245e-09
1.52042e-06
4.68387e-09
1.51633e-06
4.09022e-09
1.51276e-06
3.57849e-09
1.5096e-06
3.15242e-09
1.50682e-06
2.7844e-09
1.50435e-06
2.47341e-09
1.50214e-06
2.20364e-09
1.50018e-06
1.96712e-09
1.49842e-06
1.75307e-09
1.49685e-06
1.57149e-09
1.49544e-06
1.41351e-09
1.49417e-06
1.27183e-09
1.49302e-06
1.14609e-09
1.49199e-06
1.0353e-09
1.49105e-06
9.40916e-10
1.4902e-06
8.50573e-10
1.48943e-06
7.7061e-10
1.48873e-06
6.97018e-10
1.4881e-06
6.31967e-10
1.48753e-06
5.71574e-10
1.48701e-06
5.15179e-10
1.48655e-06
4.61738e-10
1.48614e-06
4.09279e-10
1.48578e-06
3.58112e-10
1.48548e-06
3.04167e-10
1.48523e-06
2.49263e-10
1.48504e-06
1.90258e-10
1.48491e-06
1.26871e-10
1.48486e-06
5.68305e-11
1.48488e-06
-2.05344e-11
1.48499e-06
-1.10995e-10
1.4852e-06
-2.1177e-10
1.48552e-06
-3.22705e-10
1.48597e-06
-4.50512e-10
1.48657e-06
-5.95744e-10
1.48733e-06
-7.63398e-10
1.48828e-06
-9.51597e-10
1.48945e-06
-1.16787e-09
1.49086e-06
-1.40675e-09
1.49254e-06
-1.6796e-09
1.49452e-06
-1.98456e-09
1.49685e-06
-2.32777e-09
1.49956e-06
-2.70879e-09
1.5027e-06
-3.13934e-09
1.50632e-06
-3.62222e-09
1.51048e-06
-4.16164e-09
1.51527e-06
-4.78914e-09
1.51883e-06
-3.55432e-09
1.5226e-06
-3.7737e-09
1.52662e-06
-4.01303e-09
1.53088e-06
-4.26276e-09
1.53539e-06
-4.50949e-09
1.54015e-06
-4.76428e-09
1.54518e-06
-5.02527e-09
1.55049e-06
-5.30688e-09
1.55608e-06
-5.59048e-09
1.56197e-06
-5.8956e-09
1.56819e-06
-6.21726e-09
1.57476e-06
-6.56534e-09
1.5817e-06
-6.94139e-09
1.58905e-06
-7.35683e-09
1.59688e-06
-7.83019e-09
1.60524e-06
-8.35817e-09
1.61425e-06
-9.00394e-09
1.62397e-06
-9.72426e-09
1.63475e-06
-1.07733e-08
1.64681e-06
-1.20656e-08
1.6597e-06
-1.28874e-08
1.67936e-06
-1.96645e-08
1.69382e-06
-1.44562e-08
1.73337e-06
-3.95448e-08
-7.48523e-07
2.48189e-06
5.81083e-06
7.34096e-06
4.77301e-06
1.63821e-06
4.46916e-06
4.60462e-07
4.29811e-06
2.57555e-07
4.18286e-06
1.7275e-07
4.10075e-06
1.22783e-07
4.03949e-06
9.14563e-08
3.99198e-06
7.08375e-08
3.9542e-06
5.62601e-08
3.92362e-06
4.55163e-08
3.89843e-06
3.74713e-08
3.87744e-06
3.1209e-08
3.85971e-06
2.63447e-08
3.84463e-06
2.24048e-08
3.83173e-06
1.91647e-08
3.82058e-06
1.6549e-08
3.81091e-06
1.4355e-08
3.80246e-06
1.25408e-08
3.79506e-06
1.09763e-08
3.78854e-06
9.6726e-09
3.78278e-06
8.54603e-09
3.77766e-06
7.59336e-09
3.7731e-06
6.76657e-09
3.76902e-06
6.04214e-09
3.76539e-06
5.38631e-09
3.76213e-06
4.82919e-09
3.7592e-06
4.34434e-09
3.75657e-06
3.90963e-09
3.75419e-06
3.52363e-09
3.75204e-06
3.1833e-09
3.75009e-06
2.89337e-09
3.74832e-06
2.61606e-09
3.74672e-06
2.37038e-09
3.74528e-06
2.14405e-09
3.74397e-06
1.94429e-09
3.74278e-06
1.75832e-09
3.74171e-06
1.58411e-09
3.74075e-06
1.41952e-09
3.73991e-06
1.25772e-09
3.73916e-06
1.09955e-09
3.73854e-06
9.32997e-10
3.73802e-06
7.62832e-10
3.73763e-06
5.79568e-10
3.73738e-06
3.82476e-10
3.73727e-06
1.6469e-10
3.73733e-06
-7.59232e-11
3.73757e-06
-3.57602e-10
3.73804e-06
-6.72596e-10
3.73873e-06
-1.01886e-09
3.7397e-06
-1.41772e-09
3.74098e-06
-1.87118e-09
3.74261e-06
-2.39461e-09
3.74464e-06
-2.98208e-09
3.74713e-06
-3.65765e-09
3.75013e-06
-4.40391e-09
3.7537e-06
-5.25585e-09
3.75793e-06
-6.208e-09
3.76288e-06
-7.27994e-09
3.76864e-06
-8.46747e-09
3.77531e-06
-9.81232e-09
3.783e-06
-1.13145e-08
3.79185e-06
-1.30024e-08
3.80201e-06
-1.49499e-08
3.80954e-06
-1.10877e-08
3.81755e-06
-1.17817e-08
3.82605e-06
-1.25132e-08
3.83508e-06
-1.32896e-08
3.84463e-06
-1.40573e-08
3.85471e-06
-1.48457e-08
3.86534e-06
-1.56565e-08
3.87656e-06
-1.65225e-08
3.88837e-06
-1.74061e-08
3.90081e-06
-1.8337e-08
3.91394e-06
-1.93465e-08
3.92777e-06
-2.03886e-08
3.94242e-06
-2.15958e-08
3.95785e-06
-2.27887e-08
3.9744e-06
-2.43804e-08
3.99181e-06
-2.57651e-08
4.01093e-06
-2.81257e-08
4.0309e-06
-2.9689e-08
4.05403e-06
-3.38986e-08
4.0781e-06
-3.61424e-08
4.1064e-06
-4.1184e-08
4.14447e-06
-5.77328e-08
4.17452e-06
-4.45027e-08
4.29015e-06
-1.55178e-07
-9.82339e-07
4.52397e-06
9.16104e-06
1.05719e-05
7.82855e-06
2.97069e-06
7.39081e-06
8.98208e-07
7.13966e-06
5.08699e-07
6.96832e-06
3.44088e-07
6.84555e-06
2.45552e-07
6.75364e-06
1.83365e-07
6.68218e-06
1.42303e-07
6.62527e-06
1.13172e-07
6.57913e-06
9.16506e-08
6.54109e-06
7.55117e-08
6.50937e-06
6.29349e-08
6.48256e-06
5.31528e-08
6.45974e-06
4.52261e-08
6.4402e-06
3.87029e-08
6.42332e-06
3.34316e-08
6.40866e-06
2.90088e-08
6.39585e-06
2.53495e-08
6.38464e-06
2.21934e-08
6.37475e-06
1.95614e-08
6.36601e-06
1.72871e-08
6.35824e-06
1.5362e-08
6.35132e-06
1.36914e-08
6.34513e-06
1.22284e-08
6.33961e-06
1.09047e-08
6.33466e-06
9.77775e-09
6.33021e-06
8.79724e-09
6.3262e-06
7.9183e-09
6.32259e-06
7.13734e-09
6.31933e-06
6.44854e-09
6.31636e-06
5.86139e-09
6.31367e-06
5.30096e-09
6.31124e-06
4.80352e-09
6.30904e-06
4.34527e-09
6.30705e-06
3.93998e-09
6.30524e-06
3.56254e-09
6.30362e-06
3.2086e-09
6.30216e-06
2.87378e-09
6.30088e-06
2.54442e-09
6.29976e-06
2.22158e-09
6.29881e-06
1.88132e-09
6.29804e-06
1.53249e-09
6.29746e-06
1.15654e-09
6.29709e-06
7.51238e-10
6.29696e-06
3.02097e-10
6.29708e-06
-1.94203e-10
6.29749e-06
-7.74328e-10
6.29825e-06
-1.42728e-09
6.29938e-06
-2.14589e-09
6.30093e-06
-2.97171e-09
6.30297e-06
-3.91182e-09
6.30557e-06
-4.99654e-09
6.30881e-06
-6.21514e-09
6.31277e-06
-7.61546e-09
6.31753e-06
-9.16428e-09
6.3232e-06
-1.09322e-08
6.3299e-06
-1.29074e-08
6.33776e-06
-1.5133e-08
6.34689e-06
-1.75957e-08
6.35746e-06
-2.03888e-08
6.36965e-06
-2.34999e-08
6.38365e-06
-2.70074e-08
6.39974e-06
-3.10355e-08
6.41166e-06
-2.30124e-08
6.42435e-06
-2.44668e-08
6.4378e-06
-2.59642e-08
6.45209e-06
-2.75727e-08
6.4672e-06
-2.91679e-08
6.48315e-06
-3.07976e-08
6.49997e-06
-3.24809e-08
6.51771e-06
-3.42593e-08
6.53641e-06
-3.61013e-08
6.55607e-06
-3.80027e-08
6.57685e-06
-4.01206e-08
6.59867e-06
-4.22152e-08
6.62187e-06
-4.47928e-08
6.64619e-06
-4.71058e-08
6.67242e-06
-5.06067e-08
6.69974e-06
-5.3084e-08
6.7301e-06
-5.84904e-08
6.76123e-06
-6.08185e-08
6.79796e-06
-7.0621e-08
6.8352e-06
-7.33827e-08
6.88003e-06
-8.60143e-08
6.9378e-06
-1.15503e-07
6.98264e-06
-8.93414e-08
7.17118e-06
-3.43724e-07
-9.23397e-07
7.11224e-06
1.27951e-05
1.36313e-05
1.12236e-05
4.54219e-06
1.06491e-05
1.47267e-06
1.0312e-05
8.45786e-07
1.0079e-05
5.77051e-07
9.91113e-06
4.13475e-07
9.785e-06
3.09493e-07
9.6867e-06
2.40603e-07
9.6083e-06
1.91571e-07
9.54468e-06
1.55268e-07
9.49218e-06
1.28007e-07
9.44837e-06
1.06745e-07
9.41134e-06
9.01875e-08
9.3798e-06
7.67678e-08
9.35278e-06
6.57185e-08
9.32943e-06
5.67818e-08
9.30916e-06
4.92825e-08
9.29143e-06
4.30744e-08
9.27591e-06
3.77207e-08
9.26222e-06
3.32525e-08
9.25011e-06
2.93921e-08
9.23935e-06
2.61214e-08
9.22976e-06
2.32834e-08
9.22119e-06
2.07997e-08
9.21354e-06
1.85545e-08
9.20668e-06
1.66383e-08
9.20051e-06
1.49715e-08
9.19495e-06
1.34779e-08
9.18994e-06
1.215e-08
9.18541e-06
1.09784e-08
9.18129e-06
9.97891e-09
9.17757e-06
9.02727e-09
9.17419e-06
8.181e-09
9.17113e-06
7.40151e-09
9.16836e-06
6.71054e-09
9.16586e-06
6.0671e-09
9.16361e-06
5.46322e-09
9.16159e-06
4.89124e-09
9.15981e-06
4.3284e-09
9.15825e-06
3.7755e-09
9.15694e-06
3.19245e-09
9.15588e-06
2.59293e-09
9.15509e-06
1.9466e-09
9.1546e-06
1.24842e-09
9.15442e-06
4.72858e-10
9.15462e-06
-3.85135e-10
9.15523e-06
-1.38385e-09
9.15631e-06
-2.51541e-09
9.15793e-06
-3.76433e-09
9.16016e-06
-5.19437e-09
9.16307e-06
-6.82424e-09
9.16678e-06
-8.70403e-09
9.17138e-06
-1.08176e-08
9.17701e-06
-1.32445e-08
9.18378e-06
-1.59321e-08
9.19185e-06
-1.89988e-08
9.20136e-06
-2.24248e-08
9.21252e-06
-2.6287e-08
9.22548e-06
-3.05576e-08
9.2405e-06
-3.54046e-08
9.25779e-06
-4.07938e-08
9.27767e-06
-4.68809e-08
9.30048e-06
-5.38455e-08
9.31738e-06
-3.99197e-08
9.33538e-06
-4.24609e-08
9.35444e-06
-4.50296e-08
9.37468e-06
-4.78069e-08
9.39608e-06
-5.05731e-08
9.41867e-06
-5.33858e-08
9.4425e-06
-5.63019e-08
9.46759e-06
-5.93508e-08
9.49404e-06
-6.25496e-08
9.52183e-06
-6.57923e-08
9.55119e-06
-6.9485e-08
9.58198e-06
-7.30053e-08
9.61474e-06
-7.75524e-08
9.64896e-06
-8.13204e-08
9.68595e-06
-8.76036e-08
9.72424e-06
-9.13672e-08
9.767e-06
-1.01247e-07
9.81041e-06
-1.04228e-07
9.86178e-06
-1.21995e-07
9.91343e-06
-1.25027e-07
9.97573e-06
-1.4832e-07
1.00533e-05
-1.93095e-07
1.01175e-05
-1.53504e-07
1.03431e-05
-5.69328e-07
-8.38873e-07
1.02586e-05
1.70117e-05
1.65391e-05
1.52354e-05
6.31856e-06
1.45161e-05
2.19197e-06
1.40817e-05
1.28019e-06
1.37768e-05
8.81897e-07
1.35554e-05
6.34857e-07
1.33885e-05
4.76453e-07
1.3258e-05
3.71081e-07
1.31537e-05
2.9582e-07
1.3069e-05
2.39963e-07
1.29991e-05
1.97957e-07
1.29407e-05
1.65164e-07
1.28913e-05
1.39595e-07
1.28492e-05
1.18869e-07
1.28131e-05
1.01795e-07
1.27819e-05
8.79729e-08
1.27548e-05
7.63727e-08
1.27311e-05
6.67649e-08
1.27104e-05
5.84808e-08
1.26921e-05
5.1561e-08
1.26759e-05
4.55842e-08
1.26615e-05
4.05149e-08
1.26486e-05
3.6117e-08
1.26372e-05
3.22707e-08
1.26269e-05
2.87976e-08
1.26177e-05
2.58257e-08
1.26095e-05
2.32414e-08
1.2602e-05
2.09267e-08
1.25953e-05
1.88671e-08
1.25892e-05
1.70494e-08
1.25837e-05
1.54975e-08
1.25787e-05
1.40238e-08
1.25742e-05
1.27109e-08
1.25701e-05
1.15018e-08
1.25664e-05
1.04276e-08
1.2563e-05
9.42761e-09
1.256e-05
8.48844e-09
1.25573e-05
7.59796e-09
1.25549e-05
6.72173e-09
1.25528e-05
5.85951e-09
1.25511e-05
4.95024e-09
1.25496e-05
4.01302e-09
1.25486e-05
3.00251e-09
1.25479e-05
1.90932e-09
1.25477e-05
6.93058e-10
1.2548e-05
-6.55378e-10
1.25488e-05
-2.21583e-09
1.25503e-05
-3.99361e-09
1.25525e-05
-5.96444e-09
1.25555e-05
-8.21198e-09
1.25594e-05
-1.0775e-08
1.25645e-05
-1.373e-08
1.25707e-05
-1.70549e-08
1.25783e-05
-2.08696e-08
1.25875e-05
-2.50985e-08
1.25984e-05
-2.9922e-08
1.26113e-05
-3.53101e-08
1.26264e-05
-4.1386e-08
1.2644e-05
-4.81007e-08
1.26643e-05
-5.57238e-08
1.26877e-05
-6.41883e-08
1.27146e-05
-7.37589e-08
1.27454e-05
-8.46722e-08
1.27682e-05
-6.27625e-08
1.27925e-05
-6.67801e-08
1.28183e-05
-7.07806e-08
1.28456e-05
-7.51152e-08
1.28745e-05
-7.94538e-08
1.29049e-05
-8.38465e-08
1.29371e-05
-8.84154e-08
1.29709e-05
-9.31446e-08
1.30065e-05
-9.81604e-08
1.30438e-05
-1.03163e-07
1.30833e-05
-1.08966e-07
1.31246e-05
-1.14322e-07
1.31686e-05
-1.21521e-07
1.32144e-05
-1.27099e-07
1.32639e-05
-1.37141e-07
1.33149e-05
-1.42384e-07
1.3372e-05
-1.58269e-07
1.34296e-05
-1.61837e-07
1.34975e-05
-1.89897e-07
1.35656e-05
-1.93123e-07
1.36477e-05
-2.30447e-07
1.37455e-05
-2.90892e-07
1.38383e-05
-2.46264e-07
1.40651e-05
-7.96135e-07
-8.88983e-07
1.41152e-05
2.20518e-05
1.9272e-05
2.01027e-05
8.26767e-06
1.92327e-05
3.062e-06
1.86881e-05
1.82474e-06
1.82987e-05
1.27129e-06
1.80132e-05
9.20353e-07
1.77968e-05
6.92899e-07
1.7627e-05
5.40813e-07
1.74911e-05
4.31744e-07
1.73805e-05
3.50565e-07
1.72891e-05
2.89405e-07
1.72126e-05
2.41607e-07
1.71479e-05
2.04288e-07
1.70928e-05
1.74027e-07
1.70455e-05
1.49086e-07
1.70046e-05
1.28877e-07
1.6969e-05
1.11912e-07
1.69379e-05
9.78545e-08
1.69107e-05
8.57348e-08
1.68866e-05
7.56024e-08
1.68654e-05
6.68535e-08
1.68465e-05
5.94245e-08
1.68296e-05
5.29799e-08
1.68145e-05
4.73479e-08
1.68011e-05
4.22683e-08
1.6789e-05
3.791e-08
1.67781e-05
3.41211e-08
1.67683e-05
3.07297e-08
1.67595e-05
2.77091e-08
1.67515e-05
2.50426e-08
1.67442e-05
2.27635e-08
1.67376e-05
2.06061e-08
1.67316e-05
1.86803e-08
1.67262e-05
1.69069e-08
1.67213e-05
1.53283e-08
1.67169e-05
1.38592e-08
1.67129e-05
1.24787e-08
1.67094e-05
1.11689e-08
1.67062e-05
9.8803e-09
1.67034e-05
8.61074e-09
1.67011e-05
7.27257e-09
1.66992e-05
5.89043e-09
1.66978e-05
4.40045e-09
1.6697e-05
2.7869e-09
1.66967e-05
9.90301e-10
1.6697e-05
-1.00701e-09
1.66981e-05
-3.3041e-09
1.67001e-05
-5.93001e-09
1.67029e-05
-8.85719e-09
1.67069e-05
-1.2184e-08
1.67121e-05
-1.59762e-08
1.67187e-05
-2.03471e-08
1.6727e-05
-2.52674e-08
1.6737e-05
-3.09087e-08
1.67491e-05
-3.71679e-08
1.67634e-05
-4.43032e-08
1.67804e-05
-5.22735e-08
1.68003e-05
-6.1262e-08
1.68234e-05
-7.11914e-08
1.68501e-05
-8.2463e-08
1.68809e-05
-9.49658e-08
1.69162e-05
-1.0911e-07
1.69568e-05
-1.25185e-07
1.69868e-05
-9.27698e-08
1.70187e-05
-9.87341e-08
1.70525e-05
-1.046e-07
1.70884e-05
-1.10947e-07
1.71263e-05
-1.17332e-07
1.71662e-05
-1.23772e-07
1.72083e-05
-1.30489e-07
1.72525e-05
-1.37374e-07
1.72991e-05
-1.44744e-07
1.73479e-05
-1.51986e-07
1.73994e-05
-1.60519e-07
1.74533e-05
-1.68172e-07
1.75106e-05
-1.78804e-07
1.75701e-05
-1.86584e-07
1.76344e-05
-2.01474e-07
1.77004e-05
-2.08424e-07
1.77741e-05
-2.31952e-07
1.78484e-05
-2.36118e-07
1.79353e-05
-2.76829e-07
1.80224e-05
-2.80206e-07
1.81278e-05
-3.35769e-07
1.82462e-05
-4.09298e-07
1.83781e-05
-3.78177e-07
1.85853e-05
-1.0034e-06
-1.11058e-06
1.88069e-05
2.81556e-05
2.17776e-05
2.60706e-05
1.03527e-05
2.505e-05
4.0826e-06
2.43832e-05
2.49156e-06
2.38951e-05
1.75933e-06
2.35329e-05
1.28257e-06
2.32564e-05
9.69399e-07
2.30386e-05
7.58602e-07
2.28637e-05
6.06677e-07
2.2721e-05
4.93204e-07
2.26029e-05
4.07517e-07
2.25041e-05
3.40456e-07
2.24204e-05
2.88012e-07
2.23489e-05
2.45469e-07
2.22876e-05
2.10382e-07
2.22346e-05
1.81921e-07
2.21885e-05
1.58022e-07
2.21481e-05
1.38208e-07
2.21127e-05
1.21125e-07
2.20815e-05
1.06831e-07
2.20539e-05
9.44928e-08
2.20293e-05
8.40026e-08
2.20074e-05
7.49022e-08
2.19878e-05
6.69554e-08
2.19702e-05
5.97974e-08
2.19545e-05
5.36382e-08
2.19403e-05
4.82854e-08
2.19276e-05
4.34977e-08
2.1916e-05
3.92291e-08
2.19056e-05
3.54592e-08
2.18962e-05
3.22331e-08
2.18876e-05
2.91895e-08
2.18798e-05
2.64675e-08
2.18727e-05
2.39612e-08
2.18663e-05
2.17259e-08
2.18606e-05
1.96466e-08
2.18553e-05
1.7692e-08
2.18507e-05
1.58363e-08
2.18466e-05
1.40119e-08
2.18429e-05
1.22128e-08
2.18399e-05
1.03183e-08
2.18374e-05
8.35824e-09
2.18356e-05
6.24615e-09
2.18344e-05
3.95757e-09
2.1834e-05
1.409e-09
2.18344e-05
-1.43206e-09
2.18358e-05
-4.6822e-09
2.18383e-05
-8.40041e-09
2.1842e-05
-1.25694e-08
2.18471e-05
-1.72987e-08
2.18538e-05
-2.26819e-08
2.18624e-05
-2.88836e-08
2.1873e-05
-3.58676e-08
2.18859e-05
-4.38696e-08
2.19015e-05
-5.27545e-08
2.19201e-05
-6.28761e-08
2.1942e-05
-7.41819e-08
2.19677e-05
-8.69316e-08
2.19975e-05
-1.0101e-07
2.2032e-05
-1.16987e-07
2.20717e-05
-1.34693e-07
2.21174e-05
-1.54728e-07
2.21696e-05
-1.77423e-07
2.22083e-05
-1.31439e-07
2.22494e-05
-1.39917e-07
2.2293e-05
-1.48171e-07
2.23391e-05
-1.57069e-07
2.23879e-05
-1.6606e-07
2.24392e-05
-1.75096e-07
2.24933e-05
-1.84547e-07
2.255e-05
-1.94142e-07
2.26098e-05
-2.04492e-07
2.26723e-05
-2.14528e-07
2.27383e-05
-2.26505e-07
2.28071e-05
-2.36985e-07
2.28802e-05
-2.5193e-07
2.2956e-05
-2.62374e-07
2.30379e-05
-2.83295e-07
2.31217e-05
-2.92262e-07
2.32149e-05
-3.25143e-07
2.33088e-05
-3.30048e-07
2.34178e-05
-3.85845e-07
2.35269e-05
-3.89294e-07
2.36594e-05
-4.68252e-07
2.37996e-05
-5.49496e-07
2.39785e-05
-5.57077e-07
2.41683e-05
-1.19315e-06
-1.44255e-06
2.45002e-05
3.55926e-05
2.39791e-05
3.34171e-05
1.25282e-05
3.22555e-05
5.24415e-06
3.14576e-05
3.28951e-06
3.08566e-05
2.36032e-06
3.04035e-05
1.73562e-06
3.00546e-05
1.31833e-06
2.97782e-05
1.03503e-06
2.95552e-05
8.29591e-07
2.9373e-05
6.75466e-07
2.92218e-05
5.58739e-07
2.9095e-05
4.67214e-07
2.89875e-05
3.95499e-07
2.88957e-05
3.3728e-07
2.88169e-05
2.89225e-07
2.87486e-05
2.50197e-07
2.86892e-05
2.17411e-07
2.86372e-05
1.9021e-07
2.85916e-05
1.66758e-07
2.85513e-05
1.47114e-07
2.85156e-05
1.30164e-07
2.84839e-05
1.15733e-07
2.84556e-05
1.03212e-07
2.84302e-05
9.22855e-08
2.84076e-05
8.24581e-08
2.83872e-05
7.39766e-08
2.83689e-05
6.66079e-08
2.83524e-05
6.00226e-08
2.83375e-05
5.41444e-08
2.8324e-05
4.89503e-08
2.83117e-05
4.44991e-08
2.83006e-05
4.03148e-08
2.82905e-05
3.65659e-08
2.82814e-05
3.31139e-08
2.82731e-05
3.00295e-08
2.82655e-05
2.71621e-08
2.82588e-05
2.44664e-08
2.82527e-05
2.19058e-08
2.82473e-05
1.93906e-08
2.82426e-05
1.69089e-08
2.82387e-05
1.42993e-08
2.82354e-05
1.15961e-08
2.8233e-05
8.68514e-09
2.82314e-05
5.53046e-09
2.82308e-05
2.01875e-09
2.82313e-05
-1.90491e-09
2.8233e-05
-6.37607e-09
2.82361e-05
-1.14843e-08
2.82407e-05
-1.72393e-08
2.82472e-05
-2.37678e-08
2.82557e-05
-3.11858e-08
2.82665e-05
-3.97231e-08
2.828e-05
-4.93397e-08
2.82965e-05
-6.03513e-08
2.83163e-05
-7.25848e-08
2.834e-05
-8.65105e-08
2.83678e-05
-1.02064e-07
2.84005e-05
-1.19603e-07
2.84385e-05
-1.38962e-07
2.84824e-05
-1.60921e-07
2.8533e-05
-1.85235e-07
2.8591e-05
-2.12745e-07
2.86574e-05
-2.43811e-07
2.87065e-05
-1.80551e-07
2.87588e-05
-1.9222e-07
2.88141e-05
-2.03493e-07
2.88726e-05
-2.15576e-07
2.89344e-05
-2.27833e-07
2.89994e-05
-2.40113e-07
2.90678e-05
-2.52983e-07
2.91396e-05
-2.65935e-07
2.92151e-05
-2.79988e-07
2.92941e-05
-2.93464e-07
2.93773e-05
-3.09695e-07
2.94639e-05
-3.23624e-07
2.95558e-05
-3.43852e-07
2.9651e-05
-3.57529e-07
2.97534e-05
-3.8572e-07
2.98583e-05
-3.97182e-07
2.99743e-05
-4.41124e-07
3.00914e-05
-4.47131e-07
3.02261e-05
-5.20526e-07
3.03608e-05
-5.23991e-07
3.05246e-05
-6.32031e-07
3.06897e-05
-7.14626e-07
3.09179e-05
-7.85325e-07
3.11128e-05
-1.38801e-06
-1.81157e-06
3.14818e-05
4.46801e-05
2.57771e-05
4.24708e-05
1.47375e-05
4.11904e-05
6.52456e-06
4.02588e-05
4.22107e-06
3.95322e-05
3.08694e-06
3.89736e-05
2.29424e-06
3.85384e-05
1.75356e-06
3.8191e-05
1.38243e-06
3.79094e-05
1.11119e-06
3.76783e-05
9.06552e-07
3.7486e-05
7.50977e-07
3.73246e-05
6.28689e-07
3.71874e-05
5.3264e-07
3.70701e-05
4.54576e-07
3.69693e-05
3.90071e-07
3.68819e-05
3.37609e-07
3.68058e-05
2.93506e-07
3.67391e-05
2.56892e-07
3.66805e-05
2.25312e-07
3.66288e-05
1.98832e-07
3.6583e-05
1.75992e-07
3.65422e-05
1.56515e-07
3.65058e-05
1.3961e-07
3.64732e-05
1.24868e-07
3.64441e-05
1.1163e-07
3.64179e-05
1.00168e-07
3.63943e-05
9.02139e-08
3.6373e-05
8.13261e-08
3.63537e-05
7.33823e-08
3.63363e-05
6.63586e-08
3.63205e-05
6.0329e-08
3.63061e-05
5.46826e-08
3.62931e-05
4.96156e-08
3.62813e-05
4.49495e-08
3.62705e-05
4.0772e-08
3.62608e-05
3.68916e-08
3.6252e-05
3.32438e-08
3.62442e-05
2.97778e-08
3.62372e-05
2.63772e-08
3.62311e-05
2.3021e-08
3.62259e-05
1.94985e-08
3.62216e-05
1.58465e-08
3.62184e-05
1.19175e-08
3.62163e-05
7.66085e-09
3.62153e-05
2.92649e-09
3.62158e-05
-2.37171e-09
3.62178e-05
-8.39288e-09
3.62216e-05
-1.52571e-08
3.62274e-05
-2.30125e-08
3.62354e-05
-3.18199e-08
3.62461e-05
-4.18166e-08
3.62597e-05
-5.33022e-08
3.62766e-05
-6.62394e-08
3.62972e-05
-8.10455e-08
3.63222e-05
-9.75008e-08
3.63519e-05
-1.16217e-07
3.63869e-05
-1.37119e-07
3.6428e-05
-1.60685e-07
3.64757e-05
-1.86686e-07
3.6531e-05
-2.16162e-07
3.65945e-05
-2.4877e-07
3.66674e-05
-2.85653e-07
3.67508e-05
-3.27183e-07
3.68124e-05
-2.42183e-07
3.68781e-05
-2.57849e-07
3.69475e-05
-2.72897e-07
3.70208e-05
-2.88914e-07
3.70982e-05
-3.05209e-07
3.71796e-05
-3.21493e-07
3.72652e-05
-3.38581e-07
3.73549e-05
-3.55642e-07
3.74491e-05
-3.74227e-07
3.75476e-05
-3.91901e-07
3.76512e-05
-4.13287e-07
3.77589e-05
-4.31414e-07
3.78731e-05
-4.57961e-07
3.79911e-05
-4.75605e-07
3.81177e-05
-5.123e-07
3.82475e-05
-5.27011e-07
3.83901e-05
-5.83634e-07
3.85344e-05
-5.91446e-07
3.86988e-05
-6.84901e-07
3.88634e-05
-6.88654e-07
3.90624e-05
-8.31025e-07
3.92584e-05
-9.1057e-07
3.95336e-05
-1.06061e-06
3.97614e-05
-1.6158e-06
-2.18682e-06
4.01367e-05
5.58006e-05
2.70495e-05
5.36271e-05
1.69111e-05
5.22648e-05
7.88679e-06
5.12074e-05
5.27849e-06
5.03469e-05
3.94747e-06
4.96689e-05
2.97226e-06
4.91327e-05
2.28969e-06
4.87006e-05
1.81455e-06
4.83479e-05
1.46384e-06
4.80571e-05
1.19735e-06
4.78144e-05
9.93749e-07
4.76099e-05
8.33173e-07
4.74358e-05
7.06673e-07
4.72867e-05
6.03688e-07
4.71583e-05
5.18469e-07
4.70469e-05
4.49042e-07
4.69498e-05
3.90615e-07
4.68646e-05
3.42069e-07
4.67898e-05
3.00175e-07
4.67236e-05
2.65003e-07
4.66649e-05
2.34674e-07
4.66127e-05
2.08768e-07
4.6566e-05
1.86269e-07
4.65242e-05
1.66658e-07
4.64868e-05
1.49079e-07
4.64531e-05
1.3381e-07
4.64228e-05
1.2055e-07
4.63954e-05
1.08723e-07
4.63707e-05
9.8139e-08
4.63482e-05
8.8773e-08
4.63279e-05
8.07157e-08
4.63093e-05
7.32004e-08
4.62925e-05
6.64471e-08
4.62772e-05
6.02273e-08
4.62634e-05
5.46474e-08
4.62508e-05
4.9469e-08
4.62394e-05
4.46027e-08
4.62292e-05
3.99776e-08
4.62202e-05
3.54466e-08
4.62122e-05
3.09751e-08
4.62054e-05
2.62929e-08
4.61998e-05
2.14363e-08
4.61955e-05
1.62179e-08
4.61926e-05
1.05689e-08
4.61913e-05
4.29351e-09
4.61916e-05
-2.73514e-09
4.6194e-05
-1.07071e-08
4.61985e-05
-1.97744e-08
4.62055e-05
-3.0033e-08
4.62154e-05
-4.16946e-08
4.62285e-05
-5.49278e-08
4.62453e-05
-7.0104e-08
4.62662e-05
-8.71902e-08
4.62919e-05
-1.06735e-07
4.63229e-05
-1.28461e-07
4.63598e-05
-1.53151e-07
4.64034e-05
-1.80721e-07
4.64546e-05
-2.11795e-07
4.65139e-05
-2.46069e-07
4.65827e-05
-2.84894e-07
4.66617e-05
-3.27806e-07
4.67524e-05
-3.76321e-07
4.6856e-05
-4.30813e-07
4.69326e-05
-3.18735e-07
4.70141e-05
-3.39339e-07
4.71002e-05
-3.59063e-07
4.71912e-05
-3.79896e-07
4.72871e-05
-4.01132e-07
4.7388e-05
-4.22309e-07
4.74939e-05
-4.44534e-07
4.76049e-05
-4.66581e-07
4.77213e-05
-4.90639e-07
4.78428e-05
-5.13398e-07
4.79704e-05
-5.4093e-07
4.81032e-05
-5.64166e-07
4.82433e-05
-5.98107e-07
4.83884e-05
-6.20678e-07
4.85432e-05
-6.67079e-07
4.87023e-05
-6.86143e-07
4.88756e-05
-7.56916e-07
4.90519e-05
-7.67739e-07
4.92503e-05
-8.8332e-07
4.94502e-05
-8.8856e-07
4.96881e-05
-1.06886e-06
4.99228e-05
-1.14534e-06
5.02418e-05
-1.37953e-06
5.05195e-05
-1.89356e-06
-2.57395e-06
5.09066e-05
6.942e-05
2.76513e-05
6.73658e-05
1.89654e-05
6.59752e-05
9.2773e-06
6.48139e-05
6.43986e-06
6.38192e-05
4.94212e-06
6.30113e-05
3.78014e-06
6.23604e-05
2.94063e-06
6.18291e-05
2.34583e-06
6.13917e-05
1.90128e-06
6.10287e-05
1.56036e-06
6.07242e-05
1.29821e-06
6.04668e-05
1.09056e-06
6.02471e-05
9.26346e-07
6.00585e-05
7.92343e-07
5.98957e-05
6.81241e-07
5.97542e-05
5.90541e-07
5.96307e-05
5.141e-07
5.95223e-05
4.5052e-07
5.94269e-05
3.95604e-07
5.93424e-05
3.49431e-07
5.92675e-05
3.09626e-07
5.92007e-05
2.75562e-07
5.9141e-05
2.45952e-07
5.90875e-05
2.20148e-07
5.90396e-05
1.97061e-07
5.89964e-05
1.76943e-07
5.89575e-05
1.59471e-07
5.89223e-05
1.43905e-07
5.88905e-05
1.29955e-07
5.88617e-05
1.17599e-07
5.88355e-05
1.06942e-07
5.88116e-05
9.70425e-08
5.879e-05
8.8137e-08
5.87702e-05
7.99341e-08
5.87523e-05
7.25595e-08
5.87361e-05
6.57212e-08
5.87214e-05
5.92994e-08
5.87082e-05
5.31947e-08
5.86964e-05
4.72251e-08
5.86861e-05
4.13358e-08
5.86772e-05
3.5186e-08
5.86698e-05
2.8807e-08
5.86641e-05
2.19637e-08
5.86601e-05
1.4565e-08
5.8658e-05
6.35896e-09
5.86581e-05
-2.83285e-09
5.86606e-05
-1.32416e-08
5.86659e-05
-2.50536e-08
5.86743e-05
-3.84246e-08
5.86863e-05
-5.36314e-08
5.87022e-05
-7.08898e-08
5.87228e-05
-9.06454e-08
5.87484e-05
-1.12875e-07
5.878e-05
-1.38288e-07
5.88181e-05
-1.66535e-07
5.88635e-05
-1.98611e-07
5.89172e-05
-2.34418e-07
5.89802e-05
-2.74764e-07
5.90534e-05
-3.1925e-07
5.91381e-05
-3.69598e-07
5.92355e-05
-4.25197e-07
5.93472e-05
-4.88016e-07
5.94748e-05
-5.58425e-07
5.9569e-05
-4.1294e-07
5.96693e-05
-4.39579e-07
5.97752e-05
-4.65037e-07
5.98871e-05
-4.91726e-07
6.00049e-05
-5.18951e-07
6.01287e-05
-5.46061e-07
6.02586e-05
-5.74469e-07
6.03945e-05
-6.02524e-07
6.0537e-05
-6.33116e-07
6.06856e-05
-6.62004e-07
6.08415e-05
-6.96758e-07
6.10035e-05
-7.26218e-07
6.11741e-05
-7.68662e-07
6.13508e-05
-7.97381e-07
6.15384e-05
-8.54697e-07
6.17318e-05
-8.79512e-07
6.19406e-05
-9.6572e-07
6.21543e-05
-9.81462e-07
6.23914e-05
-1.12044e-06
6.26329e-05
-1.13007e-06
6.29132e-05
-1.34914e-06
6.31956e-05
-1.42768e-06
6.35569e-05
-1.74088e-06
6.38902e-05
-2.22691e-06
-2.98459e-06
6.43009e-05
8.61095e-05
2.74156e-05
8.42728e-05
2.0802e-05
8.29244e-05
1.06257e-05
8.16988e-05
7.66553e-06
8.05824e-05
6.05851e-06
7.96412e-05
4.72135e-06
7.88646e-05
3.7172e-06
7.82205e-05
2.98993e-06
7.76841e-05
2.43767e-06
7.72353e-05
2.00919e-06
7.68565e-05
1.67699e-06
7.65348e-05
1.4123e-06
7.62591e-05
1.20198e-06
7.60217e-05
1.02978e-06
7.58163e-05
8.86638e-07
7.56374e-05
7.69488e-07
7.54809e-05
6.70555e-07
7.53433e-05
5.88152e-07
7.5222e-05
5.16894e-07
7.51146e-05
4.56873e-07
7.5019e-05
4.05132e-07
7.49339e-05
3.60765e-07
7.48577e-05
3.2215e-07
7.47893e-05
2.88497e-07
7.47279e-05
2.58446e-07
7.46727e-05
2.32174e-07
7.46228e-05
2.09349e-07
7.45777e-05
1.89036e-07
7.45369e-05
1.70808e-07
7.44998e-05
1.54646e-07
7.44661e-05
1.40664e-07
7.44354e-05
1.27726e-07
7.44075e-05
1.1608e-07
7.43821e-05
1.05352e-07
7.4359e-05
9.56847e-08
7.4338e-05
8.67274e-08
7.43189e-05
7.8324e-08
7.43018e-05
7.03341e-08
7.42865e-05
6.25376e-08
7.4273e-05
5.48505e-08
7.42613e-05
4.68493e-08
7.42516e-05
3.85531e-08
7.42439e-05
2.96703e-08
7.42384e-05
2.00836e-08
7.42353e-05
9.47102e-09
7.42348e-05
-2.40858e-09
7.42375e-05
-1.58407e-08
7.42434e-05
-3.10496e-08
7.42533e-05
-4.82653e-08
7.42675e-05
-6.78472e-08
7.42867e-05
-9.00729e-08
7.43115e-05
-1.15464e-07
7.43427e-05
-1.44023e-07
7.4381e-05
-1.76649e-07
7.44274e-05
-2.12899e-07
7.44828e-05
-2.54032e-07
7.45484e-05
-2.99935e-07
7.46252e-05
-3.51638e-07
7.47146e-05
-4.08626e-07
7.48181e-05
-4.73058e-07
7.4937e-05
-5.44147e-07
7.50734e-05
-6.24409e-07
7.52292e-05
-7.14219e-07
7.53442e-05
-5.27885e-07
7.54664e-05
-5.61826e-07
7.55956e-05
-5.94255e-07
7.57319e-05
-6.28025e-07
7.58755e-05
-6.62454e-07
7.60261e-05
-6.96706e-07
7.61841e-05
-7.32472e-07
7.63493e-05
-7.67734e-07
7.65223e-05
-8.06053e-07
7.67025e-05
-8.42273e-07
7.68912e-05
-8.85452e-07
7.70874e-05
-9.22414e-07
7.72934e-05
-9.7459e-07
7.75069e-05
-1.01091e-06
7.77326e-05
-1.08036e-06
7.79658e-05
-1.11273e-06
7.82154e-05
-1.21534e-06
7.84728e-05
-1.23883e-06
7.87537e-05
-1.40135e-06
7.9044e-05
-1.42042e-06
7.93708e-05
-1.67594e-06
7.9709e-05
-1.76585e-06
8.01146e-05
-2.14643e-06
8.05045e-05
-2.61682e-06
-3.4221e-06
8.0942e-05
0.000106572
2.61568e-05
0.000105067
2.23074e-05
0.000103847
1.18455e-05
0.000102617
8.89579e-06
0.000101408
7.26695e-06
0.000100342
5.7877e-06
9.94357e-05
4.62346e-06
9.86685e-05
3.75715e-06
9.80201e-05
3.08604e-06
9.74717e-05
2.55758e-06
9.70052e-05
2.14352e-06
9.66064e-05
1.81109e-06
9.62631e-05
1.54531e-06
9.59661e-05
1.32672e-06