/*--------------------------------*- C++ -*----------------------------------*\
| =========                 |                                                 |
| \\      /  F ield         | OpenFOAM: The Open Source CFD Toolbox           |
|  \\    /   O peration     | Version:  2306                                  |
|   \\  /    A nd           | Website:  www.openfoam.com                      |
|    \\/     M anipulation  |                                                 |
\*---------------------------------------------------------------------------*/
FoamFile
{
    version     2.0;
    format      ascii;
    arch        "LSB;label=32;scalar=64";
    class       volSymmTensorField;
    location    "2000";
    object      turbulenceProperties:devReff;
}
// * * * * * * * * * * * * * * * * * * * * * * * * * * * * * * * * * * * * * //

dimensions      [0 2 -2 0 0 0 0];

internalField   nonuniform List<symmTensor> 
20540
(
(1.34397 -4.74465 -0 -1.34396 -0 -8.24773e-06)
(16.1021 -14.4809 -0 -15.777 -0 -0.325091)
(1.34112 -9.86842 -0 -1.34113 -0 1.18657e-05)
(12.0623 -30.1568 -0 -12.3183 -0 0.256033)
(1.33676 -10.5698 -0 -1.33675 -0 -1.95637e-06)
(9.05274 -32.3998 -0 -9.13592 -0 0.0831734)
(1.3307 -11.1634 -0 -1.3307 -0 -7.64659e-07)
(7.17883 -34.3623 -0 -7.15639 -0 -0.0224474)
(1.32257 -11.6424 -0 -1.32257 -0 -1.37357e-06)
(5.95521 -36.0301 -0 -5.93491 -0 -0.0202978)
(1.31196 -11.9979 -0 -1.31196 -0 -1.82082e-06)
(5.05844 -37.3827 -0 -5.05295 -0 -0.00548964)
(1.29841 -12.2349 -0 -1.29841 -0 -2.66836e-06)
(4.3529 -38.4452 -0 -4.35203 -0 -0.000873983)
(1.28136 -12.3598 -0 -1.28136 -0 -3.98997e-06)
(3.78242 -39.248 -0 -3.78178 -0 -0.000637392)
(1.26021 -12.3777 -0 -1.2602 -0 -5.97612e-06)
(3.31435 -39.8192 -0 -3.31361 -0 -0.000741593)
(1.23425 -12.2916 -0 -1.23424 -0 -8.92024e-06)
(2.92641 -40.1815 -0 -2.92576 -0 -0.000649473)
(1.20271 -12.102 -0 -1.2027 -0 -1.32168e-05)
(2.60369 -40.3512 -0 -2.60314 -0 -0.000556594)
(1.16477 -11.8074 -0 -1.16475 -0 -1.94047e-05)
(2.33643 -40.3372 -0 -2.3359 -0 -0.000527291)
(1.11956 -11.4042 -0 -1.11953 -0 -2.84083e-05)
(2.11804 -40.1412 -0 -2.1175 -0 -0.000535069)
(1.06628 -10.8879 -0 -1.06623 -0 -4.15175e-05)
(1.94378 -39.7557 -0 -1.94324 -0 -0.000546722)
(1.0042 -10.2531 -0 -1.00414 -0 -6.00417e-05)
(1.8099 -39.1639 -0 -1.80934 -0 -0.000553759)
(0.932869 -9.49558 -0 -0.932783 -0 -8.6032e-05)
(1.71265 -38.34 -0 -1.7121 -0 -0.000556622)
(0.852297 -8.61268 -0 -0.852176 -0 -0.000120765)
(1.64711 -37.2443 -0 -1.64657 -0 -0.000541712)
(0.763217 -7.6058 -0 -0.763067 -0 -0.000150264)
(1.60584 -35.8222 -0 -1.60531 -0 -0.000530461)
(0.667444 -6.48231 -0 -0.667332 -0 -0.000112039)
(1.57744 -34.006 -0 -1.57685 -0 -0.000583663)
(0.568097 -5.25833 -0 -0.568215 -0 0.000118119)
(1.54484 -31.7103 -0 -1.54403 -0 -0.000806342)
(0.469151 -3.96214 -0 -0.469709 -0 0.000557883)
(1.48503 -28.8418 -0 -1.48363 -0 -0.00139911)
(0.373243 -2.63651 -0 -0.373961 -0 0.000717641)
(1.37144 -25.3219 -0 -1.36901 -0 -0.00243213)
(0.276894 -1.33072 -0 -0.276609 -0 -0.000285442)
(1.18142 -21.127 -0 -1.17787 -0 -0.00355471)
(0.165407 -0.0926531 -0 -0.162755 -0 -0.00265246)
(0.912804 -16.3994 -0 -0.911198 -0 -0.00160643)
(0.0200678 0.974921 -0 -0.0156564 -0 -0.00441145)
(0.589701 -11.3445 -0 -0.592586 -0 0.00288542)
(-0.152149 1.65811 -0 0.154511 -0 -0.00236271)
(0.272689 -6.60166 -0 -0.27251 -0 -0.000179071)
(-0.297459 1.76759 -0 0.29635 -0 0.00110954)
(0.00749851 -3.02674 -0 0.000708281 -0 -0.00820679)
(-0.36255 1.39894 -0 0.363913 -0 -0.00136279)
(-0.225735 -0.873956 -0 0.234715 -0 -0.00897958)
(-0.360081 0.858093 -0 0.364357 -0 -0.00427612)
(-0.400618 0.22482 -0 0.406929 -0 -0.00631141)
(-0.331088 0.404315 -0 0.335334 -0 -0.00424598)
(-0.467339 0.419125 -0 0.47315 -0 -0.00581177)
(-0.307947 0.145431 -0 0.311999 -0 -0.00405125)
(-0.476302 0.262493 -0 0.482094 -0 -0.00579284)
(-0.298805 0.0323093 -0 0.303265 -0 -0.00446009)
(-0.471759 0.0726955 -0 0.476723 -0 -0.00496352)
(-0.299878 -0.0420711 -0 0.304301 -0 -0.00442298)
(-0.47118 -0.106128 -0 0.476116 -0 -0.00493676)
(-0.3113 -0.163263 -0 0.315357 -0 -0.00405673)
(-0.47407 -0.295823 -0 0.479803 -0 -0.00573353)
(-0.336035 -0.431838 -0 0.340355 -0 -0.0043199)
(-0.461443 -0.437366 -0 0.466987 -0 -0.00554389)
(-0.363276 -0.882537 -0 0.367632 -0 -0.00435657)
(-0.391674 -0.209775 -0 0.397471 -0 -0.00579749)
(-0.362464 -1.4032 -0 0.363634 -0 -0.00117008)
(-0.212656 0.927711 -0 0.221222 -0 -0.00856641)
(-0.293222 -1.73802 -0 0.291959 -0 0.00126277)
(0.0213002 3.10714 -0 -0.0134999 -0 -0.00780032)
(-0.143326 -1.57558 -0 0.145942 -0 -0.00261584)
(0.288798 6.72906 -0 -0.289386 -0 0.000588057)
(0.0299314 -0.833396 -0 -0.0252886 -0 -0.00464284)
(0.61197 11.5465 -0 -0.615534 -0 0.00356491)
(0.174186 0.287583 -0 -0.171595 -0 -0.00259115)
(0.942487 16.6861 -0 -0.941208 -0 -0.00127865)
(0.286809 1.57652 -0 -0.286704 -0 -0.000105181)
(1.2157 21.5096 -0 -1.21227 -0 -0.00343124)
(0.388879 2.94483 -0 -0.389684 -0 0.000805176)
(1.40297 25.789 -0 -1.40067 -0 -0.00229327)
(0.494449 4.34753 -0 -0.494974 -0 0.000525147)
(1.50608 29.3835 -0 -1.5049 -0 -0.00118294)
(0.60552 5.73169 -0 -0.605573 -0 5.27821e-05)
(1.54868 32.3141 -0 -1.54804 -0 -0.000636955)
(0.718234 7.05164 -0 -0.718075 -0 -0.000159066)
(1.55842 34.6606 -0 -1.55793 -0 -0.000491584)
(0.827774 8.27623 -0 -0.827596 -0 -0.000177665)
(1.55912 36.5174 -0 -1.55864 -0 -0.000477987)
(0.930452 9.38629 -0 -0.930313 -0 -0.000138815)
(1.56864 37.9736 -0 -1.56816 -0 -0.000484069)
(1.02406 10.3716 -0 -1.02396 -0 -9.93965e-05)
(1.59927 39.1022 -0 -1.59877 -0 -0.000497938)
(1.10761 11.2286 -0 -1.10754 -0 -7.02104e-05)
(1.65886 39.9585 -0 -1.65835 -0 -0.000504743)
(1.18093 11.9581 -0 -1.18087 -0 -5.11241e-05)
(1.75242 40.5852 -0 -1.75192 -0 -0.000499182)
(1.2444 12.5638 -0 -1.24437 -0 -3.60357e-05)
(1.88329 41.0123 -0 -1.8828 -0 -0.000492407)
(1.29873 13.0502 -0 -1.29871 -0 -2.16035e-05)
(2.05421 41.2579 -0 -2.05373 -0 -0.000483018)
(1.34485 13.4225 -0 -1.34484 -0 -1.28473e-05)
(2.26829 41.3331 -0 -2.26781 -0 -0.000481214)
(1.38369 13.6848 -0 -1.38368 -0 -9.56727e-06)
(2.52977 41.2403 -0 -2.52925 -0 -0.000517501)
(1.41612 13.8396 -0 -1.41611 -0 -7.5104e-06)
(2.84486 40.9746 -0 -2.84425 -0 -0.000615213)
(1.44295 13.8876 -0 -1.44294 -0 -5.62605e-06)
(3.223 40.5246 -0 -3.22229 -0 -0.000711396)
(1.46493 13.827 -0 -1.46493 -0 -4.02685e-06)
(3.67867 39.8724 -0 -3.67805 -0 -0.000615358)
(1.48273 13.6537 -0 -1.48273 -0 -2.77325e-06)
(4.23365 38.9939 -0 -4.23278 -0 -0.000878651)
(1.49695 13.3608 -0 -1.49695 -0 -1.91619e-06)
(4.91999 37.8592 -0 -4.91445 -0 -0.00554246)
(1.50812 12.9398 -0 -1.50812 -0 -1.71528e-06)
(5.79327 36.4345 -0 -5.77293 -0 -0.0203445)
(1.51671 12.3824 -0 -1.51671 -0 -2.29155e-06)
(6.98865 34.6882 -0 -6.96623 -0 -0.0224155)
(1.52311 11.6847 -0 -1.52311 -0 -6.39723e-07)
(8.82912 32.6031 -0 -8.91152 -0 0.0824019)
(1.5277 10.864 -0 -1.52771 -0 1.46693e-05)
(11.8018 30.2213 -0 -12.0555 -0 0.253727)
(1.53073 5.21356 -0 -1.53071 -0 -1.2159e-05)
(15.8017 14.4843 -0 -15.4814 -0 -0.320348)
(0.0145166 -15.6687 -0 -0.0150633 -0 0.000546732)
(0.00208671 -10.1137 -0 -0.00213119 -0 4.44818e-05)
(0.000547966 -8.98552 -0 -0.000558419 -0 1.04535e-05)
(0.000309108 -8.4265 -0 -0.00031442 -0 5.31209e-06)
(0.000211051 -8.06754 -0 -0.000214261 -0 3.2108e-06)
(0.000153768 -7.81991 -0 -0.000155962 -0 2.19399e-06)
(0.000117808 -7.64069 -0 -0.000119432 -0 1.62398e-06)
(9.4058e-05 -7.5044 -0 -9.53106e-05 -0 1.25258e-06)
(7.71246e-05 -7.39768 -0 -7.8125e-05 -0 1.00038e-06)
(6.4486e-05 -7.31223 -0 -6.53073e-05 -0 8.2128e-07)
(5.49089e-05 -7.24275 -0 -5.55981e-05 -0 6.89238e-07)
(4.73261e-05 -7.18505 -0 -4.7912e-05 -0 5.85899e-07)
(4.13646e-05 -7.13706 -0 -4.1872e-05 -0 5.0734e-07)
(3.64333e-05 -7.09602 -0 -3.68758e-05 -0 4.42513e-07)
(3.2286e-05 -7.06147 -0 -3.26745e-05 -0 3.88482e-07)
(2.88913e-05 -7.03147 -0 -2.92367e-05 -0 3.45453e-07)
(2.5974e-05 -7.00578 -0 -2.62824e-05 -0 3.08369e-07)
(2.35241e-05 -6.98323 -0 -2.38026e-05 -0 2.78452e-07)
(2.13446e-05 -6.96367 -0 -2.15955e-05 -0 2.50841e-07)
(1.95046e-05 -6.94641 -0 -1.97331e-05 -0 2.28423e-07)
(1.78701e-05 -6.93124 -0 -1.80789e-05 -0 2.08834e-07)
(1.6468e-05 -6.91778 -0 -1.66599e-05 -0 1.91913e-07)
(1.52207e-05 -6.90581 -0 -1.53975e-05 -0 1.76799e-07)
(1.4096e-05 -6.89514 -0 -1.42595e-05 -0 1.6352e-07)
(1.30325e-05 -6.8856 -0 -1.31823e-05 -0 1.49871e-07)
(1.21201e-05 -6.87713 -0 -1.22586e-05 -0 1.38488e-07)
(1.13122e-05 -6.86947 -0 -1.14417e-05 -0 1.29461e-07)
(1.05606e-05 -6.86261 -0 -1.06819e-05 -0 1.21314e-07)
(9.87485e-06 -6.85641 -0 -9.98762e-06 -0 1.12768e-07)
(9.25555e-06 -6.85085 -0 -9.36135e-06 -0 1.05805e-07)
(8.72904e-06 -6.84579 -0 -8.8291e-06 -0 1.00059e-07)
(8.18798e-06 -6.84119 -0 -8.2816e-06 -0 9.36244e-08)
(7.69752e-06 -6.83706 -0 -7.78544e-06 -0 8.79276e-08)
(7.2241e-06 -6.83328 -0 -7.306e-06 -0 8.18926e-08)
(6.79712e-06 -6.8299 -0 -6.87457e-06 -0 7.74509e-08)
(6.37972e-06 -6.8268 -0 -6.45267e-06 -0 7.29463e-08)
(5.96732e-06 -6.82404 -0 -6.03559e-06 -0 6.82726e-08)
(5.5506e-06 -6.82152 -0 -5.61502e-06 -0 6.44169e-08)
(5.10629e-06 -6.8193 -0 -5.1662e-06 -0 5.99061e-08)
(4.63715e-06 -6.81732 -0 -4.69305e-06 -0 5.59071e-08)
(4.08903e-06 -6.81563 -0 -4.14e-06 -0 5.09734e-08)
(3.4787e-06 -6.8142 -0 -3.52461e-06 -0 4.59077e-08)
(2.7581e-06 -6.81308 -0 -2.79733e-06 -0 3.92245e-08)
(1.91293e-06 -6.81225 -0 -1.9454e-06 -0 3.24679e-08)
(8.96873e-07 -6.81178 -0 -9.22002e-07 -0 2.51286e-08)
(-3.16211e-07 -6.81167 -0 3.00088e-07 -0 1.61231e-08)
(-1.84435e-06 -6.81199 -0 1.84116e-06 -0 3.18188e-09)
(-3.66358e-06 -6.81281 -0 3.67359e-06 -0 -1.00126e-08)
(-5.7995e-06 -6.81417 -0 5.82245e-06 -0 -2.29537e-08)
(-8.4101e-06 -6.81613 -0 8.45236e-06 -0 -4.22654e-08)
(-1.15481e-05 -6.8188 -0 1.16122e-05 -0 -6.4154e-08)
(-1.53631e-05 -6.82225 -0 1.54536e-05 -0 -9.05078e-08)
(-1.98818e-05 -6.82664 -0 2.00045e-05 -0 -1.2263e-07)
(-2.53326e-05 -6.83203 -0 2.54951e-05 -0 -1.62443e-07)
(-3.16759e-05 -6.83864 -0 3.18848e-05 -0 -2.08963e-07)
(-3.92691e-05 -6.84649 -0 3.95276e-05 -0 -2.58503e-07)
(-4.81575e-05 -6.8559 -0 4.84876e-05 -0 -3.30158e-07)
(-5.86672e-05 -6.86689 -0 5.90634e-05 -0 -3.96236e-07)
(-7.08505e-05 -6.87985 -0 7.13516e-05 -0 -5.01101e-07)
(-8.53107e-05 -6.89474 -0 8.58907e-05 -0 -5.80024e-07)
(-0.000102134 -6.91216 -0 0.000102887 -0 -7.5354e-07)
(-0.000121996 -6.932 -0 0.000122837 -0 -8.40994e-07)
(-0.000145672 -6.95505 -0 0.000146788 -0 -1.11536e-06)
(-0.000168785 -6.97698 -0 0.000170216 -0 -1.4309e-06)
(-0.000189036 -6.99597 -0 0.000190367 -0 -1.33133e-06)
(-0.000211181 -7.01598 -0 0.000212892 -0 -1.71157e-06)
(-0.000236129 -7.03735 -0 0.000238025 -0 -1.89628e-06)
(-0.000262859 -7.05997 -0 0.000264975 -0 -2.11601e-06)
(-0.000292182 -7.08391 -0 0.000294597 -0 -2.41504e-06)
(-0.00032437 -7.10918 -0 0.000327043 -0 -2.67308e-06)
(-0.000360392 -7.13586 -0 0.000363499 -0 -3.10744e-06)
(-0.000399714 -7.16403 -0 0.000403072 -0 -3.35832e-06)
(-0.000443307 -7.19372 -0 0.000447345 -0 -4.03806e-06)
(-0.000492689 -7.22498 -0 0.000496796 -0 -4.10741e-06)
(-0.000546436 -7.25817 -0 0.000551909 -0 -5.47319e-06)
(-0.00061039 -7.29282 -0 0.000615116 -0 -4.72682e-06)
(-0.00067695 -7.33036 -0 0.000685016 -0 -8.06553e-06)
(-0.000766198 -7.36861 -0 0.000770636 -0 -4.43815e-06)
(-0.000847183 -7.41234 -0 0.000860995 -0 -1.38128e-05)
(-0.000987199 -7.45395 -0 0.00098762 -0 -4.21205e-07)
(-0.00107464 -7.50808 -0 0.00110351 -0 -2.88729e-05)
(-0.00134611 -7.5508 -0 0.00132954 -0 1.65704e-05)
(-0.0014183 -7.62679 -0 0.00149015 -0 -7.18457e-05)
(-0.00190306 -7.66404 -0 0.001828 -0 7.50532e-05)
(-0.00245797 -7.78019 -0 0.00264999 -0 -0.000192025)
(-0.00268002 -7.8356 -0 0.00246824 -0 0.000211774)
(-0.00567247 -7.97246 -0 0.00633462 -0 -0.000662149)
(-0.112389 -8.25078 1.84611e-21 0.103002 -0 0.00938729)
(0.0173517 -10.6669 -0 -0.0163434 -0 -0.00100828)
(0.00429222 -7.14003 -0 -0.00428359 -0 -8.6318e-06)
(0.00123952 -6.39415 -0 -0.00124243 -0 2.90263e-06)
(0.000704284 -6.02039 -0 -0.000706315 -0 2.03102e-06)
(0.000484055 -5.78022 -0 -0.00048565 -0 1.59488e-06)
(0.000353464 -5.61359 -0 -0.000354687 -0 1.22286e-06)
(0.000271122 -5.49259 -0 -0.000272109 -0 9.86055e-07)
(0.000216675 -5.40047 -0 -0.000217486 -0 8.11095e-07)
(0.000177763 -5.32824 -0 -0.000178436 -0 6.73673e-07)
(0.000148681 -5.27031 -0 -0.000149252 -0 5.71118e-07)
(0.000126631 -5.22318 -0 -0.000127121 -0 4.90612e-07)
(0.000109171 -5.18401 -0 -0.000109598 -0 4.2764e-07)
(9.54291e-05 -5.15142 -0 -9.58036e-05 -0 3.74504e-07)
(8.40681e-05 -5.12352 -0 -8.44007e-05 -0 3.3267e-07)
(7.45137e-05 -5.10003 -0 -7.48108e-05 -0 2.97052e-07)
(6.6684e-05 -5.07963 -0 -6.69504e-05 -0 2.66372e-07)
(5.99608e-05 -5.06216 -0 -6.02027e-05 -0 2.41897e-07)
(5.4306e-05 -5.04681 -0 -5.45237e-05 -0 2.17635e-07)
(4.92854e-05 -5.0335 -0 -4.94856e-05 -0 2.00158e-07)
(4.50384e-05 -5.02175 -0 -4.52209e-05 -0 1.82519e-07)
(4.12682e-05 -5.01143 -0 -4.14357e-05 -0 1.67552e-07)
(3.80305e-05 -5.00226 -0 -3.81851e-05 -0 1.54603e-07)
(3.51522e-05 -4.99412 -0 -3.52956e-05 -0 1.43348e-07)
(3.25594e-05 -4.98685 -0 -3.26924e-05 -0 1.33028e-07)
(3.01134e-05 -4.98035 -0 -3.02372e-05 -0 1.23789e-07)
(2.801e-05 -4.97458 -0 -2.8128e-05 -0 1.17996e-07)
(2.61412e-05 -4.96937 -0 -2.62497e-05 -0 1.0855e-07)
(2.44054e-05 -4.9647 -0 -2.45065e-05 -0 1.01045e-07)
(2.28228e-05 -4.96048 -0 -2.29173e-05 -0 9.45004e-08)
(2.1392e-05 -4.95669 -0 -2.14808e-05 -0 8.88098e-08)
(2.01733e-05 -4.95324 -0 -2.02566e-05 -0 8.32758e-08)
(1.89264e-05 -4.95011 -0 -1.90041e-05 -0 7.76999e-08)
(1.77934e-05 -4.94729 -0 -1.78668e-05 -0 7.3361e-08)
(1.67022e-05 -4.94472 -0 -1.67716e-05 -0 6.93601e-08)
(1.57145e-05 -4.94242 -0 -1.57806e-05 -0 6.60841e-08)
(1.47449e-05 -4.9403 -0 -1.48063e-05 -0 6.13394e-08)
(1.37827e-05 -4.93841 -0 -1.3838e-05 -0 5.53566e-08)
(1.28105e-05 -4.93668 -0 -1.28613e-05 -0 5.07759e-08)
(1.1774e-05 -4.93516 -0 -1.1819e-05 -0 4.49393e-08)
(1.06733e-05 -4.9338 -0 -1.0711e-05 -0 3.76513e-08)
(9.38756e-06 -4.93262 -0 -9.41665e-06 -0 2.90837e-08)
(7.94864e-06 -4.93162 -0 -7.96895e-06 -0 2.03091e-08)
(6.24532e-06 -4.93081 -0 -6.2531e-06 -0 7.7869e-09)
(4.24053e-06 -4.93019 -0 -4.23183e-06 -0 -8.7e-09)
(1.82683e-06 -4.92979 -0 -1.79938e-06 -0 -2.74566e-08)
(-1.05101e-06 -4.92963 -0 1.10138e-06 -0 -5.03703e-08)
(-4.6777e-06 -4.92974 -0 4.75672e-06 -0 -7.90225e-08)
(-9.02419e-06 -4.93015 -0 9.1415e-06 -0 -1.17305e-07)
(-1.41242e-05 -4.9309 -0 1.42847e-05 -0 -1.6046e-07)
(-2.0343e-05 -4.93202 -0 2.05553e-05 -0 -2.12289e-07)
(-2.78275e-05 -4.93357 -0 2.81036e-05 -0 -2.761e-07)
(-3.69252e-05 -4.9356 -0 3.72832e-05 -0 -3.57964e-07)
(-4.76982e-05 -4.93821 -0 4.81446e-05 -0 -4.46406e-07)
(-6.06914e-05 -4.94142 -0 6.12514e-05 -0 -5.60024e-07)
(-7.58233e-05 -4.94538 -0 7.65153e-05 -0 -6.91984e-07)
(-9.39312e-05 -4.95008 -0 9.47762e-05 -0 -8.45036e-07)
(-0.00011512 -4.95573 -0 0.000116164 -0 -1.04384e-06)
(-0.000140164 -4.96232 -0 0.000141407 -0 -1.24295e-06)
(-0.00016917 -4.97011 -0 0.000170693 -0 -1.52241e-06)
(-0.000203622 -4.97904 -0 0.000205416 -0 -1.79354e-06)
(-0.000243595 -4.98948 -0 0.000245786 -0 -2.19133e-06)
(-0.000290914 -5.00135 -0 0.000293443 -0 -2.52946e-06)
(-0.000347019 -5.01513 -0 0.00035014 -0 -3.12018e-06)
(-0.000401767 -5.02816 -0 0.000405478 -0 -3.71141e-06)
(-0.000450063 -5.03946 -0 0.000453859 -0 -3.79568e-06)
(-0.000502065 -5.05137 -0 0.000506509 -0 -4.44428e-06)
(-0.00056111 -5.064 -0 0.000566029 -0 -4.91944e-06)
(-0.000624492 -5.07734 -0 0.000629961 -0 -5.46817e-06)
(-0.000693724 -5.09141 -0 0.000699831 -0 -6.10744e-06)
(-0.00076987 -5.1062 -0 0.000776621 -0 -6.75084e-06)
(-0.000854409 -5.12175 -0 0.000861966 -0 -7.55723e-06)
(-0.000947531 -5.13811 -0 0.000955846 -0 -8.31478e-06)
(-0.00104928 -5.15523 -0 0.00105872 -0 -9.43979e-06)
(-0.00116643 -5.17322 -0 0.00117657 -0 -1.01402e-05)
(-0.00129031 -5.19211 -0 0.00130231 -0 -1.1993e-05)
(-0.00144346 -5.2118 -0 0.00145556 -0 -1.21015e-05)
(-0.00159282 -5.23281 -0 0.00160874 -0 -1.59217e-05)
(-0.00181058 -5.25423 -0 0.00182406 -0 -1.34785e-05)
(-0.00198159 -5.2781 -0 0.00200496 -0 -2.33646e-05)
(-0.00233312 -5.30103 -0 0.0023445 -0 -1.13781e-05)
(-0.00248962 -5.32951 -0 0.00253103 -0 -4.14102e-05)
(-0.00317622 -5.35268 -0 0.00317014 -0 6.0778e-06)
(-0.00324013 -5.39072 -0 0.00333571 -0 -9.55806e-05)
(-0.00445492 -5.40985 -0 0.00437517 -0 7.97491e-05)
(-0.00552084 -5.46504 -0 0.00576517 -0 -0.000244336)
(-0.00557972 -5.48666 -0 0.00528069 -0 0.000299027)
(-0.0186967 -5.54306 -0 0.0192775 -0 -0.000580817)
(-0.0451048 -5.72478 -3.86627e-21 0.0473787 -0 -0.00227389)
(0.0296451 -11.398 -0 -0.0300585 -0 0.000413368)
(0.00847334 -7.80414 -0 -0.00844883 -0 -2.45124e-05)
(0.00270997 -7.0305 -0 -0.0027095 -0 -4.68167e-07)
(0.00156142 -6.63634 -0 -0.00156194 -0 5.21038e-07)
(0.0010838 -6.38288 -0 -0.00108436 -0 5.55247e-07)
(0.000794746 -6.20629 -0 -0.000795276 -0 5.3044e-07)
(0.000611097 -6.07772 -0 -0.000611595 -0 4.97687e-07)
(0.000489275 -5.9797 -0 -0.000489709 -0 4.3402e-07)
(0.000401875 -5.90273 -0 -0.000402252 -0 3.76578e-07)
(0.000336393 -5.84094 -0 -0.000336724 -0 3.31828e-07)
(0.000286684 -5.79062 -0 -0.000286978 -0 2.9452e-07)
(0.000247284 -5.74876 -0 -0.000247545 -0 2.61216e-07)
(0.000216237 -5.71393 -0 -0.000216471 -0 2.34418e-07)
(0.000190568 -5.68408 -0 -0.000190779 -0 2.11585e-07)
(0.000168972 -5.65895 -0 -0.000169162 -0 1.90432e-07)
(0.000151253 -5.63711 -0 -0.000151426 -0 1.73038e-07)
(0.000136037 -5.61841 -0 -0.000136194 -0 1.57157e-07)
(0.000123239 -5.60197 -0 -0.000123385 -0 1.45937e-07)
(0.000111872 -5.58771 -0 -0.000112006 -0 1.33013e-07)
(0.00010225 -5.57513 -0 -0.000102373 -0 1.22968e-07)
(9.37137e-05 -5.56406 -0 -9.38286e-05 -0 1.1484e-07)
(8.63682e-05 -5.55424 -0 -8.64748e-05 -0 1.06606e-07)
(7.98411e-05 -5.5455 -0 -7.99398e-05 -0 9.87384e-08)
(7.39743e-05 -5.53771 -0 -7.40687e-05 -0 9.43703e-08)
(6.84459e-05 -5.53075 -0 -6.85327e-05 -0 8.67704e-08)
(6.36621e-05 -5.52457 -0 -6.37411e-05 -0 7.90616e-08)
(5.94284e-05 -5.51898 -0 -5.95038e-05 -0 7.54374e-08)
(5.54995e-05 -5.51397 -0 -5.55732e-05 -0 7.37016e-08)
(5.19055e-05 -5.50944 -0 -5.19736e-05 -0 6.81555e-08)
(4.86569e-05 -5.50538 -0 -4.87216e-05 -0 6.46489e-08)
(4.58872e-05 -5.50168 -0 -4.59492e-05 -0 6.19928e-08)
(4.30695e-05 -5.49832 -0 -4.3129e-05 -0 5.94254e-08)
(4.0496e-05 -5.4953 -0 -4.05528e-05 -0 5.68019e-08)
(3.80138e-05 -5.49254 -0 -3.80651e-05 -0 5.12813e-08)
(3.57558e-05 -5.49007 -0 -3.58049e-05 -0 4.91062e-08)
(3.3542e-05 -5.4878 -0 -3.35882e-05 -0 4.6244e-08)
(3.13418e-05 -5.48577 -0 -3.13841e-05 -0 4.23088e-08)
(2.91108e-05 -5.48391 -0 -2.91523e-05 -0 4.14438e-08)
(2.67268e-05 -5.48227 -0 -2.67648e-05 -0 3.79293e-08)
(2.41846e-05 -5.48079 -0 -2.42195e-05 -0 3.49537e-08)
(2.1209e-05 -5.47952 -0 -2.12407e-05 -0 3.17406e-08)
(1.78572e-05 -5.47842 -0 -1.78838e-05 -0 2.66564e-08)
(1.38907e-05 -5.47753 -0 -1.39097e-05 -0 1.89724e-08)
(9.21162e-06 -5.47683 -0 -9.22403e-06 -0 1.24083e-08)
(3.55179e-06 -5.47636 -0 -3.55728e-06 -0 5.49245e-09)
(-3.19969e-06 -5.47612 -0 3.20611e-06 -0 -6.42441e-09)
(-1.16601e-05 -5.47616 -0 1.1673e-05 -0 -1.29209e-08)
(-2.19044e-05 -5.47652 -0 2.1936e-05 -0 -3.15609e-08)
(-3.39493e-05 -5.4772 -0 3.39999e-05 -0 -5.06698e-08)
(-4.85729e-05 -5.47826 -0 4.8644e-05 -0 -7.11499e-08)
(-6.61966e-05 -5.47975 -0 6.62924e-05 -0 -9.58122e-08)
(-8.75889e-05 -5.48173 -0 8.77124e-05 -0 -1.23499e-07)
(-0.000112968 -5.48427 -0 0.000113127 -0 -1.59114e-07)
(-0.000143522 -5.48742 -0 0.000143726 -0 -2.03476e-07)
(-0.00017917 -5.49131 -0 0.000179427 -0 -2.57656e-07)
(-0.000221777 -5.49594 -0 0.000222076 -0 -2.9813e-07)
(-0.000271649 -5.50152 -0 0.000272035 -0 -3.85856e-07)
(-0.000330604 -5.50801 -0 0.000331048 -0 -4.43848e-07)
(-0.000398835 -5.51569 -0 0.000399403 -0 -5.67077e-07)
(-0.000479851 -5.52449 -0 0.000480458 -0 -6.0723e-07)
(-0.000573758 -5.53478 -0 0.000574579 -0 -8.20485e-07)
(-0.000684905 -5.54645 -0 0.000685726 -0 -8.20877e-07)
(-0.000816376 -5.55999 -0 0.00081747 -0 -1.09411e-06)
(-0.000945032 -5.57276 -0 0.000946439 -0 -1.40651e-06)
(-0.00105854 -5.58384 -0 0.00105949 -0 -9.49846e-07)
(-0.00117978 -5.59551 -0 0.00118119 -0 -1.40098e-06)
(-0.00131788 -5.60785 -0 0.00131928 -0 -1.40214e-06)
(-0.00146656 -5.62085 -0 0.00146805 -0 -1.49234e-06)
(-0.00162833 -5.63452 -0 0.00162998 -0 -1.64629e-06)
(-0.00180658 -5.64886 -0 0.00180825 -0 -1.66539e-06)
(-0.00200297 -5.6639 -0 0.00200483 -0 -1.86036e-06)
(-0.00222116 -5.67969 -0 0.00222289 -0 -1.72587e-06)
(-0.00245663 -5.69612 -0 0.00245878 -0 -2.15072e-06)
(-0.00273138 -5.71336 -0 0.00273282 -0 -1.43738e-06)
(-0.00301531 -5.73134 -0 0.00301807 -0 -2.76281e-06)
(-0.00337656 -5.75008 -0 0.00337675 -0 -1.94187e-07)
(-0.00371248 -5.7698 -0 0.00371708 -0 -4.59935e-06)
(-0.00423042 -5.79006 -0 0.00422637 -0 4.0555e-06)
(-0.00460061 -5.812 -0 0.00461149 -0 -1.08792e-05)
(-0.00544119 -5.8336 -0 0.00542304 -0 1.81531e-05)
(-0.00575547 -5.8589 -0 0.00578858 -0 -3.31072e-05)
(-0.00735173 -5.8809 -0 0.00728527 -0 6.6458e-05)
(-0.0074827 -5.91317 -0 0.00759305 -0 -0.000110343)
(-0.0101399 -5.93055 -0 0.00992057 -0 0.000219291)
(-0.0125911 -5.97822 -0 0.0128996 -0 -0.000308509)
(-0.0116773 -5.9866 -0 0.0111047 -0 0.000572659)
(-0.0459916 -6.06394 -0 0.0466064 -0 -0.000614862)
(0.00291754 -5.97984 -0 0.00703485 -0 -0.00995239)
(0.0413786 -11.1249 -0 -0.0413578 -0 -2.07822e-05)
(0.0134296 -7.64857 -0 -0.013366 -0 -6.36327e-05)
(0.00471461 -6.91151 -0 -0.00469816 -0 -1.64484e-05)
(0.00276807 -6.53034 -0 -0.00275947 -0 -8.60188e-06)
(0.00194434 -6.28617 -0 -0.00193834 -0 -6.00517e-06)
(0.00143409 -6.11577 -0 -0.00142973 -0 -4.35586e-06)
(0.00110647 -5.99157 -0 -0.00110318 -0 -3.28899e-06)
(0.00088811 -5.89688 -0 -0.000885485 -0 -2.62505e-06)
(0.000730707 -5.82252 -0 -0.000728552 -0 -2.15508e-06)
(0.000612384 -5.76279 -0 -0.000610587 -0 -1.79658e-06)
(0.000522377 -5.71415 -0 -0.000520849 -0 -1.5277e-06)
(0.00045095 -5.67367 -0 -0.000449635 -0 -1.31451e-06)
(0.000394551 -5.64 -0 -0.000393402 -0 -1.14881e-06)
(0.000347918 -5.61112 -0 -0.000346908 -0 -1.00985e-06)
(0.000308658 -5.58684 -0 -0.000307764 -0 -8.94064e-07)
(0.000276394 -5.5657 -0 -0.000275594 -0 -7.998e-07)
(0.000248689 -5.54762 -0 -0.000247972 -0 -7.17365e-07)
(0.000225357 -5.53172 -0 -0.000224707 -0 -6.50329e-07)
(0.000204654 -5.51793 -0 -0.000204066 -0 -5.88323e-07)
(0.000187093 -5.50577 -0 -0.000186555 -0 -5.37949e-07)
(0.000171526 -5.49506 -0 -0.000171035 -0 -4.91809e-07)
(0.000158104 -5.48557 -0 -0.000157651 -0 -4.52942e-07)
(0.000146182 -5.47712 -0 -0.000145763 -0 -4.18796e-07)
(0.000135481 -5.46959 -0 -0.000135095 -0 -3.86045e-07)
(0.000125424 -5.46285 -0 -0.000125066 -0 -3.57564e-07)
(0.000116681 -5.45688 -0 -0.00011635 -0 -3.30588e-07)
(0.000108936 -5.45148 -0 -0.000108626 -0 -3.09841e-07)
(0.00010176 -5.44663 -0 -0.000101472 -0 -2.87405e-07)
(9.51868e-05 -5.44226 -0 -9.49171e-05 -0 -2.69624e-07)
(8.92433e-05 -5.43833 -0 -8.89914e-05 -0 -2.51847e-07)
(8.41641e-05 -5.43476 -0 -8.39269e-05 -0 -2.37195e-07)
(7.9029e-05 -5.43151 -0 -7.88063e-05 -0 -2.22672e-07)
(7.43215e-05 -5.42858 -0 -7.41135e-05 -0 -2.07999e-07)
(6.97852e-05 -5.42591 -0 -6.95889e-05 -0 -1.96285e-07)
(6.56378e-05 -5.42352 -0 -6.54565e-05 -0 -1.81297e-07)
(6.15696e-05 -5.42132 -0 -6.13999e-05 -0 -1.69718e-07)
(5.75183e-05 -5.41936 -0 -5.73574e-05 -0 -1.60932e-07)
(5.34018e-05 -5.41755 -0 -5.32554e-05 -0 -1.46445e-07)
(4.90018e-05 -5.41596 -0 -4.88679e-05 -0 -1.33837e-07)
(4.42913e-05 -5.41452 -0 -4.41713e-05 -0 -1.1996e-07)
(3.87777e-05 -5.41327 -0 -3.86752e-05 -0 -1.02461e-07)
(3.25429e-05 -5.41219 -0 -3.24605e-05 -0 -8.23803e-08)
(2.51628e-05 -5.41129 -0 -2.51004e-05 -0 -6.24054e-08)
(1.64333e-05 -5.41058 -0 -1.63957e-05 -0 -3.75849e-08)
(5.85073e-06 -5.41007 -0 -5.84763e-06 -0 -3.10054e-09)
(-6.80509e-06 -5.40978 -0 6.77369e-06 -0 3.13941e-08)
(-2.25274e-05 -5.40973 -0 2.24426e-05 -0 8.47138e-08)
(-4.17265e-05 -5.40998 -0 4.15857e-05 -0 1.40823e-07)
(-6.44165e-05 -5.41051 -0 6.42096e-05 -0 2.06827e-07)
(-9.18011e-05 -5.41138 -0 9.1509e-05 -0 2.92138e-07)
(-0.000124838 -5.41263 -0 0.000124443 -0 3.95096e-07)
(-0.000164922 -5.41431 -0 0.000164407 -0 5.15113e-07)
(-0.000212491 -5.4165 -0 0.000211825 -0 6.66323e-07)
(-0.000269705 -5.41921 -0 0.000268868 -0 8.36966e-07)
(-0.000336529 -5.42259 -0 0.000335492 -0 1.0368e-06)
(-0.000416341 -5.4266 -0 0.00041504 -0 1.30106e-06)
(-0.000509752 -5.43145 -0 0.000508195 -0 1.55616e-06)
(-0.000620123 -5.43709 -0 0.000618187 -0 1.9361e-06)
(-0.000747827 -5.44377 -0 0.000745552 -0 2.27454e-06)
(-0.000899355 -5.45141 -0 0.00089652 -0 2.8348e-06)
(-0.00107478 -5.46036 -0 0.00107154 -0 3.24516e-06)
(-0.00128236 -5.47049 -0 0.00127827 -0 4.08614e-06)
(-0.00152718 -5.48224 -0 0.00152255 -0 4.63085e-06)
(-0.00176734 -5.49327 -0 0.00176229 -0 5.05512e-06)
(-0.00197963 -5.50284 -0 0.00197311 -0 6.51461e-06)
(-0.0022044 -5.51293 -0 0.0021977 -0 6.70422e-06)
(-0.00246038 -5.52356 -0 0.00245268 -0 7.69486e-06)
(-0.00273697 -5.53472 -0 0.00272834 -0 8.63005e-06)
(-0.00303684 -5.54642 -0 0.00302731 -0 9.52868e-06)
(-0.00336779 -5.55866 -0 0.00335707 -0 1.0719e-05)
(-0.00372962 -5.57145 -0 0.00371789 -0 1.17349e-05)
(-0.0041345 -5.58486 -0 0.0041211 -0 1.33956e-05)
(-0.00456629 -5.5987 -0 0.00455202 -0 1.42745e-05)
(-0.00507603 -5.61325 -0 0.00505889 -0 1.71318e-05)
(-0.00559131 -5.62821 -0 0.0055744 -0 1.69127e-05)
(-0.00626364 -5.6439 -0 0.00624058 -0 2.30652e-05)
(-0.00686208 -5.66002 -0 0.00684363 -0 1.84444e-05)
(-0.00782991 -5.67687 -0 0.00779532 -0 3.45903e-05)
(-0.00846654 -5.6943 -0 0.00845228 -0 1.42612e-05)
(-0.0100352 -5.71227 -0 0.00997275 -0 6.24577e-05)
(-0.0105451 -5.73132 -0 0.0105574 -0 -1.22453e-05)
(-0.0134332 -5.75003 -0 0.0132905 -0 0.000142613)
(-0.013666 -5.77277 -0 0.0137788 -0 -0.000112755)
(-0.0183171 -5.7863 -0 0.0179533 -0 0.000363749)
(-0.022315 -5.82344 -0 0.0226793 -0 -0.000364284)
(-0.0214656 -5.80898 -0 0.0206938 -0 0.000771863)
(-0.0725902 -5.9383 -0 0.0733387 -0 -0.000748501)
(0.0226366 -5.53054 -0 -0.0197455 -0 -0.00289114)
(0.0534312 -10.9042 -0 -0.0533836 -0 -4.76014e-05)
(0.0188485 -7.51579 -0 -0.0188231 -0 -2.5459e-05)
(0.007195 -6.80878 -0 -0.00718575 -0 -9.25026e-06)
(0.00432291 -6.43581 -0 -0.00431824 -0 -4.67116e-06)
(0.00307772 -6.1977 -0 -0.00307414 -0 -3.57739e-06)
(0.00228584 -6.03121 -0 -0.00228313 -0 -2.70458e-06)
(0.0017707 -5.90967 -0 -0.00176863 -0 -2.07032e-06)
(0.00142527 -5.81699 -0 -0.00142358 -0 -1.69298e-06)
(0.00117496 -5.74418 -0 -0.00117354 -0 -1.42034e-06)
(0.000986073 -5.68564 -0 -0.000984874 -0 -1.19881e-06)
(0.000842027 -5.63797 -0 -0.000840996 -0 -1.03096e-06)
(0.000727541 -5.59828 -0 -0.000726646 -0 -8.94755e-07)
(0.000636955 -5.56527 -0 -0.000636166 -0 -7.8888e-07)
(0.000562027 -5.53693 -0 -0.00056133 -0 -6.97287e-07)
(0.000498901 -5.51314 -0 -0.000498281 -0 -6.20683e-07)
(0.000446937 -5.49238 -0 -0.000446379 -0 -5.58094e-07)
(0.000402309 -5.47467 -0 -0.000401807 -0 -5.01868e-07)
(0.000364688 -5.45906 -0 -0.00036423 -0 -4.57478e-07)
(0.00033132 -5.44553 -0 -0.000330906 -0 -4.1404e-07)
(0.00030297 -5.43361 -0 -0.00030259 -0 -3.80131e-07)
(0.000277858 -5.4231 -0 -0.00027751 -0 -3.47887e-07)
(0.000256155 -5.41379 -0 -0.000255834 -0 -3.21169e-07)
(0.000236885 -5.40549 -0 -0.000236587 -0 -2.9777e-07)
(0.000219617 -5.39811 -0 -0.000219343 -0 -2.73603e-07)
(0.000203427 -5.3915 -0 -0.000203173 -0 -2.54178e-07)
(0.000189278 -5.38564 -0 -0.000189044 -0 -2.34239e-07)
(0.000176751 -5.38035 -0 -0.00017653 -0 -2.21116e-07)
(0.000165161 -5.3756 -0 -0.000164957 -0 -2.04135e-07)
(0.000154526 -5.37131 -0 -0.000154333 -0 -1.92402e-07)
(0.000144904 -5.36745 -0 -0.000144724 -0 -1.79261e-07)
(0.000136663 -5.36395 -0 -0.000136494 -0 -1.6881e-07)
(0.000128388 -5.36076 -0 -0.000128229 -0 -1.58716e-07)
(0.000120772 -5.3579 -0 -0.000120624 -0 -1.47438e-07)
(0.000113435 -5.35528 -0 -0.000113295 -0 -1.40189e-07)
(0.0001067 -5.35293 -0 -0.000106572 -0 -1.27368e-07)
(0.000100096 -5.35077 -0 -9.99771e-05 -0 -1.19413e-07)
(9.35122e-05 -5.34884 -0 -9.33969e-05 -0 -1.15355e-07)
(8.68131e-05 -5.34707 -0 -8.67099e-05 -0 -1.03148e-07)
(7.96556e-05 -5.3455 -0 -7.95613e-05 -0 -9.43139e-08)
(7.19752e-05 -5.34407 -0 -7.18908e-05 -0 -8.44406e-08)
(6.29947e-05 -5.34283 -0 -6.29236e-05 -0 -7.10822e-08)
(5.28052e-05 -5.34174 -0 -5.27496e-05 -0 -5.55822e-08)
(4.07465e-05 -5.34083 -0 -4.07033e-05 -0 -4.31958e-08)
(2.64633e-05 -5.34009 -0 -2.64364e-05 -0 -2.68816e-08)
(9.13403e-06 -5.33954 -0 -9.13345e-06 -0 -5.78363e-10)
(-1.16799e-05 -5.33919 -0 1.16577e-05 -0 2.22349e-08)
(-3.7277e-05 -5.33905 -0 3.72181e-05 -0 5.89611e-08)
(-6.87035e-05 -5.33919 -0 6.86016e-05 -0 1.01865e-07)
(-0.000106124 -5.33957 -0 0.000105976 -0 1.47897e-07)
(-0.000151047 -5.34026 -0 0.000150843 -0 2.03814e-07)
(-0.000205221 -5.34129 -0 0.000204939 -0 2.81247e-07)
(-0.000270922 -5.34269 -0 0.00027056 -0 3.62326e-07)
(-0.000348926 -5.34455 -0 0.000348453 -0 4.72408e-07)
(-0.000442657 -5.34686 -0 0.000442069 -0 5.87262e-07)
(-0.000552222 -5.34976 -0 0.000551499 -0 7.22827e-07)
(-0.00068296 -5.3532 -0 0.00068204 -0 9.19995e-07)
(-0.000835965 -5.35739 -0 0.000834894 -0 1.0708e-06)
(-0.00101668 -5.36225 -0 0.00101532 -0 1.36279e-06)
(-0.00122568 -5.36802 -0 0.00122413 -0 1.5505e-06)
(-0.00147347 -5.37462 -0 0.00147147 -0 1.99953e-06)
(-0.00176007 -5.38234 -0 0.0017579 -0 2.17061e-06)
(-0.002099 -5.39107 -0 0.00209611 -0 2.8825e-06)
(-0.00249735 -5.40118 -0 0.0024943 -0 3.05194e-06)
(-0.00288871 -5.41064 -0 0.00288565 -0 3.06429e-06)
(-0.00323579 -5.41883 -0 0.00323113 -0 4.65619e-06)
(-0.00360042 -5.42748 -0 0.00359609 -0 4.32678e-06)
(-0.00401448 -5.43656 -0 0.00400942 -0 5.06375e-06)
(-0.00446351 -5.44605 -0 0.00445782 -0 5.68856e-06)
(-0.00494877 -5.45597 -0 0.00494259 -0 6.17935e-06)
(-0.00548507 -5.46631 -0 0.00547807 -0 6.99951e-06)
(-0.00606704 -5.47707 -0 0.0060596 -0 7.44499e-06)
(-0.00672189 -5.48833 -0 0.00671317 -0 8.71701e-06)
(-0.00741282 -5.49983 -0 0.00740412 -0 8.70798e-06)
(-0.00823626 -5.51196 -0 0.00822488 -0 1.13807e-05)
(-0.00905248 -5.52421 -0 0.00904307 -0 9.41467e-06)
(-0.0101393 -5.53718 -0 0.010123 -0 1.6362e-05)
(-0.0110719 -5.55006 -0 0.0110644 -0 7.51782e-06)
(-0.0126359 -5.56395 -0 0.0126078 -0 2.80232e-05)
(-0.0136006 -5.57727 -0 0.0136047 -0 -4.10146e-06)