/*--------------------------------*- C++ -*----------------------------------*\
| =========                 |                                                 |
| \\      /  F ield         | OpenFOAM: The Open Source CFD Toolbox           |
|  \\    /   O peration     | Version:  2306                                  |
|   \\  /    A nd           | Website:  www.openfoam.com                      |
|    \\/     M anipulation  |                                                 |
\*---------------------------------------------------------------------------*/
FoamFile
{
    version     2.0;
    format      ascii;
    arch        "LSB;label=32;scalar=64";
    class       volVectorField;
    location    "2000";
    object      U;
}
// * * * * * * * * * * * * * * * * * * * * * * * * * * * * * * * * * * * * * //

dimensions      [0 1 -1 0 0 0 0];

internalField   nonuniform List<vector> 
20540
(
(40.4283 0.000810616 0)
(29.8091 0.00294724 0)
(40.4535 0.0025991 0)
(29.8322 0.00876351 0)
(40.4866 0.00475764 0)
(29.8624 0.0138652 0)
(40.5291 0.00736126 0)
(29.9015 0.0184619 0)
(40.5831 0.010499 0)
(29.9514 0.0229868 0)
(40.651 0.0142766 0)
(30.0144 0.0276368 0)
(40.7355 0.0188187 0)
(30.0932 0.0324756 0)
(40.8396 0.0242717 0)
(30.191 0.0375524 0)
(40.967 0.0308059 0)
(30.3117 0.0429271 0)
(41.1216 0.0386178 0)
(30.46 0.0486674 0)
(41.3082 0.047931 0)
(30.6413 0.0548502 0)
(41.5318 0.0589957 0)
(30.8623 0.061571 0)
(41.7979 0.0720851 0)
(31.131 0.0689568 0)
(42.1122 0.0874873 0)
(31.4569 0.0771828 0)
(42.4799 0.10549 0)
(31.8514 0.0864965 0)
(42.9055 0.126354 0)
(32.3282 0.0972484 0)
(43.391 0.150271 0)
(32.9031 0.109931 0)
(43.9343 0.177301 0)
(33.595 0.125221 0)
(44.5257 0.207277 0)
(34.4248 0.144016 0)
(45.1433 0.239692 0)
(35.4153 0.167432 0)
(45.7463 0.273549 0)
(36.5889 0.196713 0)
(46.2698 0.307121 0)
(37.9643 0.232952 0)
(46.6314 0.337493 0)
(39.5478 0.276492 0)
(46.761 0.360219 0)
(41.3175 0.325891 0)
(46.6391 0.369778 0)
(43.201 0.377274 0)
(46.3019 0.360947 0)
(45.0215 0.42214 0)
(45.8301 0.330691 0)
(46.4073 0.441367 0)
(45.3435 0.280461 0)
(47.003 0.4148 0)
(44.9524 0.215879 0)
(47.0166 0.347942 0)
(44.7065 0.143785 0)
(46.8269 0.250567 0)
(44.6038 0.0735595 0)
(46.6728 0.142622 0)
(44.572 0.0074022 0)
(46.6052 0.0388617 0)
(44.5741 -0.0579992 0)
(46.6109 -0.0641154 0)
(44.612 -0.124422 0)
(46.6908 -0.167946 0)
(44.724 -0.194316 0)
(46.8552 -0.274208 0)
(44.9756 -0.265354 0)
(47.0412 -0.368091 0)
(45.3664 -0.329089 0)
(47.0137 -0.432168 0)
(45.8465 -0.378526 0)
(46.3885 -0.456293 0)
(46.3071 -0.408054 0)
(44.9558 -0.434455 0)
(46.6262 -0.416017 0)
(43.0842 -0.387101 0)
(46.7156 -0.405115 0)
(41.1482 -0.333372 0)
(46.5334 -0.380449 0)
(39.3236 -0.281757 0)
(46.1035 -0.347657 0)
(37.6829 -0.236273 0)
(45.5054 -0.311332 0)
(36.2492 -0.198474 0)
(44.8287 -0.274486 0)
(35.0182 -0.168062 0)
(44.1408 -0.238957 0)
(33.9727 -0.143913 0)
(43.4834 -0.205852 0)
(33.0911 -0.124723 0)
(42.8786 -0.175774 0)
(32.3514 -0.109303 0)
(42.3362 -0.148955 0)
(31.7329 -0.0966881 0)
(41.8583 -0.12538 0)
(31.2168 -0.0861369 0)
(41.4429 -0.104883 0)
(30.7871 -0.0771054 0)
(41.0855 -0.0872148 0)
(30.4298 -0.0692036 0)
(40.7807 -0.0720867 0)
(30.1333 -0.0621562 0)
(40.5226 -0.0592036 0)
(29.8876 -0.05577 0)
(40.3054 -0.0482802 0)
(29.6845 -0.0499082 0)
(40.1239 -0.0390511 0)
(29.517 -0.044472 0)
(39.9729 -0.0312758 0)
(29.3794 -0.0393866 0)
(39.8482 -0.0247409 0)
(29.2668 -0.0345906 0)
(39.7459 -0.0192592 0)
(29.1751 -0.0300292 0)
(39.6625 -0.0146682 0)
(29.1008 -0.0256523 0)
(39.5952 -0.0108283 0)
(29.0411 -0.0214186 0)
(39.5413 -0.00762022 0)
(28.9936 -0.0172711 0)
(39.4988 -0.00494236 0)
(28.9562 -0.013025 0)
(39.4657 -0.00270874 0)
(28.9272 -0.00826787 0)
(39.4404 -0.00084674 0)
(28.905 -0.00278953 0)
(9.26218 0.00465429 0)
(6.2677 0.000367631 0)
(5.64506 8.77169e-05 0)
(5.33191 4.85175e-05 0)
(5.12946 3.24499e-05 0)
(4.98908 2.34158e-05 0)
(4.88708 1.78332e-05 0)
(4.80928 1.4162e-05 0)
(4.7482 1.157e-05 0)
(4.69921 9.6471e-06 0)
(4.65931 8.19772e-06 0)
(4.62613 7.04991e-06 0)
(4.59851 6.15527e-06 0)
(4.57487 5.41325e-06 0)
(4.55494 4.78968e-06 0)
(4.53763 4.2828e-06 0)
(4.5228 3.84442e-06 0)
(4.50977 3.4837e-06 0)
(4.49847 3.15508e-06 0)
(4.48849 2.88285e-06 0)
(4.47972 2.64095e-06 0)
(4.47193 2.43293e-06 0)
(4.46501 2.24732e-06 0)
(4.45883 2.08182e-06 0)
(4.45331 1.92183e-06 0)
(4.44841 1.78156e-06 0)
(4.44397 1.66594e-06 0)
(4.44 1.55763e-06 0)
(4.43641 1.45521e-06 0)
(4.43319 1.36408e-06 0)
(4.43026 1.28784e-06 0)
(4.42759 1.20893e-06 0)
(4.4252 1.13635e-06 0)
(4.42301 1.06392e-06 0)
(4.42106 9.99982e-07 0)
(4.41926 9.39503e-07 0)
(4.41766 8.81009e-07 0)
(4.4162 8.21732e-07 0)
(4.41491 7.57776e-07 0)
(4.41376 6.92563e-07 0)
(4.41278 6.15684e-07 0)
(4.41196 5.29039e-07 0)
(4.4113 4.28242e-07 0)
(4.41082 3.14061e-07 0)
(4.41055 1.75662e-07 0)
(4.41048 9.47547e-09 0)
(4.41067 -1.98031e-07 0)
(4.41114 -4.4331e-07 0)
(4.41192 -7.29696e-07 0)
(4.41305 -1.08393e-06 0)
(4.41459 -1.50646e-06 0)
(4.41658 -2.01355e-06 0)
(4.41912 -2.62767e-06 0)
(4.42223 -3.36036e-06 0)
(4.42605 -4.2163e-06 0)
(4.43058 -5.22953e-06 0)
(4.43601 -6.42649e-06 0)
(4.44235 -7.84486e-06 0)
(4.44983 -9.49062e-06 0)
(4.45842 -1.14174e-05 0)
(4.46847 -1.37282e-05 0)
(4.4799 -1.63632e-05 0)
(4.49319 -1.96149e-05 0)
(4.50582 -2.28473e-05 0)
(4.51675 -2.54203e-05 0)
(4.52827 -2.8595e-05 0)
(4.54056 -3.19762e-05 0)
(4.55358 -3.56056e-05 0)
(4.56734 -3.96372e-05 0)
(4.58186 -4.39929e-05 0)
(4.59718 -4.90116e-05 0)
(4.61336 -5.42512e-05 0)
(4.63039 -6.04406e-05 0)
(4.64834 -6.6829e-05 0)
(4.66736 -7.49058e-05 0)
(4.68724 -8.24931e-05 0)
(4.70873 -9.385e-05 0)
(4.73067 -0.000102385 0)
(4.75566 -0.000120414 0)
(4.77956 -0.000127931 0)
(4.81044 -0.000161294 0)
(4.83503 -0.000162969 0)
(4.87845 -0.000235963 0)
(4.89981 -0.000200152 0)
(4.96696 -0.000452576 0)
(4.99811 -0.000271485 0)
(5.08365 -0.000751966 0)
(5.19137 -0.0312564 0)
(16.3931 0.00811688 0)
(12.2244 0.00168569 0)
(11.2324 0.000465619 0)
(10.7237 0.000267125 0)
(10.3895 0.000184413 0)
(10.1558 0.000135406 0)
(9.98507 0.00010436 0)
(9.85425 8.36989e-05 0)
(9.75124 6.88719e-05 0)
(9.66839 5.77532e-05 0)
(9.60078 4.92916e-05 0)
(9.54447 4.25706e-05 0)
(9.49752 3.72677e-05 0)
(9.45729 3.28723e-05 0)
(9.42334 2.91665e-05 0)
(9.39384 2.61265e-05 0)
(9.36852 2.3512e-05 0)
(9.34629 2.13071e-05 0)
(9.32697 1.93496e-05 0)
(9.30992 1.76909e-05 0)
(9.29492 1.62165e-05 0)
(9.2816 1.49511e-05 0)
(9.26975 1.38249e-05 0)
(9.25917 1.2807e-05 0)
(9.24972 1.18455e-05 0)
(9.24131 1.10246e-05 0)
(9.23371 1.02892e-05 0)
(9.2269 9.60597e-06 0)
(9.22075 8.9843e-06 0)
(9.21522 8.42259e-06 0)
(9.21019 7.94382e-06 0)
(9.20562 7.45106e-06 0)
(9.20151 7.00579e-06 0)
(9.19776 6.57754e-06 0)
(9.1944 6.19164e-06 0)
(9.19132 5.81148e-06 0)
(9.18857 5.43373e-06 0)
(9.18606 5.05395e-06 0)
(9.18386 4.64894e-06 0)
(9.1819 4.21999e-06 0)
(9.18022 3.71894e-06 0)
(9.17881 3.16309e-06 0)
(9.1777 2.50335e-06 0)
(9.17689 1.72689e-06 0)
(9.17644 7.96393e-07 0)
(9.17636 -3.13947e-07 0)
(9.1767 -1.71827e-06 0)
(9.17756 -3.38744e-06 0)
(9.17896 -5.34348e-06 0)
(9.18097 -7.73627e-06 0)
(9.1837 -1.0613e-05 0)
(9.18722 -1.41171e-05 0)
(9.19169 -1.8252e-05 0)
(9.19718 -2.32501e-05 0)
(9.2039 -2.90603e-05 0)
(9.21188 -3.60129e-05 0)
(9.22144 -4.41623e-05 0)
(9.23259 -5.37485e-05 0)
(9.24573 -6.49102e-05 0)
(9.26083 -7.80819e-05 0)
(9.27847 -9.3479e-05 0)
(9.29855 -0.000111502 0)
(9.32186 -0.000133183 0)
(9.34401 -0.000154352 0)
(9.36318 -0.000172391 0)
(9.38336 -0.000192696 0)
(9.40488 -0.000215269 0)
(9.42766 -0.000239459 0)
(9.45174 -0.000266025 0)
(9.47714 -0.000295085 0)
(9.50393 -0.0003277 0)
(9.53217 -0.000363069 0)
(9.56194 -0.000402613 0)
(9.59321 -0.000446628 0)
(9.62642 -0.000495807 0)
(9.66097 -0.000551735 0)
(9.69848 -0.00061425 0)
(9.73648 -0.000689193 0)
(9.78012 -0.000770949 0)
(9.82122 -0.000879361 0)
(9.87518 -0.00098842 0)
(9.91711 -0.0011736 0)
(9.99238 -0.00134212 0)
(10.0289 -0.00158267 0)
(10.1424 -0.0024024 0)
(10.1982 -0.0020106 0)
(10.3187 -0.0063165 0)
(10.7103 -0.0585226 0)
(20.7843 0.0132854 0)
(16.487 0.0035245 0)
(15.3134 0.00106408 0)
(14.6999 0.000620301 0)
(14.2904 0.000433188 0)
(14.0021 0.000319998 0)
(13.7906 0.000247609 0)
(13.6281 0.000199199 0)
(13.4998 0.000164282 0)
(13.3966 0.000137994 0)
(13.3122 0.000117942 0)
(13.2419 0.000101978 0)
(13.1832 8.93606e-05 0)
(13.1329 7.88886e-05 0)
(13.0904 7.00463e-05 0)
(13.0535 6.27836e-05 0)
(13.0218 5.6528e-05 0)
(12.9939 5.12594e-05 0)
(12.9697 4.65666e-05 0)
(12.9484 4.25927e-05 0)
(12.9295 3.90595e-05 0)
(12.9128 3.60207e-05 0)
(12.898 3.33152e-05 0)
(12.8847 3.08771e-05 0)
(12.8728 2.857e-05 0)
(12.8623 2.65841e-05 0)
(12.8527 2.48222e-05 0)
(12.8442 2.31853e-05 0)
(12.8364 2.16876e-05 0)
(12.8295 2.03347e-05 0)
(12.8232 1.91825e-05 0)
(12.8174 1.80019e-05 0)
(12.8123 1.69285e-05 0)
(12.8076 1.58911e-05 0)
(12.8033 1.4954e-05 0)
(12.7994 1.40336e-05 0)
(12.796 1.31192e-05 0)
(12.7928 1.21971e-05 0)
(12.7901 1.12106e-05 0)
(12.7876 1.01636e-05 0)
(12.7855 8.93889e-06 0)
(12.7838 7.56761e-06 0)
(12.7824 5.94228e-06 0)
(12.7814 4.03093e-06 0)
(12.7809 1.72939e-06 0)
(12.7809 -1.01727e-06 0)
(12.7814 -4.475e-06 0)
(12.7825 -8.62524e-06 0)
(12.7844 -1.34902e-05 0)
(12.7871 -1.94247e-05 0)
(12.7907 -2.65646e-05 0)
(12.7954 -3.52406e-05 0)
(12.8013 -4.55146e-05 0)
(12.8085 -5.79034e-05 0)
(12.8173 -7.233e-05 0)
(12.8278 -8.95635e-05 0)
(12.8403 -0.000109766 0)
(12.8549 -0.000133575 0)
(12.8721 -0.000161211 0)
(12.8919 -0.00019388 0)
(12.915 -0.000231968 0)
(12.9413 -0.00027668 0)
(12.9718 -0.000330076 0)
(13.0008 -0.000382215 0)
(13.0259 -0.000427127 0)
(13.0523 -0.000476787 0)
(13.0805 -0.000532469 0)
(13.1103 -0.000592253 0)
(13.1418 -0.000657611 0)
(13.175 -0.000729247 0)
(13.21 -0.000809023 0)
(13.2469 -0.000896314 0)
(13.2859 -0.000992539 0)
(13.3267 -0.00110151 0)
(13.3702 -0.00121976 0)
(13.4152 -0.00135986 0)
(13.4644 -0.00150638 0)
(13.5137 -0.00169872 0)
(13.5711 -0.0018803 0)
(13.624 -0.0021706 0)
(13.6952 -0.00238843 0)
(13.7486 -0.00290053 0)
(13.8471 -0.00319966 0)
(13.8946 -0.00390817 0)
(14.038 -0.00562781 0)
(14.1141 -0.00454028 0)
(14.2439 -0.0179569 0)
(14.8264 -0.0722726 0)
(23.54 0.0178174 0)
(19.4736 0.00569514 0)
(18.2114 0.0018496 0)
(17.5352 0.00109308 0)
(17.0765 0.000770066 0)
(16.751 0.000571245 0)
(16.5114 0.000443142 0)
(16.3267 0.000357181 0)
(16.1808 0.000294957 0)
(16.0631 0.000247992 0)
(15.9669 0.000212114 0)
(15.8867 0.000183519 0)
(15.8197 0.000160887 0)
(15.7622 0.000142099 0)
(15.7137 0.000126224 0)
(15.6715 0.000113171 0)
(15.6352 0.000101927 0)
(15.6033 9.24484e-05 0)
(15.5756 8.40092e-05 0)
(15.5512 7.68539e-05 0)
(15.5296 7.04944e-05 0)
(15.5105 6.50174e-05 0)
(15.4935 6.01425e-05 0)
(15.4783 5.57533e-05 0)
(15.4647 5.16062e-05 0)
(15.4526 4.80245e-05 0)
(15.4417 4.48466e-05 0)
(15.4319 4.18963e-05 0)
(15.423 3.91946e-05 0)
(15.415 3.67529e-05 0)
(15.4078 3.46709e-05 0)
(15.4012 3.25459e-05 0)
(15.3953 3.06084e-05 0)
(15.3899 2.87367e-05 0)
(15.385 2.704e-05 0)
(15.3806 2.53729e-05 0)
(15.3766 2.37137e-05 0)
(15.373 2.20374e-05 0)
(15.3698 2.02431e-05 0)
(15.367 1.83324e-05 0)
(15.3646 1.60963e-05 0)
(15.3626 1.35835e-05 0)
(15.361 1.06051e-05 0)
(15.3599 7.09485e-06 0)
(15.3594 2.85785e-06 0)
(15.3594 -2.20179e-06 0)
(15.36 -8.54423e-06 0)
(15.3614 -1.62077e-05 0)
(15.3636 -2.52098e-05 0)
(15.3668 -3.61512e-05 0)
(15.3711 -4.93307e-05 0)
(15.3766 -6.53367e-05 0)
(15.3835 -8.43037e-05 0)
(15.392 -0.000107157 0)
(15.4023 -0.000133796 0)
(15.4147 -0.000165611 0)
(15.4294 -0.000202895 0)
(15.4466 -0.000246857 0)
(15.4668 -0.000297848 0)
(15.49 -0.000358166 0)
(15.5171 -0.000428364 0)
(15.5479 -0.000510922 0)
(15.5837 -0.000609187 0)
(15.6177 -0.000705315 0)
(15.6471 -0.000788605 0)
(15.6781 -0.000879607 0)
(15.711 -0.000982083 0)
(15.7459 -0.00109237 0)
(15.7828 -0.00121262 0)
(15.8217 -0.00134468 0)
(15.8627 -0.00149089 0)
(15.9058 -0.00165202 0)
(15.9514 -0.00182785 0)
(15.999 -0.00202946 0)
(16.0499 -0.00224372 0)
(16.1022 -0.00250488 0)
(16.1599 -0.00276575 0)
(16.2168 -0.00312916 0)
(16.2841 -0.00344083 0)
(16.3448 -0.00400009 0)
(16.4283 -0.00434856 0)
(16.489 -0.00533813 0)
(16.6029 -0.00578507 0)
(16.6579 -0.00717987 0)
(16.8197 -0.0100048 0)
(16.905 -0.00810159 0)
(17.0552 -0.0332993 0)
(17.6159 -0.0666476 0)
(25.4713 0.0221164 0)
(21.7877 0.00822345 0)
(20.4966 0.00286067 0)
(19.782 0.0017168 0)
(19.2878 0.00122043 0)
(18.9338 0.000909198 0)
(18.6719 0.000707021 0)
(18.4696 0.000570861 0)
(18.3092 0.000471952 0)
(18.1798 0.00039712 0)
(18.0739 0.000339871 0)
(17.9855 0.000294205 0)
(17.9116 0.000258013 0)
(17.8482 0.000227966 0)
(17.7946 0.000202568 0)
(17.748 0.000181661 0)
(17.708 0.000163651 0)
(17.6728 0.00014846 0)
(17.6422 0.00013494 0)
(17.6151 0.000123464 0)
(17.5913 0.000113269 0)
(17.5702 0.000104477 0)
(17.5513 9.66539e-05 0)
(17.5345 8.96181e-05 0)
(17.5195 8.29814e-05 0)
(17.5061 7.72291e-05 0)
(17.494 7.21257e-05 0)
(17.4831 6.73922e-05 0)
(17.4733 6.30535e-05 0)
(17.4645 5.9131e-05 0)
(17.4565 5.57816e-05 0)
(17.4492 5.23779e-05 0)
(17.4426 4.92659e-05 0)
(17.4366 4.62608e-05 0)
(17.4312 4.35271e-05 0)
(17.4263 4.08409e-05 0)
(17.4219 3.81643e-05 0)
(17.4179 3.54555e-05 0)
(17.4144 3.25556e-05 0)
(17.4112 2.94593e-05 0)
(17.4086 2.58358e-05 0)
(17.4063 2.17509e-05 0)
(17.4046 1.6909e-05 0)
(17.4034 1.11928e-05 0)
(17.4028 4.28135e-06 0)
(17.4028 -3.98604e-06 0)
(17.4035 -1.42906e-05 0)
(17.4051 -2.68129e-05 0)
(17.4076 -4.15763e-05 0)
(17.4112 -5.94494e-05 0)
(17.416 -8.09926e-05 0)
(17.4221 -0.000107148 0)
(17.4299 -0.000138157 0)
(17.4394 -0.000175494 0)
(17.451 -0.000219057 0)
(17.4648 -0.000271066 0)
(17.4812 -0.00033201 0)
(17.5005 -0.000403886 0)
(17.5231 -0.000487216 0)
(17.5491 -0.000585824 0)
(17.5794 -0.000700439 0)
(17.6139 -0.000835381 0)
(17.6538 -0.000995551 0)
(17.6918 -0.00115253 0)
(17.7247 -0.00128916 0)
(17.7592 -0.00143706 0)
(17.796 -0.00160394 0)
(17.8349 -0.001784 0)
(17.8761 -0.00197985 0)
(17.9194 -0.00219533 0)
(17.9651 -0.0024326 0)
(18.0131 -0.00269566 0)
(18.0638 -0.00298016 0)
(18.1167 -0.00330973 0)
(18.1733 -0.00365384 0)
(18.2312 -0.00408284 0)
(18.2953 -0.00449574 0)
(18.358 -0.00509748 0)
(18.4328 -0.00557666 0)
(18.499 -0.00651078 0)
(18.5915 -0.00702062 0)
(18.6575 -0.00865862 0)
(18.782 -0.00929036 0)
(18.8421 -0.0116225 0)
(19.0171 -0.0157152 0)
(19.1008 -0.0133461 0)
(19.2925 -0.0498935 0)
(19.6905 -0.0651781 0)
(26.9317 0.0262012 0)
(23.6947 0.0110506 0)
(22.4231 0.00410973 0)
(21.69 0.00251254 0)
(21.1708 0.00180474 0)
(20.7945 0.00135134 0)
(20.5143 0.00105382 0)
(20.297 0.000852531 0)
(20.1243 0.000705728 0)
(19.9847 0.000594354 0)
(19.8703 0.000509003 0)
(19.7747 0.000440853 0)
(19.6947 0.000386764 0)
(19.6261 0.000341855 0)
(19.568 0.000303874 0)
(19.5175 0.000272577 0)
(19.4741 0.000245614 0)
(19.436 0.000222858 0)
(19.4027 0.000202613 0)
(19.3734 0.000185409 0)
(19.3475 0.000170134 0)
(19.3246 0.00015694 0)
(19.3041 0.000145204 0)
(19.2859 0.000134662 0)
(19.2695 0.000124736 0)
(19.2549 0.0001161 0)
(19.2418 0.000108441 0)
(19.23 0.000101344 0)
(19.2193 9.48318e-05 0)
(19.2097 8.8942e-05 0)
(19.201 8.3905e-05 0)
(19.193 7.88108e-05 0)
(19.1858 7.41399e-05 0)
(19.1793 6.96311e-05 0)
(19.1734 6.55161e-05 0)
(19.1681 6.1474e-05 0)
(19.1633 5.74423e-05 0)
(19.1589 5.33569e-05 0)
(19.1551 4.89842e-05 0)
(19.1517 4.43057e-05 0)
(19.1488 3.88333e-05 0)
(19.1463 3.26472e-05 0)
(19.1445 2.53161e-05 0)
(19.1431 1.665e-05 0)
(19.1424 6.16113e-06 0)
(19.1424 -6.4167e-06 0)
(19.1432 -2.19959e-05 0)
(19.1449 -4.10035e-05 0)
(19.1476 -6.35243e-05 0)
(19.1515 -9.06923e-05 0)
(19.1567 -0.000123433 0)
(19.1634 -0.000163173 0)
(19.1719 -0.000210311 0)
(19.1822 -0.000267029 0)
(19.1949 -0.000333257 0)
(19.2099 -0.00041229 0)
(19.2278 -0.000504896 0)
(19.2487 -0.000614128 0)
(19.2733 -0.000740716 0)
(19.3016 -0.000890518 0)
(19.3345 -0.00106447 0)
(19.3721 -0.0012694 0)
(19.4155 -0.00151198 0)
(19.4567 -0.00175004 0)
(19.4924 -0.00195812 0)
(19.53 -0.00218166 0)
(19.5699 -0.00243384 0)
(19.6121 -0.00270669 0)
(19.6567 -0.00300279 0)
(19.7036 -0.00332907 0)
(19.7531 -0.00368644 0)
(19.8049 -0.00408462 0)
(19.8599 -0.0045118 0)
(19.9168 -0.00501085 0)
(19.978 -0.00552387 0)
(20.0402 -0.00617523 0)
(20.1093 -0.0067831 0)
(20.1764 -0.00770016 0)
(20.2569 -0.00838951 0)
(20.3274 -0.00981548 0)
(20.4264 -0.0105256 0)
(20.4964 -0.012989 0)
(20.628 -0.0138544 0)
(20.6916 -0.017415 0)
(20.8769 -0.0227739 0)
(20.9506 -0.0209978 0)
(21.1963 -0.0654889 0)
(21.3916 -0.075614 0)
(28.0974 0.0300059 0)
(25.3237 0.0141123 0)
(24.1135 0.0055984 0)
(23.3806 0.00349922 0)
(22.8462 0.00254456 0)
(22.4529 0.00191722 0)
(22.1577 0.00150034 0)
(21.9276 0.00121659 0)
(21.7441 0.00100867 0)
(21.5953 0.000850394 0)
(21.4732 0.000728841 0)
(21.3711 0.000631662 0)
(21.2856 0.000554406 0)
(21.2122 0.000490246 0)
(21.1499 0.000435952 0)
(21.0958 0.000391162 0)
(21.0493 0.000352566 0)
(21.0083 0.000319974 0)
(20.9727 0.000290985 0)
(20.9412 0.000266324 0)
(20.9134 0.00024444 0)
(20.8887 0.000225508 0)
(20.8668 0.000208668 0)
(20.8472 0.000193561 0)
(20.8296 0.000179366 0)
(20.8139 0.000166965 0)
(20.7997 0.000155974 0)
(20.787 0.000145802 0)
(20.7755 0.000136453 0)
(20.7652 0.000127995 0)
(20.7558 0.00012075 0)
(20.7472 0.00011346 0)
(20.7395 0.000106757 0)
(20.7324 0.000100288 0)
(20.7261 9.43664e-05 0)
(20.7203 8.85536e-05 0)
(20.7151 8.27514e-05 0)
(20.7104 7.68662e-05 0)
(20.7063 7.05709e-05 0)
(20.7026 6.38253e-05 0)
(20.6994 5.59428e-05 0)
(20.6968 4.70115e-05 0)
(20.6947 3.64308e-05 0)
(20.6933 2.39127e-05 0)
(20.6925 8.75499e-06 0)
(20.6925 -9.47281e-06 0)
(20.6933 -3.19216e-05 0)
(20.6951 -5.93553e-05 0)
(20.698 -9.20403e-05 0)
(20.7021 -0.000131382 0)
(20.7076 -0.00017874 0)
(20.7148 -0.000236207 0)
(20.7238 -0.000304397 0)
(20.7348 -0.000386395 0)
(20.7483 -0.000482207 0)
(20.7643 -0.000596482 0)
(20.7835 -0.000730377 0)
(20.8058 -0.000888311 0)
(20.8321 -0.00107128 0)
(20.8622 -0.00128776 0)
(20.8974 -0.00153894 0)
(20.9375 -0.00183492 0)
(20.9838 -0.00218433 0)
(21.0277 -0.00252755 0)
(21.0657 -0.00282875 0)
(21.1057 -0.00315031 0)
(21.1482 -0.00351245 0)
(21.1931 -0.00390525 0)
(21.2405 -0.00433068 0)
(21.2903 -0.00480006 0)
(21.3429 -0.00531152 0)
(21.3979 -0.00588372 0)
(21.4561 -0.00649315 0)
(21.5163 -0.00720996 0)
(21.5811 -0.00793701 0)
(21.6467 -0.00887338 0)
(21.7197 -0.00972579 0)
(21.7901 -0.0110445 0)
(21.8749 -0.0119946 0)
(21.9486 -0.0140388 0)
(22.0522 -0.0150002 0)
(22.1251 -0.0184737 0)
(22.2612 -0.0196278 0)
(22.3271 -0.024774 0)
(22.5203 -0.0311969 0)
(22.5799 -0.0316944 0)
(22.876 -0.0794236 0)
(22.908 -0.0968687 0)
(29.0668 0.0334285 0)
(26.7462 0.0173437 0)
(25.6328 0.00731828 0)
(24.9191 0.00469389 0)
(24.3797 0.00346385 0)
(23.9749 0.00263012 0)
(23.6679 0.00206725 0)
(23.4269 0.00168112 0)
(23.2339 0.00139654 0)
(23.077 0.00117899 0)
(22.9478 0.00101145 0)
(22.8397 0.000877288 0)
(22.7489 0.00077042 0)
(22.671 0.000681621 0)
(22.6048 0.000606422 0)
(22.5473 0.000544306 0)
(22.4977 0.000490763 0)
(22.4542 0.000445521 0)
(22.4161 0.000405284 0)
(22.3826 0.000371015 0)
(22.353 0.000340625 0)
(22.3266 0.000314285 0)
(22.3032 0.000290858 0)
(22.2822 0.000269866 0)
(22.2635 0.000250185 0)
(22.2467 0.000232921 0)
(22.2316 0.000217628 0)
(22.218 0.000203493 0)
(22.2057 0.000190483 0)
(22.1946 0.000178705 0)
(22.1845 0.000168596 0)
(22.1753 0.000158482 0)
(22.1671 0.000149158 0)
(22.1595 0.00014016 0)
(22.1527 0.0001319 0)
(22.1465 0.000123799 0)
(22.1409 0.00011571 0)
(22.1359 0.000107499 0)
(22.1314 9.87245e-05 0)
(22.1274 8.93128e-05 0)
(22.124 7.83311e-05 0)
(22.1212 6.58644e-05 0)
(22.119 5.11032e-05 0)
(22.1174 3.36305e-05 0)
(22.1165 1.24751e-05 0)
(22.1164 -1.30333e-05 0)
(22.1172 -4.43088e-05 0)
(22.119 -8.25156e-05 0)
(22.122 -0.000128259 0)
(22.1263 -0.00018329 0)
(22.1321 -0.00024944 0)
(22.1396 -0.000329648 0)
(22.1491 -0.000424855 0)
(22.1607 -0.00053928 0)
(22.1749 -0.000673053 0)
(22.1917 -0.00083251 0)
(22.2118 -0.00101933 0)
(22.2353 -0.00123969 0)
(22.263 -0.00149489 0)
(22.2947 -0.00179673 0)
(22.3317 -0.0021467 0)
(22.3738 -0.00255907 0)
(22.4225 -0.00304461 0)
(22.4686 -0.00352174 0)
(22.5085 -0.00394207 0)
(22.5506 -0.00438862 0)
(22.5951 -0.00489003 0)
(22.6422 -0.00543509 0)
(22.6919 -0.00602433 0)
(22.744 -0.00667515 0)
(22.799 -0.00738083 0)
(22.8564 -0.00817282 0)
(22.9173 -0.00901108 0)
(22.98 -0.0100019 0)
(23.0476 -0.010996 0)
(23.1157 -0.0122892 0)
(23.1916 -0.0134452 0)
(23.2645 -0.0152614 0)
(23.3522 -0.0165357 0)
(23.4284 -0.0193331 0)
(23.5347 -0.0206138 0)
(23.6101 -0.0252958 0)
(23.7485 -0.0267995 0)
(23.8159 -0.033951 0)
(24.0138 -0.0411086 0)
(24.0608 -0.0457668 0)
(24.3887 -0.092893 0)
(24.3342 -0.123628 0)
(29.9 0.0363389 0)
(28.0071 0.0206682 0)
(27.0186 0.00924466 0)
(26.3431 0.00610655 0)
(25.8098 0.00458604 0)
(25.3997 0.00351575 0)
(25.0844 0.00277865 0)
(24.8348 0.00226789 0)
(24.6336 0.00188867 0)
(24.4694 0.00159722 0)
(24.3338 0.00137197 0)
(24.22 0.00119118 0)
(24.1243 0.00104683 0)
(24.0421 0.000926788 0)
(23.9721 0.00082503 0)
(23.9113 0.000740852 0)
(23.8588 0.000668249 0)
(23.8126 0.000606863 0)
(23.7723 0.000552261 0)
(23.7367 0.000505699 0)
(23.7052 0.000464437 0)
(23.6773 0.000428605 0)
(23.6524 0.000396727 0)
(23.6301 0.000368196 0)
(23.6101 0.000341513 0)
(23.5923 0.000318002 0)
(23.5762 0.00029719 0)
(23.5617 0.000277986 0)
(23.5486 0.000260278 0)
(23.5367 0.000244235 0)
(23.526 0.000230432 0)
(23.5162 0.000216709 0)
(23.5074 0.000204024 0)
(23.4993 0.000191785 0)
(23.492 0.000180516 0)
(23.4854 0.000169479 0)
(23.4794 0.000158457 0)
(23.474 0.000147263 0)
(23.4692 0.000135319 0)
(23.465 0.000122499 0)
(23.4613 0.000107569 0)
(23.4582 9.05953e-05 0)
(23.4558 7.05119e-05 0)
(23.454 4.67365e-05 0)
(23.453 1.79634e-05 0)
(23.4528 -1.68069e-05 0)
(23.4536 -5.93058e-05 0)
(23.4554 -0.000111143 0)
(23.4585 -0.000173428 0)
(23.4629 -0.000248406 0)
(23.4689 -0.00033844 0)
(23.4766 -0.000447479 0)
(23.4864 -0.000576916 0)
(23.4985 -0.000732414 0)
(23.5132 -0.000914286 0)
(23.5307 -0.00113093 0)
(23.5516 -0.00138475 0)
(23.576 -0.00168408 0)
(23.6047 -0.00203064 0)
(23.6378 -0.00244034 0)
(23.6762 -0.00291504 0)
(23.7199 -0.00347428 0)
(23.7706 -0.0041311 0)
(23.8184 -0.00477647 0)
(23.8598 -0.00534703 0)
(23.9034 -0.00595097 0)
(23.9496 -0.00662655 0)
(23.9983 -0.0073622 0)
(24.0497 -0.0081562 0)
(24.1036 -0.00903381 0)
(24.1605 -0.00998113 0)
(24.2198 -0.0110466 0)
(24.2825 -0.0121687 0)
(24.3472 -0.0134986 0)
(24.4167 -0.014823 0)
(24.4867 -0.0165541 0)
(24.5645 -0.0180857 0)
(24.6394 -0.0205032 0)
(24.7286 -0.0221845 0)
(24.8069 -0.0258768 0)
(24.9142 -0.0275679 0)
(24.9918 -0.0336689 0)
(25.1304 -0.0356025 0)
(25.199 -0.0451984 0)
(25.3978 -0.0528117 0)
(25.4377 -0.0631592 0)
(25.7732 -0.107822 0)
(25.6982 -0.151906 0)
(30.6362 0.038575 0)
(29.1373 0.0239907 0)
(28.2934 0.011331 0)
(27.6749 0.00773369 0)
(27.1598 0.00592976 0)
(26.7516 0.00459984 0)
(26.4322 0.00366092 0)
(26.1764 0.00300179 0)
(25.9687 0.00250784 0)
(25.7981 0.00212561 0)
(25.6568 0.00182883 0)
(25.5378 0.0015899 0)
(25.4375 0.00139857 0)
(25.3512 0.00123923 0)
(25.2776 0.001104 0)
(25.2135 0.00099193 0)
(25.1581 0.000895188 0)
(25.1095 0.000813332 0)
(25.0668 0.000740494 0)
(25.0292 0.000678297 0)
(24.9959 0.000623217 0)
(24.9663 0.000575285 0)
(24.9399 0.000532619 0)
(24.9163 0.000494473 0)
(24.8951 0.000458895 0)
(24.8762 0.000427405 0)
(24.8591 0.000399545 0)
(24.8437 0.000373882 0)
(24.8297 0.000350177 0)
(24.8171 0.000328681 0)
(24.8057 0.000310134 0)
(24.7953 0.000291812 0)
(24.7859 0.000274841 0)
(24.7773 0.000258465 0)
(24.7695 0.000243344 0)
(24.7624 0.000228556 0)
(24.756 0.000213795 0)
(24.7502 0.000198797 0)
(24.7451 0.000182825 0)
(24.7405 0.000165677 0)
(24.7366 0.000145756 0)
(24.7332 0.000123081 0)
(24.7306 9.62787e-05 0)
(24.7286 6.45574e-05 0)
(24.7275 2.61979e-05 0)
(24.7271 -2.02296e-05 0)
(24.7278 -7.68645e-05 0)
(24.7296 -0.000145803 0)
(24.7326 -0.000228821 0)
(24.7371 -0.000328865 0)
(24.7432 -0.000448939 0)
(24.7511 -0.000594169 0)
(24.7611 -0.000766528 0)
(24.7735 -0.000973509 0)
(24.7886 -0.00121567 0)
(24.8066 -0.00150394 0)
(24.8281 -0.00184164 0)
(24.8532 -0.00223982 0)
(24.8827 -0.00270069 0)
(24.9167 -0.00324524 0)
(24.9563 -0.00387571 0)
(25.0012 -0.0046182 0)
(25.0532 -0.00548832 0)
(25.1023 -0.00634267 0)
(25.1448 -0.00710035 0)
(25.1896 -0.00790039 0)
(25.237 -0.00879157 0)
(25.2869 -0.00976308 0)
(25.3396 -0.0108103 0)
(25.3948 -0.0119679 0)
(25.453 -0.0132127 0)
(25.5135 -0.0146141 0)
(25.5776 -0.0160852 0)
(25.6435 -0.0178286 0)
(25.7142 -0.019559 0)
(25.7855 -0.0218184 0)
(25.8643 -0.0238141 0)
(25.9406 -0.0269449 0)
(26.0304 -0.0291388 0)
(26.1101 -0.0338727 0)
(26.2171 -0.036098 0)
(26.2965 -0.0438291 0)
(26.4334 -0.0463202 0)
(26.5037 -0.0587461 0)
(26.6989 -0.0667718 0)
(26.7383 -0.0836048 0)
(27.0615 -0.125929 0)
(26.9973 -0.180613 0)
(31.3027 0.0399419 0)
(30.1607 0.0271955 0)
(29.4723 0.0135057 0)
(28.9276 0.00955165 0)
(28.4438 0.00750319 0)
(28.0457 0.00590462 0)
(27.7273 0.00474069 0)
(27.4685 0.00390994 0)
(27.2562 0.00327993 0)
(27.0807 0.00278814 0)
(26.9344 0.00240396 0)
(26.8108 0.00209341 0)
(26.7062 0.00184383 0)
(26.6161 0.00163555 0)
(26.539 0.00145845 0)
(26.4718 0.00131141 0)
(26.4136 0.0011843 0)
(26.3624 0.00107665 0)
(26.3175 0.0009808 0)
(26.2779 0.000898821 0)
(26.2427 0.000826273 0)
(26.2115 0.000762996 0)
(26.1836 0.000706621 0)
(26.1586 0.000656258 0)
(26.1362 0.000609428 0)
(26.1161 0.000567787 0)
(26.098 0.00053096 0)
(26.0816 0.000497105 0)
(26.0668 0.000465775 0)
(26.0534 0.000437333 0)
(26.0413 0.000412707 0)
(26.0302 0.000388544 0)
(26.0202 0.000366126 0)
(26.011 0.000344495 0)
(26.0027 0.00032446 0)
(25.9951 0.000304897 0)
(25.9883 0.000285389 0)
(25.9821 0.000265562 0)
(25.9766 0.000244496 0)
(25.9717 0.000221883 0)
(25.9674 0.00019569 0)
(25.9638 0.000165856 0)
(25.9609 0.000130632 0)
(25.9587 8.89708e-05 0)
(25.9574 3.86438e-05 0)
(25.9569 -2.23247e-05 0)
(25.9574 -9.65993e-05 0)
(25.9591 -0.000186837 0)
(25.9621 -0.000295618 0)
(25.9665 -0.000426841 0)
(25.9726 -0.000584365 0)
(25.9806 -0.000774583 0)
(25.9908 -0.00100027 0)
(26.0033 -0.00127121 0)
(26.0186 -0.00158821 0)
(26.0369 -0.00196533 0)
(26.0588 -0.00240706 0)
(26.0844 -0.00292781 0)
(26.1145 -0.00353036 0)
(26.1491 -0.00424185 0)
(26.1894 -0.00506498 0)
(26.2352 -0.00603392 0)
(26.2881 -0.00716726 0)
(26.3381 -0.00827874 0)
(26.3813 -0.00926691 0)
(26.4268 -0.0103089 0)
(26.475 -0.0114647 0)
(26.5257 -0.0127252 0)
(26.5792 -0.0140826 0)
(26.6352 -0.0155822 0)
(26.6942 -0.0171902 0)
(26.7555 -0.0189998 0)
(26.8202 -0.0208962 0)
(26.8869 -0.023138 0)
(26.9581 -0.0253648 0)
(27.0301 -0.028253 0)
(27.1091 -0.03082 0)
(27.1862 -0.034786 0)
(27.2756 -0.0376223 0)
(27.3563 -0.0435482 0)
(27.4619 -0.0464746 0)
(27.5427 -0.0560288 0)
(27.6763 -0.0593016 0)
(27.7488 -0.074808 0)
(27.9364 -0.0835671 0)
(27.9801 -0.106925 0)
(28.2799 -0.147971 0)
(28.2327 -0.210635 0)
(31.9197 0.040211 0)
(31.0966 0.0301451 0)
(30.5662 0.0156703 0)
(30.1091 0.0115102 0)
(29.6697 0.0092969 0)
(29.2911 0.0074434 0)
(28.9798 0.0060414 0)
(28.722 0.0050196 0)
(28.5078 0.00423283 0)
(28.3289 0.00361172 0)
(28.1789 0.00312273 0)
(28.0514 0.00272529 0)
(27.9431 0.0024044 0)
(27.8495 0.0021358 0)
(27.7692 0.00190689 0)
(27.699 0.00171635 0)
(27.6381 0.00155134 0)
(27.5844 0.00141143 0)
(27.5373 0.00128672 0)
(27.4956 0.00117986 0)
(27.4586 0.00108534 0)
(27.4257 0.00100271 0)
(27.3962 0.000928994 0)
(27.3699 0.00086317 0)
(27.3462 0.00080216 0)
(27.3249 0.000747663 0)
(27.3057 0.000699467 0)
(27.2884 0.000655257 0)
(27.2727 0.000614269 0)
(27.2585 0.000577015 0)
(27.2456 0.000544624 0)
(27.2338 0.000513056 0)
(27.2231 0.000483738 0)
(27.2133 0.000455454 0)
(27.2045 0.000429172 0)
(27.1964 0.00040355 0)
(27.1891 0.000378037 0)
(27.1825 0.000352102 0)
(27.1766 0.000324624 0)
(27.1713 0.000295144 0)
(27.1667 0.000261112 0)
(27.1627 0.000222338 0)
(27.1595 0.000176623 0)
(27.1571 0.000122616 0)
(27.1555 5.74534e-05 0)
(27.1548 -2.15096e-05 0)
(27.1551 -0.000117611 0)
(27.1567 -0.000234166 0)
(27.1595 -0.000374741 0)
(27.1638 -0.000544415 0)
(27.1699 -0.000748177 0)
(27.1779 -0.000993877 0)
(27.188 -0.0012853 0)
(27.2006 -0.00163499 0)
(27.216 -0.00204409 0)
(27.2345 -0.00253051 0)
(27.2565 -0.00310014 0)
(27.2823 -0.00377152 0)
(27.3127 -0.00454813 0)
(27.3476 -0.00546448 0)
(27.3883 -0.00652382 0)
(27.4345 -0.00777011 0)
(27.488 -0.00922561 0)
(27.5384 -0.0106509 0)
(27.582 -0.0119201 0)
(27.6279 -0.0132579 0)
(27.6764 -0.0147361 0)
(27.7275 -0.0163478 0)
(27.7814 -0.0180821 0)
(27.8377 -0.019995 0)
(27.8969 -0.0220431 0)
(27.9585 -0.0243442 0)
(28.0234 -0.0267552 0)
(28.0903 -0.0295922 0)
(28.1614 -0.0324204 0)
(28.2336 -0.0360512 0)
(28.3122 -0.0393174 0)
(28.3894 -0.0442506 0)
(28.4779 -0.0478929 0)
(28.5589 -0.0551572 0)
(28.6623 -0.0590119 0)
(28.744 -0.0705372 0)
(28.8729 -0.0749475 0)
(28.9479 -0.0936135 0)
(29.1251 -0.103759 0)
(29.1751 -0.133171 0)
(29.4479 -0.174077 0)
(29.4146 -0.242692 0)
(32.5031 0.0391233 0)
(31.9619 0.0326796 0)
(31.5846 0.0177005 0)
(31.2243 0.0135276 0)
(30.8417 0.0112758 0)
(30.4927 0.00921318 0)
(30.1957 0.00757784 0)
(29.9438 0.00635444 0)
(29.731 0.00539403 0)
(29.5511 0.00462484 0)
(29.3988 0.00401312 0)
(29.2686 0.00351233 0)
(29.1573 0.0031056 0)
(29.0607 0.00276373 0)
(28.9775 0.00247145 0)
(28.9046 0.00222743 0)
(28.8411 0.00201556 0)
(28.7851 0.00183562 0)
(28.7358 0.001675 0)
(28.6921 0.00153706 0)
(28.6532 0.00141511 0)
(28.6186 0.0013082 0)
(28.5876 0.00121267 0)
(28.5598 0.00112737 0)
(28.5348 0.00104857 0)
(28.5124 0.000977867 0)
(28.4921 0.000915317 0)
(28.4737 0.000858062 0)
(28.4571 0.000804896 0)
(28.442 0.000756506 0)
(28.4283 0.000714225 0)
(28.4158 0.000673288 0)
(28.4044 0.000635258 0)
(28.394 0.00059858 0)
(28.3845 0.000564386 0)
(28.3759 0.000531096 0)
(28.3681 0.000498013 0)
(28.361 0.000464379 0)
(28.3546 0.000428862 0)
(28.3489 0.000390784 0)
(28.3439 0.000347003 0)
(28.3396 0.000297126 0)
(28.3361 0.00023842 0)
(28.3334 0.000169171 0)
(28.3315 8.57364e-05 0)
(28.3305 -1.53369e-05 0)
(28.3307 -0.000138239 0)
(28.332 -0.000287061 0)
(28.3346 -0.000466591 0)
(28.3388 -0.000683355 0)
(28.3447 -0.000943755 0)