/*--------------------------------*- C++ -*----------------------------------*\
| =========                 |                                                 |
| \\      /  F ield         | OpenFOAM: The Open Source CFD Toolbox           |
|  \\    /   O peration     | Version:  2306                                  |
|   \\  /    A nd           | Website:  www.openfoam.com                      |
|    \\/     M anipulation  |                                                 |
\*---------------------------------------------------------------------------*/
FoamFile
{
    version     2.0;
    format      ascii;
    arch        "LSB;label=32;scalar=64";
    class       volVectorField;
    location    "2000";
    object      wallShearStress;
}
// * * * * * * * * * * * * * * * * * * * * * * * * * * * * * * * * * * * * * //

dimensions      [0 2 -2 0 0 0 0];

internalField   uniform (0 0 0);

boundaryField
{
    inlet
    {
        type            calculated;
        value           uniform (0 0 0);
    }
    outlet
    {
        type            calculated;
        value           uniform (0 0 0);
    }
    lowerWallStartup
    {
        type            symmetryPlane;
    }
    upperWallStartup
    {
        type            symmetryPlane;
    }
    upperWall
    {
        type            calculated;
        value           nonuniform List<vector> 
218
(
(-10.8805 0.00916804 0)
(-7.3482 0.000891906 0)
(-6.62425 0.000221614 0)
(-6.25646 0.000124807 0)
(-6.01907 8.43316e-05 0)
(-5.85501 6.10862e-05 0)
(-5.73613 4.66266e-05 0)
(-5.64562 3.71071e-05 0)
(-5.57472 3.03525e-05 0)
(-5.51793 2.53308e-05 0)
(-5.47174 2.15304e-05 0)
(-5.43339 1.85317e-05 0)
(-5.40148 1.61554e-05 0)
(-5.3743 1.42235e-05 0)
(-5.35128 1.25891e-05 0)
(-5.33142 1.12416e-05 0)
(-5.31435 1.00899e-05 0)
(-5.29946 9.1201e-06 0)
(-5.28649 8.26306e-06 0)
(-5.27512 7.54351e-06 0)
(-5.26507 6.88628e-06 0)
(-5.25626 6.3194e-06 0)
(-5.24839 5.83997e-06 0)
(-5.24142 5.39029e-06 0)
(-5.23517 5.00011e-06 0)
(-5.22959 4.65093e-06 0)
(-5.22457 4.3164e-06 0)
(-5.22011 4.01902e-06 0)
(-5.21606 3.7654e-06 0)
(-5.21242 3.51816e-06 0)
(-5.20914 3.30229e-06 0)
(-5.20616 3.1063e-06 0)
(-5.20346 2.93715e-06 0)
(-5.20099 2.77712e-06 0)
(-5.19875 2.64299e-06 0)
(-5.19667 2.53834e-06 0)
(-5.19474 2.43234e-06 0)
(-5.19297 2.3427e-06 0)
(-5.19131 2.28249e-06 0)
(-5.18974 2.25635e-06 0)
(-5.18822 2.25704e-06 0)
(-5.18675 2.31232e-06 0)
(-5.18527 2.41787e-06 0)
(-5.18376 2.57081e-06 0)
(-5.1822 2.7888e-06 0)
(-5.18054 3.10489e-06 0)
(-5.17872 3.53447e-06 0)
(-5.17671 4.07118e-06 0)
(-5.17446 4.74593e-06 0)
(-5.17191 5.58442e-06 0)
(-5.169 6.62632e-06 0)
(-5.16567 7.87373e-06 0)
(-5.16184 9.34373e-06 0)
(-5.15745 1.10915e-05 0)
(-5.15243 1.31223e-05 0)
(-5.14673 1.54811e-05 0)
(-5.14024 1.81522e-05 0)
(-5.13294 2.11751e-05 0)
(-5.12472 2.45263e-05 0)
(-5.11562 2.82491e-05 0)
(-5.10549 3.22855e-05 0)
(-5.09444 3.67054e-05 0)
(-5.08225 4.1547e-05 0)
(-5.07128 4.56655e-05 0)
(-5.06225 4.87357e-05 0)
(-5.05313 5.21496e-05 0)
(-5.04385 5.55761e-05 0)
(-5.03446 5.88731e-05 0)
(-5.02503 6.21678e-05 0)
(-5.01556 6.53437e-05 0)
(-5.00614 6.85131e-05 0)
(-4.99673 7.15151e-05 0)
(-4.98743 7.45247e-05 0)
(-4.97819 7.7318e-05 0)
(-4.96913 8.01374e-05 0)
(-4.96017 8.27103e-05 0)
(-4.95143 8.53294e-05 0)
(-4.94283 8.76647e-05 0)
(-4.93444 9.0095e-05 0)
(-4.92631 9.21708e-05 0)
(-4.91824 9.44305e-05 0)
(-4.91072 9.61336e-05 0)
(-4.90285 9.85493e-05 0)
(-4.89622 9.94491e-05 0)
(-4.88812 0.000102364 0)
(-4.8831 0.000103724 0)
(-4.87357 0.00010746 0)
(-4.87157 0.00015247 0)
(-4.8627 0.000211774 -1.24979e-20)
(-4.85553 0.000224603 0)
(-4.84974 0.000230629 1.23877e-20)
(-4.84354 0.00023244 -1.23327e-20)
(-4.83724 0.000232302 0)
(-4.83091 0.000231798 -1.22183e-20)
(-4.82452 0.000232487 0)
(-4.81806 0.000232036 0)
(-4.81155 0.000232727 0)
(-4.80495 0.000232372 0)
(-4.79832 0.000232972 1.19102e-20)
(-4.79158 0.000233044 0)
(-4.78482 0.000232784 -1.17781e-20)
(-4.77795 0.0002332 0)
(-4.77109 0.000232677 -1.1641e-20)
(-4.7641 0.000233208 1.15706e-20)
(-4.75712 0.000232655 0)
(-4.75002 0.000232967 1.1426e-20)
(-4.74292 0.000232565 0)
(-4.73574 0.0002321 -1.12767e-20)
(-4.72854 0.000232407 0)
(-4.72127 0.00023169 0)
(-4.71397 0.000231883 0)
(-4.70661 0.000231005 0)
(-4.69923 0.000231132 0)
(-4.6918 0.000230223 0)
(-4.68434 0.000230129 0)
(-4.67685 0.000229696 1.0633e-20)
(-4.66933 0.000228661 -1.05476e-20)
(-4.66178 0.000228721 1.04612e-20)
(-4.6542 0.00022752 -1.03737e-20)
(-4.6466 0.000227347 0)
(-4.63899 0.000226031 -1.0196e-20)
(-4.63136 0.000225905 0)
(-4.62371 0.000224522 -1.00144e-20)
(-4.61606 0.000224078 0)
(-4.6084 0.00022317 0)
(-4.60074 0.000221805 -9.73548e-21)
(-4.59307 0.000221247 0)
(-4.58542 0.000219646 -9.54543e-21)
(-4.57777 0.000219066 0)
(-4.57014 0.000217396 -9.35235e-21)
(-4.56252 0.000216788 0)
(-4.55492 0.000215101 -9.15648e-21)
(-4.54732 0.000214361 0)
(-4.53975 0.000213047 0)
(-4.5322 0.000211236 -8.85801e-21)
(-4.52469 0.000210497 0)
(-4.5172 0.00020855 -8.65628e-21)
(-4.50975 0.000207778 0)
(-4.50233 0.000205729 -8.45263e-21)
(-4.49495 0.000204942 0)
(-4.48759 0.000202892 -8.24735e-21)
(-4.4803 0.000201813 0)
(-4.47303 0.000200221 0)
(-4.46583 0.000198239 -7.93687e-21)
(-4.45866 0.000197137 0)
(-4.45159 0.000194947 -7.72858e-21)
(-4.44453 0.000193818 0)
(-4.43757 0.000191678 -7.51956e-21)
(-4.43061 0.000190456 0)
(-4.42379 0.00018852 0)
(-4.41693 0.000186838 -7.20524e-21)
(-4.41029 0.000185798 -7.10033e-21)
(-4.4035 0.000182748 0)
(-4.39707 0.000182629 -6.89063e-21)
(-4.39031 0.000178791 0)
(-4.3842 0.000179292 -6.68118e-21)
(-4.3774 0.000175338 0)
(-4.37163 0.000175607 -6.47226e-21)
(-4.3648 0.000172186 0)
(-4.35933 0.000171718 -6.26411e-21)
(-4.35253 0.000169363 -6.16064e-21)
(-4.34731 0.000167436 0)
(-4.34062 0.000165966 -5.95405e-21)
(-4.33562 0.000163701 0)
(-4.32906 0.000162467 -5.74874e-21)
(-4.32426 0.000160029 0)
(-4.31786 0.000158844 0)
(-4.31323 0.000156874 -5.44342e-21)
(-4.30701 0.000154865 5.34283e-21)
(-4.30256 0.000153617 -5.24224e-21)
(-4.2965 0.000151497 5.14261e-21)
(-4.29222 0.000150012 0)
(-4.28634 0.000148081 0)
(-4.28223 0.000146346 0)
(-4.27656 0.000144475 4.74848e-21)
(-4.27262 0.000142816 0)
(-4.26713 0.000141344 0)
(-4.26341 0.000139165 0)
(-4.25802 0.000137921 0)
(-4.25461 0.000135956 0)
(-4.24919 0.000134635 0)
(-4.24628 0.000132727 0)
(-4.24055 0.000131495 -3.99009e-21)
(-4.23854 0.000130829 3.89681e-21)
(-4.23166 9.67355e-05 0)
(-4.23066 9.85289e-05 0)
(-4.22736 8.70831e-05 -9.62947e-22)
(-4.22338 7.93395e-05 8.19169e-22)
(-4.21917 7.85095e-05 1.38781e-21)
(-4.21442 7.85884e-05 1.16962e-21)
(-4.20908 7.7907e-05 1.95947e-21)
(-4.20319 7.72011e-05 1.62937e-21)
(-4.19668 7.69496e-05 1.34289e-21)
(-4.18965 7.65501e-05 0)
(-4.18203 7.60723e-05 1.76074e-21)
(-4.17401 7.68511e-05 0)
(-4.16556 7.71148e-05 -2.15033e-21)
(-4.15697 7.90525e-05 0)
(-4.14832 8.02756e-05 0)
(-4.14025 8.31342e-05 0)
(-4.13255 8.67745e-05 0)
(-4.12639 9.16285e-05 0)
(-4.12145 9.59172e-05 0)
(-4.11912 0.00010106 -1.13474e-21)
(-4.11899 0.000104762 0)
(-4.12189 0.000107035 5.09635e-21)
(-4.12839 0.000104983 -5.72319e-21)
(-4.13671 0.000100531 5.86509e-21)
(-4.15046 8.27137e-05 0)
(-4.1625 6.62616e-05 1.05741e-20)
(-4.1837 1.18745e-05 0)
(-4.19422 -7.28379e-06 0)
(-4.22525 -0.000173057 0)
(-4.22727 -0.000123077 0)
(-4.27828 -0.000716044 0)
(-4.25637 -0.000143757 0)
(-4.37702 -0.00331223 -3.57953e-20)
(-4.04401 -0.00141893 0)
)
;
    }
    lowerWall
    {
        type            calculated;
        value           nonuniform List<vector> 
266
(
(-10.9408 -0.00952259 0)
(-7.39248 -0.000933934 0)
(-6.65625 -0.000233993 0)
(-6.28615 -0.000131325 0)
(-6.04695 -8.90186e-05 0)
(-5.88112 -6.47065e-05 0)
(-5.76063 -4.95192e-05 0)
(-5.66874 -3.94879e-05 0)
(-5.59661 -3.23584e-05 0)
(-5.53876 -2.70443e-05 0)
(-5.49164 -2.30232e-05 0)
(-5.45246 -1.98347e-05 0)
(-5.41984 -1.73371e-05 0)
(-5.39193 -1.5266e-05 0)
(-5.3684 -1.35232e-05 0)
(-5.34796 -1.21012e-05 0)
(-5.33045 -1.0874e-05 0)
(-5.31507 -9.85429e-06 0)
(-5.30172 -8.93468e-06 0)
(-5.28994 -8.16604e-06 0)
(-5.27959 -7.48277e-06 0)
(-5.27039 -6.89569e-06 0)
(-5.26222 -6.37239e-06 0)
(-5.25492 -5.90327e-06 0)
(-5.24841 -5.45421e-06 0)
(-5.24262 -5.06411e-06 0)
(-5.23738 -4.7319e-06 0)
(-5.23269 -4.42155e-06 0)
(-5.22845 -4.1329e-06 0)
(-5.22465 -3.87417e-06 0)
(-5.22119 -3.65611e-06 0)
(-5.21805 -3.43118e-06 0)
(-5.21522 -3.22558e-06 0)
(-5.21264 -3.02347e-06 0)
(-5.21033 -2.84316e-06 0)
(-5.2082 -2.67009e-06 0)
(-5.20632 -2.50109e-06 0)
(-5.20459 -2.32986e-06 0)
(-5.20307 -2.14616e-06 0)
(-5.20172 -1.95568e-06 0)
(-5.20056 -1.73206e-06 0)
(-5.19958 -1.48134e-06 0)
(-5.19881 -1.18778e-06 0)
(-5.19825 -8.49603e-07 0)
(-5.19792 -4.41111e-07 0)
(-5.19784 4.80454e-08 0)
(-5.19806 6.61045e-07 0)
(-5.19862 1.38846e-06 0)
(-5.19954 2.24046e-06 0)
(-5.20088 3.28769e-06 0)
(-5.20269 4.5415e-06 0)
(-5.20505 6.05538e-06 0)
(-5.20804 7.86931e-06 0)
(-5.21171 1.00442e-05 0)
(-5.21622 1.25798e-05 0)
(-5.22157 1.55978e-05 0)
(-5.22798 1.91444e-05 0)
(-5.23547 2.33451e-05 0)
(-5.2443 2.82101e-05 0)
(-5.25444 3.39493e-05 0)
(-5.2663 4.07168e-05 0)
(-5.2798 4.85793e-05 0)
(-5.29549 5.80883e-05 0)
(-5.3104 6.74486e-05 0)
(-5.32331 7.53094e-05 0)
(-5.33691 8.43769e-05 0)
(-5.35142 9.43273e-05 0)
(-5.36679 0.000104989 0)
(-5.38304 0.000116748 0)
(-5.40019 0.000129552 0)
(-5.41828 0.000144074 0)
(-5.43738 0.000159585 0)
(-5.45749 0.000177294 0)
(-5.47868 0.000196497 0)
(-5.50115 0.000218908 0)
(-5.52462 0.000242831 0)
(-5.54999 0.000272371 0)
(-5.57591 0.000302981 0)
(-5.60542 0.000344497 0)
(-5.63364 0.000384691 0)
(-5.67012 0.000447836 0)
(-5.69916 0.000509085 0)
(-5.75044 0.00062032 0)
(-5.77567 0.000680723 0)
(-5.85498 0.00112954 0)
(-5.89177 0.000959734 0)
(-5.9926 0.00210211 0)
(-6.11744 0.0714147 0)
(-4.70224e-05 -0.00495527 0)
(-0.000220427 -0.00279202 0)
(-0.000409757 -0.00174758 1.62628e-23)
(-0.000594429 -0.00168836 -1.92339e-23)
(-0.000776691 -0.00163488 0)
(-0.000972677 -0.00157993 0)
(-0.00119136 -0.00151725 0)
(-0.0014396 -0.00143841 0)
(-0.0017263 -0.00133227 0)
(-0.00206018 -0.00118329 -2.22701e-21)
(-0.00244673 -0.000969539 2.88569e-21)
(-0.0028859 -0.000659602 -7.65977e-21)
(-0.00336455 -0.000207474 1.03688e-20)
(-0.00384051 0.00045466 -0)
(-0.00421191 0.00142147 4.13728e-20)
(-0.00425618 0.00278487 -6.10522e-20)
(-0.0035302 0.00444969 -0)
(-0.00148431 0.00574345 0)
(0.00170168 0.00564136 0)
(0.00497668 0.00389958 6.85169e-19)
(0.00775232 0.000844651 -6.57669e-19)
(0.00990592 -0.00353931 1.14932e-18)
(0.0112968 -0.0094821 -8.9229e-19)
(0.0115619 -0.0171175 0)
(0.0108625 -0.0245109 1.12527e-18)
(0.0100562 -0.0305934 -1.03211e-18)
(0.0093856 -0.0356887 0)
(0.00899642 -0.0398007 0)
(0.00900275 -0.043214 0)
(0.00944319 -0.0461439 0)
(0.010301 -0.0487366 0)
(0.011507 -0.0510833 0)
(0.0129742 -0.0532175 -8.37925e-19)
(0.0145865 -0.0551611 -1.20819e-22)
(0.0162389 -0.0569206 8.08913e-19)
(0.0177928 -0.0585065 0)
(0.0189176 -0.0609774 0)
(0.0179427 -0.0721189 0)
(0.00807136 -0.110503 0)
(-0.0208067 -0.179793 0)
(-0.0639432 -0.239413 1.48711e-19)
(-0.119513 -0.301374 -1.22492e-19)
(-0.17905 -0.346672 -0)
(-0.237927 -0.376432 0)
(-0.294408 -0.393545 0)
(-0.34784 -0.401338 -9.53455e-20)
(-0.383835 -0.403041 1.07379e-19)
(-0.403513 -0.472295 0)
(-0.0445752 0.000693644 0)
(-0.0259777 -0.000294531 -3.64739e-22)
(-0.0240274 4.37312e-05 0)
(-0.00797265 0.000168663 -3.62027e-22)
(0.0171298 0.000214257 0)
(0.0477643 0.000258056 0)
(0.102538 -0.000867088 0)
(0.121866 -0.000556993 0)
(0.171833 -0.000265471 0)
(0.230594 -0.000304808 -2.48257e-22)
(0.297724 -0.000344545 0)
(0.373524 -0.000384086 0)
(0.457579 -0.000422583 0)
(0.549573 -0.00045974 0)
(0.648943 -0.000495281 0)
(0.755093 -0.000529018 0)
(0.867314 -0.000560782 0)
(0.984834 -0.00059038 0)
(1.1068 -0.000617597 0)
(1.2323 -0.000642191 0)
(1.36035 -0.000663905 2.48751e-22)
(1.48991 -0.000682477 0)
(1.61988 -0.000697659 2.47146e-22)
(1.74914 -0.000709229 0)
(1.87654 -0.000716992 2.44287e-22)
(2.00092 -0.000720815 0)
(2.12113 -0.000720614 2.39921e-22)
(2.23604 -0.000716367 0)
(2.34457 -0.000708118 0)
(2.44567 -0.000695962 0)
(2.5384 -0.000680072 2.25999e-22)
(2.62186 -0.000660603 2.21385e-22)
(2.69526 -0.000637807 2.16321e-22)
(2.7579 -0.000611916 2.10822e-22)
(2.80917 -0.000583242 2.04903e-22)
(2.84857 -0.00055202 0)
(2.87573 -0.000518563 -0)
(2.89036 -0.000483039 1.84882e-22)
(2.89226 -0.000445837 1.77555e-22)
(2.88138 -0.000407043 1.69961e-22)
(2.85771 -0.000366838 1.62138e-22)
(2.82136 -0.000325407 1.54129e-22)
(2.77251 -0.000282632 1.45972e-22)
(2.7114 -0.00023823 0)
(2.63829 -0.000192454 1.29388e-22)
(2.55359 -0.000144792 1.21041e-22)
(2.4576 -9.48954e-05 1.12712e-22)
(2.35082 -4.25537e-05 1.04438e-22)
(2.23363 1.27947e-05 9.62557e-23)
(2.10658 7.13878e-05 8.82005e-23)
(1.97014 0.000134124 0)
(1.82479 0.000201549 7.25942e-23)
(1.6709 0.000274832 6.50976e-23)
(1.50887 0.000354328 5.78404e-23)
(1.33892 0.000440669 5.08407e-23)
(1.16175 0.000533563 4.41254e-23)
(0.977071 0.000634121 3.7697e-23)
(0.78646 0.000741196 0)
(0.587719 0.000856903 2.57833e-23)
(0.385493 0.00183389 0)
(0.219964 0.000155496 0)
(-0.0141603 -0.000728173 0)
(-0.237304 0.00116211 -6.06541e-24)
(-0.427913 0.000859799 -0)
(-0.611954 0.000757559 -0)
(-0.786371 0.000666664 0)
(-0.953284 0.000586016 -0)
(-1.11205 0.000515561 0)
(-1.26349 0.000453965 -0)
(-1.40766 0.000400815 1.92986e-23)
(-1.545 0.000354992 0)
(-1.67576 0.000315797 0)
(-1.80025 0.000282286 -0)
(-1.91875 0.000253778 2.9603e-23)
(-2.03153 0.000229535 0)
(-2.13887 0.000208976 0)
(-2.24099 0.000191496 -0)
(-2.33816 0.000176657 0)
(-2.43057 0.000163967 -0)
(-2.5185 0.000153216 -0)
(-2.60208 0.000143854 4.13756e-23)
(-2.68161 0.000136023 0)
(-2.75716 0.000128835 -0)
(-2.8291 0.00012319 4.44807e-23)
(-2.8973 0.000117179 -0)
(-2.96242 0.000113516 4.60446e-23)
(-3.02386 0.000107527 0)
(-3.08298 0.000106445 0)
(-3.13803 9.84962e-05 -4.77322e-23)
(-3.19209 0.000102214 -0)
(-3.24081 8.83761e-05 4.84877e-23)
(-3.29119 0.000101604 0)
(-3.33261 7.63289e-05 -0)
(-3.38267 0.000102439 0)
(-3.4117 5.67275e-05 0)
(-3.46861 0.000118911 -0)
(-3.48237 3.61501e-05 4.91111e-23)
(-3.51975 0.000201077 0)
(-3.56191 9.46452e-05 -0)
(-3.5848 0.000151437 5.85434e-21)
(-3.62558 0.000120633 1.01314e-20)
(-3.65878 0.000126638 0)
(-3.69964 0.000120943 0)
(-3.73953 0.000121079 0)
(-3.78271 0.000120429 -0)
(-3.82613 0.000121403 0)
(-3.87055 0.000123717 -1.68162e-20)
(-3.91424 0.000127708 0)
(-3.95711 0.000133614 -2.43565e-20)
(-3.99732 0.000141597 2.05525e-20)
(-4.03529 0.000151306 0)
(-4.06818 0.00016285 0)
(-4.09846 0.000174973 0)
(-4.12094 0.00018776 3.89065e-20)
(-4.14246 0.00019936 -3.17188e-20)
(-4.15281 0.000209844 0)
(-4.16684 0.000218244 4.12511e-20)
(-4.16462 0.000223717 0)
(-4.17461 0.000229753 5.26341e-20)
(-4.15985 0.000230204 0)
(-4.17039 0.000241019 0)
(-4.14295 0.000237102 0)
(-4.15733 0.000266234 0)
(-4.1169 0.000252147 0)
(-4.134 0.000318772 1.06318e-19)
(-4.08089 0.000271337 -5.67733e-20)
(-4.08902 0.000405944 0)
(-4.03508 0.000279648 2.00715e-20)
(-3.98555 0.000512837 0)
(-4.01082 0.000109483 0)
)
;
    }
    front
    {
        type            empty;
    }
    back
    {
        type            empty;
    }
}


// ************************************************************************* //
