/*--------------------------------*- C++ -*----------------------------------*\
| =========                 |                                                 |
| \\      /  F ield         | OpenFOAM: The Open Source CFD Toolbox           |
|  \\    /   O peration     | Version:  2306                                  |
|   \\  /    A nd           | Website:  www.openfoam.com                      |
|    \\/     M anipulation  |                                                 |
\*---------------------------------------------------------------------------*/
FoamFile
{
    version     2.0;
    format      ascii;
    arch        "LSB;label=32;scalar=64";
    class       volScalarField;
    location    "2000";
    object      yPlus;
}
// * * * * * * * * * * * * * * * * * * * * * * * * * * * * * * * * * * * * * //

dimensions      [0 0 0 0 0 0 0];

internalField   uniform 0;

boundaryField
{
    inlet
    {
        type            calculated;
        value           uniform 0;
    }
    outlet
    {
        type            calculated;
        value           uniform 0;
    }
    lowerWallStartup
    {
        type            symmetryPlane;
    }
    upperWallStartup
    {
        type            symmetryPlane;
    }
    upperWall
    {
        type            calculated;
        value           nonuniform List<scalar> 
218
(
2.71758
2.23331
2.12044
2.06073
2.02126
1.99353
1.97318
1.95756
1.94522
1.93529
1.92717
1.92041
1.91476
1.90994
1.90584
1.9023
1.89925
1.89659
1.89427
1.89223
1.89043
1.88885
1.88743
1.88618
1.88505
1.88405
1.88314
1.88234
1.88161
1.88095
1.88036
1.87982
1.87933
1.87889
1.87848
1.87811
1.87776
1.87744
1.87714
1.87685
1.87658
1.87631
1.87605
1.87577
1.87549
1.87519
1.87486
1.8745
1.87409
1.87363
1.8731
1.8725
1.8718
1.87101
1.8701
1.86906
1.86788
1.86656
1.86506
1.8634
1.86156
1.85954
1.85732
1.85531
1.85366
1.85199
1.85029
1.84856
1.84683
1.84509
1.84336
1.84162
1.83991
1.83821
1.83653
1.83487
1.83326
1.83166
1.83011
1.8286
1.8271
1.8257
1.82424
1.82301
1.8215
1.82056
1.81879
1.81841
1.81467
1.80917
1.80393
1.79862
1.7933
1.78797
1.78264
1.77729
1.77195
1.76659
1.76123
1.75586
1.75049
1.74511
1.73973
1.73433
1.72894
1.72353
1.71813
1.71272
1.7073
1.70188
1.69647
1.69104
1.68562
1.68019
1.67477
1.66935
1.66392
1.65849
1.65307
1.64765
1.64223
1.63681
1.6314
1.62599
1.62058
1.61518
1.60979
1.6044
1.59902
1.59365
1.58828
1.58292
1.57758
1.57224
1.56691
1.56159
1.55628
1.55099
1.5457
1.54043
1.53516
1.52992
1.52468
1.51946
1.51425
1.50906
1.50388
1.49873
1.49357
1.48845
1.48333
1.47824
1.47314
1.4681
1.46302
1.45804
1.45296
1.44805
1.44297
1.43812
1.43306
1.42826
1.42322
1.41847
1.41347
1.40875
1.40378
1.39911
1.39418
1.38954
1.38464
1.38004
1.37518
1.37061
1.3658
1.36126
1.35649
1.352
1.34724
1.34281
1.33806
1.3337
1.32891
1.32471
1.31974
1.31702
1.31514
1.31297
1.31053
1.30776
1.30459
1.301
1.29692
1.29232
1.28712
1.28128
1.27471
1.26736
1.25914
1.25001
1.2398
1.22853
1.21596
1.20208
1.18657
1.16927
1.14991
1.12788
1.10323
1.07451
1.04257
1.00433
0.962853
0.911692
0.858476
0.789911
0.724888
0.614175
)
;
    }
    lowerWall
    {
        type            calculated;
        value           nonuniform List<scalar> 
266
(
2.81035
2.31011
2.19205
2.13024
2.08932
2.06047
2.03926
2.02293
2.01001
1.9996
1.99108
1.98396
1.97802
1.97292
1.96861
1.96486
1.96164
1.9588
1.95634
1.95417
1.95226
1.95055
1.94904
1.94769
1.94648
1.94541
1.94444
1.94357
1.94278
1.94207
1.94143
1.94084
1.94032
1.93984
1.93941
1.93901
1.93866
1.93834
1.93806
1.9378
1.93759
1.93741
1.93726
1.93716
1.9371
1.93708
1.93712
1.93723
1.9374
1.93765
1.93799
1.93842
1.93898
1.93967
1.94051
1.9415
1.94269
1.94408
1.94572
1.9476
1.9498
1.9523
1.95519
1.95794
1.96032
1.96283
1.96549
1.96831
1.97129
1.97443
1.97773
1.98121
1.98488
1.98873
1.9928
1.99705
2.00163
2.00629
2.0116
2.01665
2.02317
2.02835
2.03745
2.04192
2.05589
2.06234
2.07995
2.10192
0.000727426
1.42597
0.306344
0.160814
0.229596
0.304139
0.386336
0.477673
0.579666
0.694233
0.823269
0.968368
1.13043
1.30872
1.49932
1.69305
1.87122
1.98432
1.91885
1.51188
0.692103
2.1998
3.32389
4.40209
5.27203
5.88226
6.34309
6.70525
7.00473
7.26529
7.50096
7.71933
7.92287
8.11294
8.28305
8.43608
8.56626
8.66267
8.68193
8.53421
8.1796
7.63628
6.9312
6.08205
5.07407
3.79532
1.74896
2.31239
0.0786103
0.0600164
0.0577034
0.0332419
0.0487971
0.0813524
0.125766
0.129939
0.154287
0.178722
0.203068
0.227443
0.251725
0.275857
0.299746
0.323318
0.346495
0.369207
0.391383
0.412957
0.433861
0.45403
0.473397
0.491898
0.509472
0.52606
0.541606
0.556056
0.569363
0.581482
0.592375
0.602005
0.610344
0.617364
0.623048
0.627371
0.630326
0.631896
0.632075
0.630853
0.628225
0.624188
0.618731
0.611845
0.60351
0.593715
0.582421
0.5696
0.555194
0.539148
0.52137
0.501746
0.480099
0.456206
0.429725
0.400266
0.367058
0.329298
0.284652
0.230526
0.174713
0.0551916
0.180842
0.24283
0.290378
0.329153
0.362388
0.391384
0.417164
0.440299
0.461257
0.480356
0.497856
0.513955
0.528819
0.542582
0.555358
0.567243
0.578316
0.588655
0.598315
0.60736
0.615826
0.62378
0.631221
0.638247
0.644799
0.65104
0.656795
0.662395
0.667401
0.672535
0.676721
0.681751
0.684638
0.690292
0.691627
0.697579
0.706637
0.714537
0.72509
0.735894
0.748642
0.762646
0.778558
0.796318
0.816293
0.838637
0.863721
0.891779
0.923352
0.958682
0.998697
1.0435
1.09478
1.15216
1.21878
1.29305
1.38082
1.47783
1.59491
1.72263
1.8801
2.04948
2.26187
2.48832
2.77257
3.08187
3.44502
3.907
)
;
    }
    front
    {
        type            empty;
    }
    back
    {
        type            empty;
    }
}


// ************************************************************************* //
