0.0508 	21876.7 	45.4384 	-2.48911 	0 	-0.000926486 	0.00205283 	0 	0.000944127 	0 	-1.76406e-05
