/*--------------------------------*- C++ -*----------------------------------*\
| =========                 |                                                 |
| \\      /  F ield         | OpenFOAM: The Open Source CFD Toolbox           |
|  \\    /   O peration     | Version:  2306                                  |
|   \\  /    A nd           | Website:  www.openfoam.com                      |
|    \\/     M anipulation  |                                                 |
\*---------------------------------------------------------------------------*/
FoamFile
{
    version     2.0;
    format      ascii;
    arch        "LSB;label=32;scalar=64";
    class       volScalarField;
    location    "1000";
    object      cp;
}
// * * * * * * * * * * * * * * * * * * * * * * * * * * * * * * * * * * * * * //

dimensions      [0 0 0 0 0 0 0];

internalField   nonuniform List<scalar> 
20540
(
21.803
21.8005
21.803
21.8005
21.803
21.8005
21.803
21.8005
21.803
21.8005
21.803
21.8005
21.803
21.8005
21.803
21.8005
21.803
21.8005
21.803
21.8005
21.803
21.8005
21.803
21.8004
21.803
21.8004
21.803
21.8004
21.803
21.8004
21.803
21.8004
21.803
21.8003
21.803
21.8003
21.8029
21.8003
21.8029
21.8002
21.8029
21.8002
21.8029
21.8001
21.8029
21.8001
21.8029
21.8
21.8029
21.7999
21.8029
21.7998
21.8029
21.7997
21.8028
21.7995
21.8028
21.7994
21.8028
21.7993
21.8028
21.7992
21.8028
21.7991
21.8028
21.7991
21.8028
21.7991
21.8028
21.7992
21.8028
21.7993
21.8028
21.7994
21.8029
21.7995
21.8029
21.7996
21.8029
21.7997
21.8029
21.7998
21.8029
21.7999
21.8029
21.8
21.8029
21.8
21.8029
21.8001
21.8029
21.8001
21.8029
21.8002
21.803
21.8002
21.803
21.8002
21.803
21.8003
21.803
21.8003
21.803
21.8003
21.803
21.8003
21.803
21.8003
21.803
21.8003
21.803
21.8003
21.803
21.8003
21.803
21.8003
21.803
21.8003
21.803
21.8004
21.803
21.8004
21.803
21.8004
21.803
21.8004
21.803
21.8004
21.803
21.8004
21.7942
21.7819
21.7816
21.7856
21.794
21.8012
21.8115
21.821
21.8333
21.845
21.8591
21.8726
21.8881
21.9032
21.9198
21.936
21.9534
21.9705
21.9884
22.006
22.024
22.0418
22.0597
22.0773
22.0947
22.1118
22.1285
22.1448
22.1606
22.1759
22.1907
22.2049
22.2186
22.2318
22.2445
22.2567
22.2684
22.2797
22.2904
22.3007
22.3104
22.3196
22.3283
22.3365
22.3441
22.3511
22.3576
22.3634
22.3686
22.3731
22.377
22.3802
22.3829
22.3851
22.3869
22.3879
22.3884
22.387
22.3845
22.379
22.3717
22.3612
22.3483
22.3347
22.3248
22.3133
22.3019
22.289
22.2775
22.2645
22.2521
22.2375
22.2215
22.2034
22.1837
22.1628
22.1416
22.1198
22.098
22.0748
22.0508
22.0237
21.9944
21.96
21.9218
21.8749
21.8204
21.7396
21.7942
21.7819
21.7816
21.7856
21.794
21.8012
21.8115
21.821
21.8333
21.845
21.8591
21.8726
21.8881
21.9032
21.9198
21.936
21.9534
21.9705
21.9884
22.006
22.024
22.0418
22.0597
22.0773
22.0947
22.1118
22.1285
22.1448
22.1606
22.1759
22.1907
22.2049
22.2186
22.2318
22.2445
22.2567
22.2684
22.2797
22.2904
22.3007
22.3104
22.3196
22.3283
22.3365
22.3441
22.3511
22.3576
22.3634
22.3686
22.3731
22.377
22.3802
22.3829
22.3851
22.3869
22.3879
22.3884
22.387
22.3845
22.379
22.3717
22.3612
22.3483
22.3347
22.3248
22.3133
22.3019
22.289
22.2775
22.2645
22.2521
22.2375
22.2215
22.2034
22.1837
22.1628
22.1416
22.1198
22.098
22.0748
22.0508
22.0237
21.9944
21.96
21.9218
21.8749
21.8204
21.74
21.7942
21.7819
21.7816
21.7856
21.794
21.8012
21.8115
21.821
21.8333
21.845
21.8591
21.8726
21.8881
21.9032
21.9198
21.936
21.9534
21.9705
21.9884
22.006
22.024
22.0418
22.0597
22.0773
22.0947
22.1118
22.1285
22.1448
22.1606
22.1759
22.1907
22.2049
22.2186
22.2318
22.2445
22.2567
22.2684
22.2797
22.2904
22.3007
22.3104
22.3196
22.3283
22.3365
22.3441
22.3511
22.3576
22.3634
22.3686
22.3731
22.377
22.3802
22.3829
22.3851
22.3869
22.3879
22.3884
22.387
22.3845
22.379
22.3717
22.3612
22.3483
22.3347
22.3248
22.3133
22.3019
22.289
22.2775
22.2645
22.2521
22.2374
22.2215
22.2034
22.1837
22.1628
22.1416
22.1198
22.098
22.0748
22.0508
22.0237
21.9944
21.96
21.9218
21.8749
21.8204
21.7406
21.7942
21.7819
21.7816
21.7856
21.794
21.8012
21.8115
21.821
21.8333
21.845
21.8591
21.8726
21.8881
21.9032
21.9198
21.936
21.9534
21.9705
21.9884
22.006
22.024
22.0418
22.0597
22.0773
22.0947
22.1118
22.1285
22.1448
22.1606
22.1759
22.1907
22.2049
22.2186
22.2318
22.2445
22.2567
22.2684
22.2797
22.2904
22.3007
22.3104
22.3196
22.3283
22.3365
22.3441
22.3511
22.3576
22.3634
22.3686
22.3731
22.377
22.3802
22.3829
22.3851
22.3869
22.3879
22.3884
22.387
22.3845
22.379
22.3717
22.3612
22.3483
22.3347
22.3248
22.3133
22.3019
22.289
22.2775
22.2645
22.2521
22.2374
22.2215
22.2034
22.1837
22.1628
22.1416
22.1198
22.098
22.0748
22.0508
22.0237
21.9944
21.96
21.9218
21.8749
21.8206
21.7417
21.7942
21.7819
21.7816
21.7856
21.794
21.8012
21.8115
21.821
21.8333
21.845
21.8591
21.8726
21.8881
21.9032
21.9198
21.936
21.9534
21.9705
21.9884
22.006
22.024
22.0418
22.0597
22.0773
22.0947
22.1118
22.1285
22.1448
22.1606
22.1759
22.1907
22.2049
22.2186
22.2318
22.2445
22.2567
22.2684
22.2797
22.2904
22.3007
22.3104
22.3196
22.3283
22.3365
22.3441
22.3511
22.3576
22.3634
22.3686
22.3731
22.377
22.3802
22.3829
22.3851
22.3869
22.3879
22.3884
22.387
22.3845
22.379
22.3717
22.3612
22.3483
22.3347
22.3248
22.3133
22.3019
22.289
22.2775
22.2645
22.2521
22.2374
22.2215
22.2034
22.1837
22.1628
22.1416
22.1198
22.098
22.0748
22.0508
22.0237
21.9944
21.96
21.9219
21.8749
21.8208
21.7433
21.7942
21.7819
21.7816
21.7856
21.794
21.8012
21.8115
21.821
21.8333
21.845
21.8591
21.8726
21.8881
21.9032
21.9198
21.936
21.9534
21.9705
21.9884
22.006
22.024
22.0418
22.0597
22.0773
22.0947
22.1118
22.1285
22.1448
22.1606
22.1759
22.1907
22.2049
22.2186
22.2318
22.2445
22.2567
22.2684
22.2797
22.2904
22.3007
22.3104
22.3196
22.3283
22.3365
22.3441
22.3511
22.3576
22.3634
22.3686
22.3731
22.377
22.3802
22.3829
22.3851
22.3869
22.3879
22.3884
22.387
22.3845
22.379
22.3717
22.3612
22.3483
22.3347
22.3248
22.3133
22.3019
22.289
22.2775
22.2645
22.2521
22.2374
22.2215
22.2034
22.1837
22.1628
22.1416
22.1198
22.098
22.0748
22.0508
22.0237
21.9944
21.96
21.9219
21.875
21.8213
21.7455
21.7942
21.7819
21.7816
21.7856
21.794
21.8012
21.8115
21.821
21.8333
21.845
21.8591
21.8726
21.8881
21.9032
21.9198
21.936
21.9534
21.9705
21.9884
22.006
22.024
22.0418
22.0597
22.0773
22.0947
22.1118
22.1285
22.1448
22.1606
22.1759
22.1907
22.2049
22.2186
22.2318
22.2445
22.2567
22.2684
22.2797
22.2904
22.3007
22.3104
22.3196
22.3283
22.3365
22.3441
22.3511
22.3576
22.3634
22.3686
22.3731
22.377
22.3802
22.3829
22.3851
22.3869
22.3879
22.3884
22.387
22.3845
22.379
22.3717
22.3612
22.3483
22.3347
22.3248
22.3133
22.3019
22.289
22.2775
22.2645
22.252
22.2374
22.2214
22.2034
22.1837
22.1628
22.1416
22.1198
22.098
22.0748
22.0507
22.0237
21.9944
21.96
21.922
21.8752
21.8219
21.7484
21.7942
21.7819
21.7816
21.7856
21.794
21.8012
21.8115
21.821
21.8333
21.845
21.8591
21.8726
21.8881
21.9032
21.9198
21.936
21.9534
21.9705
21.9884
22.006
22.024
22.0418
22.0597
22.0773
22.0947
22.1118
22.1285
22.1448
22.1606
22.1759
22.1907
22.2049
22.2186
22.2318
22.2445
22.2567
22.2684
22.2797
22.2904
22.3007
22.3104
22.3196
22.3283
22.3365
22.3441
22.3511
22.3576
22.3634
22.3686
22.3731
22.377
22.3802
22.3829
22.3851
22.3869
22.3879
22.3884
22.387
22.3845
22.379
22.3717
22.3612
22.3483
22.3347
22.3248
22.3133
22.3019
22.289
22.2775
22.2645
22.252
22.2374
22.2214
22.2034
22.1836
22.1628
22.1416
22.1198
22.098
22.0748
22.0508
22.0237
21.9944
21.9601
21.9221
21.8754
21.8229
21.7519
21.7942
21.7819
21.7816
21.7856
21.794
21.8012
21.8115
21.821
21.8333
21.845
21.8591
21.8726
21.8881
21.9032
21.9198
21.936
21.9534
21.9705
21.9884
22.006
22.024
22.0418
22.0597
22.0773
22.0947
22.1118
22.1285
22.1448
22.1606
22.1759
22.1907
22.2049
22.2186
22.2318
22.2445
22.2567
22.2684
22.2797
22.2904
22.3007
22.3104
22.3196
22.3283
22.3365
22.3441
22.3511
22.3576
22.3634
22.3686
22.3731
22.377
22.3802
22.3829
22.3851
22.3869
22.3879
22.3884
22.387
22.3845
22.379
22.3717
22.3612
22.3483
22.3347
22.3247
22.3133
22.3019
22.289
22.2775
22.2645
22.252
22.2374
22.2214
22.2033
22.1836
22.1628
22.1416
22.1198
22.098
22.0748
22.0508
22.0237
21.9944
21.9602
21.9223
21.8759
21.8242
21.7562
21.7942
21.7819
21.7816
21.7856
21.794
21.8012
21.8115
21.821
21.8333
21.845
21.8591
21.8726
21.8881
21.9032
21.9198
21.936
21.9534
21.9705
21.9884
22.006
22.024
22.0418
22.0597
22.0773
22.0947
22.1118
22.1285
22.1448
22.1606
22.1759
22.1907
22.2049
22.2186
22.2318
22.2445
22.2567
22.2684
22.2797
22.2904
22.3007
22.3104
22.3196
22.3283
22.3365
22.3441
22.3511
22.3576
22.3634
22.3686
22.3731
22.377
22.3802
22.3829
22.3851
22.3869
22.3879
22.3884
22.387
22.3845
22.379
22.3717
22.3612
22.3483
22.3347
22.3247
22.3133
22.3019
22.289
22.2775
22.2645
22.252
22.2374
22.2214
22.2033
22.1836
22.1628
22.1416
22.1198
22.098
22.0749
22.0508
22.0237
21.9945
21.9603
21.9227
21.8766
21.826
21.7615
21.7942
21.7819
21.7816
21.7856
21.794
21.8012
21.8115
21.821
21.8333
21.845
21.8591
21.8726
21.8881
21.9032
21.9198
21.936
21.9534
21.9705
21.9884
22.006
22.024
22.0418
22.0597
22.0773
22.0947
22.1118
22.1285
22.1448
22.1606
22.1759
22.1907
22.2049
22.2186
22.2318
22.2445
22.2567
22.2684
22.2797
22.2904
22.3007
22.3104
22.3196
22.3283
22.3365
22.3441
22.3511
22.3576
22.3634
22.3686
22.3731
22.377
22.3802
22.3829
22.3851
22.3869
22.3879
22.3884
22.387
22.3845
22.379
22.3717
22.3612
22.3483
22.3347
22.3247
22.3133
22.3019
22.289
22.2775
22.2645
22.2519
22.2373
22.2213
22.2033
22.1836
22.1628
22.1416
22.1199
22.098
22.0749
22.0508
22.0238
21.9946
21.9606
21.9232
21.8778
21.8285
21.7679
21.7942
21.782
21.7816
21.7856
21.794
21.8012
21.8115
21.821
21.8333
21.845
21.8591
21.8726
21.8881
21.9032
21.9198
21.936
21.9534
21.9705
21.9884
22.006
22.024
22.0418
22.0597
22.0773
22.0947
22.1118
22.1285
22.1448
22.1606
22.1759
22.1907
22.2049
22.2186
22.2318
22.2445
22.2567
22.2684
22.2797
22.2904
22.3007
22.3104
22.3196
22.3283
22.3365
22.3441
22.3511
22.3576
22.3634
22.3686
22.3731
22.377
22.3802
22.3829
22.3851
22.3869
22.3879
22.3884
22.387
22.3845
22.379
22.3717
22.3612
22.3483
22.3347
22.3247
22.3133
22.3019
22.289
22.2774
22.2645
22.2519
22.2373
22.2212
22.2032
22.1836
22.1628
22.1417
22.1199
22.0981
22.075
22.0509
22.024
21.9949
21.9611
21.924
21.8795
21.8319
21.7756
21.7942
21.782
21.7816
21.7856
21.794
21.8012
21.8115
21.821
21.8333
21.845
21.8591
21.8726
21.8881
21.9032
21.9198
21.936
21.9534
21.9705
21.9884
22.006
22.024
22.0418
22.0597
22.0773
22.0947
22.1118
22.1285
22.1448
22.1606
22.1759
22.1907
22.2049
22.2186
22.2318
22.2445
22.2567
22.2684
22.2797
22.2904
22.3007
22.3104
22.3196
22.3283
22.3365
22.3441
22.3511
22.3576
22.3634
22.3686
22.3731
22.377
22.3802
22.3829
22.3851
22.3869
22.3879
22.3884
22.387
22.3845
22.379
22.3717
22.3612
22.3483
22.3347
22.3247
22.3133
22.3019
22.2891
22.2774
22.2645
22.2518
22.2372
22.2211
22.2031
22.1835
22.1628
22.1417
22.1201
22.0983
22.0752
22.0511
22.0243
21.9953
21.9618
21.9253
21.8821
21.8365
21.7848
21.7942
21.782
21.7816
21.7856
21.794
21.8012
21.8115
21.821
21.8333
21.845
21.8591
21.8726
21.8881
21.9032
21.9198
21.936
21.9534
21.9705
21.9884
22.006
22.024
22.0418
22.0597
22.0773
22.0947
22.1118
22.1285
22.1448
22.1606
22.1759
22.1907
22.2049
22.2186
22.2318
22.2445
22.2567
22.2684
22.2797
22.2904
22.3007
22.3104
22.3196
22.3283
22.3365
22.3441
22.3511
22.3576
22.3634
22.3686
22.3731
22.377
22.3803
22.3829
22.3851
22.387
22.3879
22.3885
22.3871
22.3845
22.379
22.3717
22.3611
22.3482
22.3347
22.3247
22.3133
22.3019
22.2891
22.2774
22.2645
22.2517
22.2371
22.221
22.203
22.1835
22.1629
22.1419
22.1203
22.0985
22.0755
22.0514
22.0247
21.996
21.963
21.9273
21.8857
21.8425
21.7956
21.7942
21.782
21.7816
21.7857
21.794
21.8012
21.8115
21.821
21.8333
21.845
21.8591
21.8726
21.8881
21.9032
21.9198
21.936
21.9534
21.9705
21.9884
22.006
22.024
22.0418
22.0597
22.0773
22.0947
22.1118
22.1285
22.1448
22.1606
22.1759
22.1907
22.2049
22.2186
22.2318
22.2445
22.2567
22.2684
22.2797
22.2904
22.3007
22.3104
22.3196
22.3283
22.3365
22.3441
22.3511
22.3576
22.3634
22.3686
22.3731
22.377
22.3803
22.383
22.3851
22.387
22.388
22.3885
22.3871
22.3845
22.379
22.3717
22.3611
22.3483
22.3348
22.3247
22.3134
22.3019
22.2892
22.2774
22.2645
22.2516
22.237
22.2209
22.2029
22.1835
22.163
22.1421
22.1206
22.0989
22.076
22.052
22.0255
21.9971
21.9648
21.9301
21.8907
21.8502
21.8081
21.7941
21.782
21.7816
21.7857
21.794
21.8012
21.8115
21.821
21.8333
21.845
21.8591
21.8726
21.8881
21.9032
21.9198
21.936
21.9534
21.9705
21.9884
22.006
22.024
22.0418
22.0597
22.0773
22.0947
22.1118
22.1285
22.1448
22.1606
22.1759
22.1906
22.2049
22.2186
22.2318
22.2445
22.2567
22.2684
22.2797
22.2904
22.3007
22.3104
22.3196
22.3283
22.3365
22.3441
22.3511
22.3576
22.3634
22.3686
22.3732
22.377
22.3803
22.383
22.3852
22.387
22.388
22.3885
22.3871
22.3845
22.379
22.3717
22.3612
22.3483
22.3348
22.3247
22.3134
22.302
22.2893
22.2774
22.2645
22.2515
22.2369
22.2207
22.2029
22.1836
22.1632
22.1424
22.1211
22.0995
22.0767
22.0528
22.0267
21.9987
21.9675
21.9341
21.8972
21.8597
21.8222
21.7941
21.782
21.7816
21.7857
21.794
21.8012
21.8115
21.821
21.8333
21.845
21.8591
21.8726
21.8881
21.9032
21.9198
21.936
21.9534
21.9705
21.9884
22.006
22.024
22.0418
22.0597
22.0773
22.0947
22.1118
22.1285
22.1448
22.1606
22.1759
22.1906
22.2049
22.2186
22.2318
22.2445
22.2567
22.2684
22.2797
22.2904
22.3007
22.3104
22.3196
22.3283
22.3365
22.3441
22.3511
22.3576
22.3634
22.3686
22.3732
22.3771
22.3804
22.3831
22.3853
22.3871
22.3881
22.3886
22.3872
22.3845
22.3791
22.3717
22.3612
22.3483
22.3349
22.3248
22.3136
22.3021
22.2895
22.2775
22.2646
22.2514
22.2368
22.2206
22.2028
22.1837
22.1635
22.143
22.1218
22.1003
22.0777
22.0541
22.0285
22.0011
21.9712
21.9394
21.9054
21.8711
21.8379
21.7941
21.7821
21.7817
21.7857
21.794
21.8012
21.8115
21.821
21.8333
21.845
21.8591
21.8726
21.8881
21.9032
21.9198
21.936
21.9534
21.9705
21.9884
22.006
22.024
22.0418
22.0597
22.0773
22.0947
22.1118
22.1285
22.1448
22.1606
22.1759
22.1906
22.2049
22.2186
22.2318
22.2445
22.2567
22.2684
22.2797
22.2904
22.3007
22.3104
22.3196
22.3283
22.3365
22.3441
22.3511
22.3576
22.3634
22.3687
22.3732
22.3771
22.3804
22.3832
22.3854
22.3872
22.3882
22.3887
22.3873
22.3845
22.3791
22.3717
22.3612
22.3484
22.3351
22.3249
22.3137
22.3022
22.2897
22.2776
22.2647
22.2514
22.2367
22.2206
22.2029
22.1839
22.1641
22.1437
22.1228
22.1015
22.0793
22.056
22.031
22.0046
21.9762
21.9464
21.9155
21.8847
21.8556
21.7941
21.7821
21.7817
21.7857
21.794
21.8012
21.8115
21.821
21.8333
21.845
21.8591
21.8726
21.8881
21.9032
21.9198
21.936
21.9534
21.9705
21.9884
22.006
22.024
22.0418
22.0597
22.0773
22.0947
22.1118
22.1285
22.1448
22.1606
22.1759
22.1906
22.2049
22.2186
22.2318
22.2445
22.2567
22.2684
22.2797
22.2904
22.3007
22.3104
22.3196
22.3283
22.3365
22.3441
22.3511
22.3576
22.3635
22.3687
22.3733
22.3772
22.3805
22.3833
22.3855
22.3873
22.3883
22.3888
22.3874
22.3846
22.3792
22.3718
22.3613
22.3485
22.3353
22.325
22.314
22.3025
22.29
22.2778
22.2649
22.2514
22.2367
22.2206
22.2031
22.1844
22.1649
22.1448
22.1243
22.1032
22.0814
22.0587
22.0346
22.0094
21.9828
21.9554
21.9277
21.9005
21.8754
21.7941
21.7821
21.7817
21.7857
21.794
21.8012
21.8115
21.821
21.8333
21.845
21.8591
21.8726
21.8881
21.9032
21.9198
21.936
21.9534
21.9705
21.9884
22.006
22.024
22.0418
22.0597
22.0773
22.0947
22.1118
22.1285
22.1448
22.1606
22.1759
22.1906
22.2049
22.2186
22.2318
22.2445
22.2567
22.2684
22.2797
22.2904
22.3007
22.3104
22.3196
22.3283
22.3365
22.3441
22.3512
22.3576
22.3635
22.3687
22.3733
22.3773
22.3806
22.3834
22.3856
22.3875
22.3885
22.3889
22.3875
22.3847
22.3793
22.3718
22.3615
22.3487
22.3356
22.3253
22.3144
22.3028
22.2905
22.2781
22.2652
22.2516
22.2369
22.2209
22.2036
22.1852
22.166
22.1464
22.1263
22.1057
22.0845
22.0625
22.0396
22.0159
21.9914
21.9667
21.9424
21.9188
21.8975
21.7941
21.7822
21.7817
21.7857
21.794
21.8012
21.8115
21.821
21.8333
21.845
21.8591
21.8726
21.8881
21.9032
21.9198
21.936
21.9534
21.9705
21.9884
22.006
22.024
22.0418
22.0597
22.0773
22.0947
22.1118
22.1285
22.1448
22.1606
22.1759
22.1906
22.2049
22.2186
22.2318
22.2445
22.2567
22.2684
22.2797
22.2904
22.3007
22.3104
22.3196
22.3283
22.3365
22.3441
22.3512
22.3577
22.3635
22.3688
22.3734
22.3774
22.3808
22.3836
22.3858
22.3877
22.3888
22.3891
22.3877
22.3848
22.3795
22.372
22.3617
22.349
22.336
22.3257
22.3149
22.3034
22.2911
22.2787
22.2657
22.252
22.2373
22.2214
22.2044
22.1865
22.1678
22.1486
22.1291
22.1092
22.0888
22.0678
22.0463
22.0244
22.0024
21.9806
21.9595
21.9396
21.922
21.794
21.7822
21.7817
21.7857
21.794
21.8013
21.8115
21.821
21.8333
21.845
21.8591
21.8726
21.8881
21.9032
21.9198
21.936
21.9534
21.9705
21.9884
22.006
22.024
22.0418
22.0597
22.0773
22.0947
22.1118
22.1285
22.1448
22.1606
22.1759
22.1906
22.2049
22.2186
22.2317
22.2444
22.2567
22.2684
22.2796
22.2904
22.3007
22.3104
22.3196
22.3283
22.3365
22.3441
22.3512
22.3577
22.3636
22.3689
22.3735
22.3775
22.3809
22.3838
22.3861
22.388
22.3891
22.3893
22.388
22.385
22.3797
22.3723
22.3621
22.3494
22.3367
22.3264
22.3157
22.3043
22.2921
22.2796
22.2666
22.2529
22.2383
22.2226
22.2059
22.1885
22.1704
22.1519
22.1331
22.114
22.0947
22.0751
22.0552
22.0355
22.0159
21.997
21.9792
21.9627
21.9484
21.794
21.7823
21.7817
21.7857
21.794
21.8013
21.8115
21.821
21.8334
21.845
21.8591
21.8726
21.8881
21.9032
21.9198
21.936
21.9534
21.9705
21.9884
22.006
22.024
22.0418
22.0597
22.0773
22.0947
22.1118
22.1285
22.1448
22.1606
22.1759
22.1906
22.2048
22.2185
22.2317
22.2444
22.2566
22.2684
22.2796
22.2904
22.3006
22.3104
22.3196
22.3283
22.3365
22.3441
22.3512
22.3577
22.3637
22.369
22.3737
22.3777
22.3812
22.3841
22.3865
22.3884
22.3895
22.3897
22.3883
22.3854
22.3801
22.3727
22.3627
22.3502
22.3377
22.3275
22.3169
22.3056
22.2935
22.281
22.268
22.2544
22.2399
22.2246
22.2084
22.1915
22.1742
22.1565
22.1387
22.1207
22.1026
22.0846
22.0666
22.0491
22.0321
22.0159
22.001
21.9874
21.9759
21.7939
21.7824
21.7818
21.7857
21.794
21.8013
21.8115
21.821
21.8334
21.845
21.8591
21.8726
21.8881
21.9032
21.9198
21.936
21.9534
21.9705
21.9884
22.006
22.024
22.0418
22.0597
22.0772
22.0947
22.1118
22.1285
22.1448
22.1606
22.1758
22.1906
22.2048
22.2185
22.2317
22.2444
22.2566
22.2684
22.2796
22.2904
22.3006
22.3104
22.3196
22.3283
22.3365
22.3442
22.3513
22.3578
22.3637
22.3691
22.3738
22.378
22.3815
22.3845
22.3869
22.3889
22.39
22.3902
22.3889
22.3859
22.3808
22.3734
22.3636
22.3514
22.3391
22.3291
22.3187
22.3075
22.2957
22.2833
22.2704
22.2569
22.2427
22.2278
22.2122
22.1961
22.1796
22.163
22.1462
22.1296
22.113
22.0966
22.0807
22.0653
22.0506
22.0369
22.0244
22.0132
22.0037
21.7939
21.7825
21.7818
21.7857
21.7941
21.8013
21.8115
21.821
21.8334
21.845
21.8591
21.8726
21.8881
21.9032
21.9198
21.936
21.9534
21.9705
21.9884
22.006
22.0241
22.0418
22.0597
22.0772
22.0947
22.1117
22.1285
22.1447
22.1606
22.1758
22.1906
22.2048
22.2185
22.2317
22.2444
22.2566
22.2683
22.2796
22.2903
22.3006
22.3103
22.3196
22.3283
22.3365
22.3442
22.3513
22.3579
22.3639
22.3693
22.3741
22.3783
22.3819
22.385
22.3876
22.3896
22.3907
22.3909
22.3897
22.3868
22.3818
22.3746
22.3651
22.3532
22.3413
22.3315
22.3214
22.3105
22.2989
22.2867
22.2741
22.2609
22.2471
22.2328
22.2179
22.2027
22.1873
22.1718
22.1563
22.1411
22.1261
22.1114
22.0973
22.0839
22.0712
22.0594
22.0487
22.0391
22.0308
21.7938
21.7826
21.7818
21.7857
21.7941
21.8013
21.8115
21.821
21.8334
21.845
21.8591
21.8726
21.8881
21.9032
21.9198
21.936
21.9534
21.9705
21.9884
22.006
22.0241
22.0418
22.0597
22.0772
22.0947
22.1117
22.1285
22.1447
22.1605
22.1758
22.1906
22.2048
22.2185
22.2317
22.2444
22.2566
22.2683
22.2795
22.2903
22.3006
22.3103
22.3196
22.3283
22.3365
22.3442
22.3514
22.358
22.364
22.3695
22.3744
22.3787
22.3825
22.3857
22.3884
22.3905
22.3918
22.392
22.3909
22.3881
22.3834
22.3765
22.3675
22.3561
22.3446
22.3352
22.3255
22.315
22.3037
22.292
22.2797
22.267
22.2538
22.2402
22.2262
22.212
22.1978
22.1835
22.1694
22.1556
22.1421
22.1291
22.1165
22.1046
22.0934
22.083
22.0734
22.0646
22.0569
21.7938
21.7827
21.7819
21.7858
21.7941
21.8013
21.8115
21.821
21.8334
21.845
21.8591
21.8726
21.8881
21.9032
21.9198
21.936
21.9535
21.9705
21.9884
22.006
22.0241
22.0418
22.0597
22.0772
22.0947
22.1117
22.1285
22.1447
22.1605
22.1758
22.1905
22.2048
22.2185
22.2316
22.2443
22.2565
22.2683
22.2795
22.2903
22.3005
22.3103
22.3195
22.3283
22.3365
22.3443
22.3515
22.3582
22.3643
22.3699
22.3749
22.3793
22.3833
22.3867
22.3895
22.3918
22.3932
22.3936
22.3927
22.3902
22.3858
22.3795
22.3711
22.3604
22.3496
22.3407
22.3315
22.3216
22.3109
22.2997
22.2881
22.276
22.2636
22.2509
22.2379
22.2249
22.2118
22.1988
22.1861
22.1735
22.1614
22.1496
22.1383
22.1275
22.1172
22.1075
22.0985
22.09
22.0822
21.7937
21.7828
21.7819
21.7858
21.7941
21.8013
21.8116
21.821
21.8334
21.845
21.8591
21.8726
21.8882
21.9032
21.9198
21.936
21.9535
21.9705
21.9884
22.006
22.0241
22.0418
22.0597
22.0772
22.0947
22.1117
22.1285
22.1447
22.1605
22.1758
22.1905
22.2047
22.2184
22.2316
22.2443
22.2565
22.2682
22.2795
22.2902
22.3005
22.3103
22.3195
22.3283
22.3366
22.3444
22.3516
22.3584
22.3646
22.3703
22.3755
22.3802
22.3843
22.388
22.3911
22.3936
22.3953
22.396
22.3954
22.3933
22.3896
22.384
22.3765
22.3668
22.357
22.3489
22.3404
22.3312
22.3213
22.3109
22.3001
22.289
22.2775
22.2658
22.254
22.2421
22.2302
22.2185
22.2069
22.1955
22.1844
22.1735
22.1631
22.153
22.1433
22.1339
22.125
22.1164
22.1084
21.7937
21.7829
21.782
21.7858
21.7941
21.8013
21.8116
21.821
21.8334
21.845
21.8591
21.8726
21.8882
21.9032
21.9199
21.936
21.9535
21.9705
21.9885
22.006
22.0241
22.0418
22.0597
22.0772
22.0947
22.1117
22.1284
22.1446
22.1605
22.1757
22.1905
22.2047
22.2184
22.2316
22.2442
22.2565
22.2682
22.2794
22.2902
22.3005
22.3102
22.3196
22.3284
22.3367
22.3446
22.3519
22.3588
22.3652
22.3711
22.3764
22.3814
22.3858
22.3898
22.3932
22.3961
22.3982
22.3994
22.3994
22.3982
22.3954
22.3909
22.3846
22.3763
22.3677
22.3606
22.3532
22.345
22.3361
22.3268
22.3171
22.3071
22.2968
22.2863
22.2757
22.265
22.2542
22.2436
22.233
22.2226
22.2123
22.2022
22.1923
22.1826
22.1732
22.164
22.155
22.1463
22.1379
21.7936
21.783
21.782
21.7858
21.7942
21.8013
21.8116
21.821
21.8334
21.845
21.8592
21.8726
21.8882
21.9032
21.9199
21.936
21.9535
21.9705
21.9885
22.006
22.0241
22.0417
22.0597
22.0772
22.0947
22.1117
22.1284
22.1446
22.1604
22.1757
22.1905
22.2047
22.2184
22.2315
22.2442
22.2564
22.2682
22.2794
22.2902
22.3005
22.3103
22.3196
22.3285
22.3369
22.3449
22.3523
22.3594
22.3659
22.3721
22.3778
22.383
22.3879
22.3923
22.3962
22.3996
22.4024
22.4044
22.4054
22.4053
22.4039
22.401
22.3965
22.3902
22.3832
22.3775
22.3715
22.3646
22.3571
22.3492
22.3409
22.3322
22.3233
22.3141
22.3047
22.2952
22.2857
22.276
22.2664
22.2568
22.2473
22.2378
22.2284
22.2191
22.2099
22.2008
22.1918
22.1829
22.1742
21.7935
21.7831
21.7821
21.7858
21.7942
21.8013
21.8116
21.821
21.8335
21.845
21.8592
21.8726
21.8882
21.9031
21.9199
21.936
21.9536
21.9705
21.9885
22.0059
22.0241
22.0417
22.0598
22.0772
22.0947
22.1116
22.1284
22.1446
22.1604
22.1757
22.1905
22.2046
22.2184
22.2315
22.2442
22.2564
22.2682
22.2794
22.2902
22.3005
22.3104
22.3198
22.3287
22.3372
22.3453
22.3529
22.3602
22.367
22.3734
22.3794
22.385
22.3903
22.3953
22.3998
22.404
22.4076
22.4107
22.413
22.4143
22.4147
22.4138
22.4115
22.4075
22.4026
22.3985
22.3941
22.3889
22.383
22.3766
22.3698
22.3626
22.3551
22.3472
22.3391
22.3309
22.3224
22.3138
22.3051
22.2963
22.2875
22.2786
22.2697
22.2608
22.2519
22.2431
22.2342
22.2254
22.2167
21.7935
21.7831
21.7821
21.7858
21.7942
21.8013
21.8116
21.821
21.8335
21.8449
21.8592
21.8725
21.8883
21.9031
21.92
21.9359
21.9536
21.9704
21.9886
22.0059
22.0242
22.0417
22.0598
22.0771
22.0948
22.1116
22.1285
22.1446
22.1605
22.1756
22.1905
22.2046
22.2184
22.2315
22.2443
22.2565
22.2682
22.2795
22.2903
22.3007
22.3106
22.32
22.329
22.3376
22.3458
22.3536
22.361
22.3681
22.3748
22.3811
22.3872
22.3929
22.3984
22.4037
22.4086
22.4132
22.4174
22.4212
22.4242
22.4266
22.4278
22.4279
22.4264
22.4237
22.4214
22.4187
22.4152
22.4111
22.4063
22.4011
22.3954
22.3893
22.3828
22.376
22.3689
22.3615
22.3539
22.3461
22.3381
22.33
22.3218
22.3135
22.3051
22.2967
22.2882
22.2797
22.2711
22.2626
21.7935
21.7831
21.7821
21.7858
21.7942
21.8012
21.8117
21.8209
21.8335
21.8449
21.8593
21.8725
21.8883
21.903
21.92
21.9359
21.9536
21.9704
21.9886
22.0058
22.0242
22.0416
22.0598
22.0771
22.0948
22.1116
22.1285
22.1445
22.1605
22.1756
22.1905
22.2047
22.2184
22.2316
22.2443
22.2565
22.2683
22.2796
22.2905
22.3008
22.3108
22.3203
22.3294
22.3381
22.3464
22.3544
22.362
22.3693
22.3763
22.383
22.3894
22.3957
22.4017
22.4077
22.4134
22.4191
22.4246
22.4299
22.4348
22.4393
22.4429
22.4456
22.4469
22.4466
22.4463
22.4456
22.4441
22.4417
22.4388
22.4353
22.4312
22.4266
22.4215
22.416
22.41
22.4038
22.3972
22.3904
22.3833
22.376
22.3686
22.361
22.3532
22.3454
22.3375
22.3295
22.3215
22.3134
21.7935
21.783
21.7821
21.7857
21.7942
21.8012
21.8117
21.8209
21.8335
21.8448
21.8593
21.8724
21.8884
21.9029
21.92
21.9358
21.9537
21.9703
21.9887
22.0058
22.0243
22.0416
22.0599
22.077
22.0948
22.1115
22.1285
22.1445
22.1605
22.1756
22.1906
22.2047
22.2185
22.2316
22.2444
22.2566
22.2684
22.2797
22.2906
22.301
22.3111
22.3206
22.3298
22.3386
22.3471
22.3552
22.363
22.3706
22.3778
22.3849
22.3917
22.3985
22.4051
22.4117
22.4183
22.425
22.4318
22.4388
22.4457
22.4525
22.4588
22.4643
22.4685
22.4709
22.4728
22.4744
22.475
22.4748
22.4738
22.4721
22.4698
22.4667
22.4631
22.459
22.4543
22.4492
22.4437
22.4378
22.4317
22.4252
22.4185
22.4117
22.4047
22.3977
22.3905
22.3833
22.376
22.3687
21.7936
21.7829
21.782
21.7857
21.7942
21.8011
21.8117
21.8208
21.8336
21.8448
21.8593
21.8723
21.8884
21.9029
21.9201
21.9357
21.9538
21.9702
21.9887
22.0057
22.0243
22.0415
22.0599
22.077
22.0949
22.1115
22.1286
22.1445
22.1606
22.1756
22.1907
22.2047
22.2186
22.2317
22.2445
22.2567
22.2686
22.2799
22.2908
22.3013
22.3114
22.321
22.3303
22.3392
22.3478
22.3561
22.3641
22.3719
22.3795
22.3869
22.3941
22.4013
22.4084
22.4157
22.423
22.4308
22.4389
22.4475
22.4566
22.4659
22.4751
22.4838
22.4911
22.4963
22.5008
22.505
22.5082
22.5103
22.5116
22.5119
22.5114
22.5101
22.5082
22.5055
22.5023
22.4984
22.494
22.489
22.4837
22.4779
22.472
22.4658
22.4596
22.4533
22.447
22.4407
22.4345
22.4284
21.7936
21.7827
21.782
21.7856
21.7942
21.8011
21.8117
21.8207
21.8336
21.8447
21.8594
21.8722
21.8884
21.9028
21.9201
21.9356
21.9538
21.9701
21.9888
22.0056
22.0244
22.0414
22.06
22.0769
22.095
22.1115
22.1287
22.1444
22.1606
22.1757
22.1908
22.2048
22.2187
22.2318
22.2447
22.2568
22.2688
22.2801
22.2911
22.3016
22.3117
22.3214
22.3307
22.3398
22.3485
22.3569
22.3651
22.3731
22.381
22.3887
22.3963
22.4038
22.4114
22.4191
22.4271
22.4356
22.4448
22.4548
22.466
22.4778
22.49
22.5021
22.5118
22.5198
22.5271
22.5343
22.5404
22.5451
22.5485
22.5509
22.5522
22.5527
22.5525
22.5516
22.55
22.5474
22.544
22.5397
22.5347
22.5291
22.5232
22.5171
22.5109
22.5049
22.4992
22.4937
22.4885
22.4837
21.7937
21.7826
21.7819
21.7856
21.7942
21.801
21.8117
21.8207
21.8336
21.8446
21.8594
21.8722
21.8885
21.9027
21.9202
21.9355
21.9539
21.97
21.9888
22.0055
22.0245
22.0413
22.0601
22.0769
22.095
22.1114
22.1288
22.1444
22.1607
22.1757
22.1909
22.2048
22.2188
22.2318
22.2448
22.2569
22.2689
22.2802
22.2913
22.3018
22.312
22.3217
22.3311
22.3403
22.349
22.3576
22.366
22.3742
22.3822
22.3902
22.398
22.4058
22.4137
22.4217
22.4301
22.4391
22.4489
22.46
22.473
22.487
22.5023
22.5176
22.5283
22.5382
22.5486
22.5593
22.5683
22.5755
22.5809
22.5848
22.5876
22.5897
22.5915
22.5927
22.5932
22.5924
22.5901
22.5863
22.5811
22.5747
22.5675
22.5599
22.5523
22.5452
22.5387
22.5332
22.5286
22.5249
21.7937
21.7824
21.7819
21.7855
21.7942
21.801
21.8117
21.8206
21.8336
21.8446
21.8594
21.8721
21.8885
21.9026
21.9202
21.9355
21.9539
21.9699
21.9889
22.0054
22.0245
22.0413
22.0601
22.0768
22.0951
22.1114
22.1288
22.1443
22.1608
22.1757
22.191
22.2049
22.2189
22.2319
22.2449
22.257
22.269
22.2804
22.2914
22.302
22.3122
22.322
22.3314
22.3407
22.3495
22.3582
22.3666
22.375
22.3832
22.3914
22.3994
22.4075
22.4155
22.4237
22.4322
22.4416
22.4517
22.4633
22.4778
22.4936
22.5128
22.5312
22.5404
22.5516
22.5656
22.5804
22.5927
22.6022
22.6092
22.6139
22.6172
22.6204
22.6244
22.6288
22.6326
22.6347
22.6346
22.6317
22.6259
22.6177
22.6073
22.5958
22.584
22.573
22.5636
22.5561
22.5507
22.5474
21.7938
21.7823
21.7819
21.7855
21.7942
21.8009
21.8117
21.8206
21.8336
21.8445
21.8594
21.8721
21.8885
21.9026
21.9202
21.9354
21.9539
21.9699
21.9889
22.0054
22.0246
22.0412
22.0602
22.0768
22.0952
22.1114
22.1289
22.1443
22.1608
22.1757
22.191
22.2049
22.219
22.232
22.245
22.2571
22.2691
22.2805
22.2915
22.3022
22.3123
22.3223
22.3317
22.341
22.3498
22.3587
22.3671
22.3758
22.3839
22.3924
22.4004
22.4088
22.4169
22.4253
22.4338
22.4434
22.4534
22.4652
22.4809
22.498
22.5222
22.5438
22.5479
22.5597
22.5785
22.5983
22.6145
22.6263
22.6345
22.6388
22.6405
22.6437
22.6503
22.6592
22.6683
22.6755
22.6793
22.6787
22.673
22.6622
22.6467
22.6277
22.6075
22.5884
22.572
22.5596
22.5512
22.5469
21.7938
21.7822
21.7818
21.7854
21.7942
21.8009
21.8117
21.8206
21.8336
21.8445
21.8594
21.872
21.8885
21.9025
21.9203
21.9354
21.954
21.9698
21.989
22.0053
22.0246
22.0412
22.0602
22.0767
22.0952
22.1114
22.1289
22.1443
22.1608
22.1758
22.1911
22.2049
22.219
22.232
22.245
22.2572
22.2692
22.2806
22.2916
22.3023
22.3125
22.3225
22.3318
22.3413
22.3501
22.3591
22.3675
22.3763
22.3845
22.3932
22.4013
22.4099
22.418
22.4265
22.435
22.4446
22.4543
22.4661
22.4823
22.5004
22.5315
22.556
22.5508
22.5625
22.5876
22.6137
22.6343
22.6487
22.6583
22.6604
22.6572
22.6583
22.6674
22.6824
22.6992
22.7141
22.7246
22.7286
22.7247
22.7114
22.6883
22.6573
22.6226
22.5888
22.5595
22.5372
22.5225
22.5155
21.7939
21.7821
21.7818
21.7854
21.7941
21.8009
21.8117
21.8206
21.8336
21.8445
21.8594
21.872
21.8885
21.9025
21.9203
21.9353
21.954
21.9698
21.989
22.0053
22.0246
22.0411
22.0602
22.0767
22.0952
22.1114
22.129
22.1442
22.1609
22.1758
22.1911
22.2049
22.2191
22.232
22.2451
22.2573
22.2692
22.2807
22.2917
22.3025
22.3125
22.3227
22.332
22.3415
22.3502
22.3595
22.3678
22.3768
22.3849