/*--------------------------------*- C++ -*----------------------------------*\
| =========                 |                                                 |
| \\      /  F ield         | OpenFOAM: The Open Source CFD Toolbox           |
|  \\    /   O peration     | Version:  2306                                  |
|   \\  /    A nd           | Website:  www.openfoam.com                      |
|    \\/     M anipulation  |                                                 |
\*---------------------------------------------------------------------------*/
FoamFile
{
    version     2.0;
    format      ascii;
    arch        "LSB;label=32;scalar=64";
    class       volScalarField;
    location    "1000";
    object      nut;
}
// * * * * * * * * * * * * * * * * * * * * * * * * * * * * * * * * * * * * * //

dimensions      [0 2 -1 0 0 0 0];

internalField   uniform 0;

boundaryField
{
    inlet
    {
        type            calculated;
        value           uniform 0;
    }
    outlet
    {
        type            calculated;
        value           uniform 0;
    }
    lowerWallStartup
    {
        type            symmetryPlane;
    }
    upperWallStartup
    {
        type            symmetryPlane;
    }
    upperWall
    {
        type            nutUBlendedWallFunction;
        value           nonuniform List<scalar> 
218
(
1.19325e-08
4.09057e-09
3.01381e-09
2.52002e-09
2.23568e-09
2.04827e-09
1.90141e-09
1.79874e-09
1.69773e-09
1.6345e-09
1.55478e-09
1.51334e-09
1.44404e-09
1.41719e-09
1.3531e-09
1.33686e-09
1.27498e-09
1.26694e-09
1.20563e-09
1.20433e-09
1.14271e-09
1.14728e-09
1.08467e-09
1.09496e-09
1.02955e-09
1.04843e-09
9.79796e-10
0.00739163
9.28172e-10
9.59109e-10
8.99728e-10
9.30055e-10
8.6539e-10
8.98632e-10
8.33651e-10
8.70337e-10
8.04213e-10
8.43573e-10
7.75482e-10
8.16547e-10
7.45246e-10
7.85957e-10
7.09654e-10
7.46448e-10
6.62198e-10
6.90166e-10
5.88789e-10
5.99759e-10
3.8202e-10
3.56947e-10
0.00186549
0.069442
0
0.00320455
4.29321e-10
4.46248e-10
7.91524e-10
0
2.31806e-09
7.20546e-09
0
9.49329e-09
0
1.16233e-08
8.10454e-09
4.9213e-09
7.22312e-09
5.47211e-09
1.42704e-09
2.3646e-08
3.40582e-08
2.75418e-09
1.68941e-08
1.71479e-08
1.12103e-08
7.95378e-09
4.41498e-09
1.03303e-09
3.01736e-09
7.51845e-09
1.15458e-08
1.36546e-08
1.54183e-08
2.05011e-08
2.68733e-08
2.99386e-08
2.69678e-08
4.82357e-09
0
1.00917e-08
1.36151e-08
1.56076e-08
1.56542e-08
1.44397e-08
1.28068e-08
9.87805e-09
7.1482e-09
5.5026e-09
0
2.21212e-09
0
1.00533e-09
1.10112e-09
3.14618e-09
4.05881e-09
4.68751e-09
5.28617e-09
4.86069e-09
4.60011e-09
2.63206e-09
0
0
0
0
3.00576e-09
6.3746e-09
7.40239e-09
8.42124e-09
8.14839e-09
8.53839e-09
3.75315e-09
6.80624e-10
0
2.30267e-09
0
0
4.95155e-09
1.83275e-08
3.49345e-08
4.20831e-08
2.31317e-08
1.54184e-08
0
1.43092e-08
0
8.53181e-09
1.45765e-08
1.18255e-08
0
2.71406e-08
6.7714e-08
7.03119e-08
3.91758e-08
2.23212e-09
4.67944e-08
9.74783e-08
1.06601e-07
7.99138e-08
1.29151e-08
1.84008e-08
0
2.24741e-09
1.15451e-08
5.73535e-08
9.92448e-08
9.31297e-08
4.49892e-08
0
1.40222e-08
6.31733e-09
0
7.81018e-09
0
0
7.05713e-09
1.0735e-08
1.26514e-08
1.21121e-08
1.02595e-08
7.55348e-09
4.05337e-09
0.000233825
0
0
0
3.1093e-09
3.5032e-09
5.22947e-09
5.72574e-09
6.6367e-09
6.90172e-09
7.03246e-09
6.78721e-09
6.12736e-09
4.50808e-09
3.11053e-09
1.48507e-09
4.30782e-10
9.82487e-10
2.49067e-09
7.78234e-09
1.26201e-08
2.69757e-08
3.06766e-08
4.19531e-08
0
4.26484e-08
3.23309e-08
1.56553e-09
1.81038e-08
1.9833e-08
2.26763e-08
3.39054e-08
3.71297e-08
1.71991e-08
6.3395e-09
2.71911e-08
3.69037e-08
3.22405e-08
8.3398e-09
2.01948e-08
4.32591e-08
2.43771e-08
1.04231e-08
5.63545e-09
3.88279e-10
0
0
)
;
    }
    lowerWall
    {
        type            nutUBlendedWallFunction;
        value           nonuniform List<scalar> 
266
(
1.29083e-08
4.39534e-09
3.22585e-09
2.68974e-09
2.38181e-09
2.17386e-09
2.0202e-09
1.9002e-09
1.80029e-09
1.71954e-09
1.64619e-09
1.5855e-09
1.52714e-09
1.47846e-09
1.42964e-09
1.38848e-09
1.34604e-09
1.30975e-09
1.27189e-09
1.23899e-09
1.20469e-09
1.17437e-09
1.14303e-09
1.11491e-09
1.08626e-09
1.06029e-09
1.03435e-09
1.01075e-09
9.87699e-10
9.66746e-10
9.46771e-10
9.28685e-10
9.11599e-10
8.959e-10
8.8119e-10
8.67763e-10
8.55638e-10
8.44974e-10
8.36016e-10
8.28829e-10
8.23765e-10
8.20865e-10
8.20602e-10
8.23114e-10
8.29076e-10
8.38889e-10
8.53594e-10
8.74057e-10
9.01813e-10
9.38117e-10
9.83594e-10
1.03669e-09
1.09836e-09
1.16023e-09
1.2353e-09
1.31382e-09
1.42507e-09
1.55806e-09
1.74625e-09
1.96226e-09
2.24264e-09
2.5559e-09
2.93738e-09
3.19532e-09
3.42203e-09
3.692e-09
4.02957e-09
4.34954e-09
4.63834e-09
4.9686e-09
5.29063e-09
5.70955e-09
6.1734e-09
6.67754e-09
7.22855e-09
7.76624e-09
8.32166e-09
8.91322e-09
9.5851e-09
1.03745e-08
1.1396e-08
1.25767e-08
1.41812e-08
1.59193e-08
1.86165e-08
2.10477e-08
2.8177e-08
2.09635e-08
5.45811e-05
0
0
0
0
0
0
0
0
1.31444e-06
2.46057e-06
3.44265e-06
3.43242e-06
5.9516e-07
0
0
0
0
3.56499e-06
1.62582e-05
2.80139e-05
3.81309e-05
4.62132e-05
5.11338e-05
5.0698e-05
4.6167e-05
3.94625e-05
3.18391e-05
2.39898e-05
1.62948e-05
8.99729e-06
2.3893e-06
0
0
0
0
0
0
0
0
0
0
0
0
0
0
0
0
0
2.5375e-09
1.5851e-09
2.01777e-09
1.71316e-09
1.26311e-09
5.28497e-09
8.00674e-09
9.23213e-09
8.98842e-09
7.61363e-09
5.81499e-09
3.19947e-09
0
3.91742e-09
6.68501e-09
7.15929e-09
5.87161e-09
2.99837e-09
1.61245e-09
4.14891e-09
3.65239e-09
0
0
1.33664e-09
3.49361e-10
1.49255e-09
4.26151e-09
4.56589e-09
0
2.13307e-09
4.18567e-09
4.65282e-09
4.42595e-09
3.82324e-09
3.12068e-09
2.43174e-09
1.838e-09
1.35588e-09
9.74621e-10
6.81677e-10
0.000185876
6.56215e-10
7.86831e-10
1.03783e-09
1.22646e-09
1.42702e-09
1.58997e-09
1.75049e-09
1.88302e-09
2.0081e-09
2.11222e-09
2.20717e-09
2.29249e-09
2.37021e-09
2.44566e-09
2.5151e-09
2.57731e-09
2.63303e-09
2.67886e-09
2.71828e-09
2.75282e-09
2.78258e-09
2.81071e-09
2.83467e-09
2.85736e-09
2.87565e-09
2.89318e-09
2.90646e-09
2.92051e-09
2.92934e-09
2.94044e-09
2.94411e-09
2.95073e-09
2.94794e-09
2.95369e-09
2.94683e-09
2.95809e-09
2.95289e-09
2.9629e-09
2.9526e-09
2.95116e-09
2.93461e-09
2.93834e-09
2.9444e-09
2.97189e-09
2.99367e-09
3.01148e-09
3.00012e-09
2.96793e-09
2.92357e-09
2.89755e-09
2.84466e-09
2.86326e-09
2.95339e-09
3.14639e-09
3.07797e-09
3.34675e-09
4.25463e-09
5.80257e-09
7.92854e-09
1.08458e-08
1.42427e-08
1.85761e-08
1.45157e-08
1.17286e-09
4.12906e-09
3.47468e-09
0
2.11897e-09
3.90709e-09
5.15774e-09
5.79493e-09
5.99878e-09
4.77559e-09
4.48742e-09
2.6896e-09
4.11279e-09
0
2.73077e-08
5.93945e-08
2.75637e-08
2.72356e-09
1.55579e-07
3.87252e-07
2.96131e-07
2.32185e-07
4.30356e-07
6.07909e-07
9.06666e-07
)
;
    }
    front
    {
        type            empty;
    }
    back
    {
        type            empty;
    }
}


// ************************************************************************* //
