/*--------------------------------*- C++ -*----------------------------------*\
| =========                 |                                                 |
| \\      /  F ield         | OpenFOAM: The Open Source CFD Toolbox           |
|  \\    /   O peration     | Version:  2306                                  |
|   \\  /    A nd           | Website:  www.openfoam.com                      |
|    \\/     M anipulation  |                                                 |
\*---------------------------------------------------------------------------*/
FoamFile
{
    version     2.0;
    format      ascii;
    arch        "LSB;label=32;scalar=64";
    class       volScalarField;
    location    "1000";
    object      p;
}
// * * * * * * * * * * * * * * * * * * * * * * * * * * * * * * * * * * * * * //

dimensions      [0 2 -2 0 0 0 0];

internalField   nonuniform List<scalar> 
20540
(
21297.6
21295.2
21297.6
21295.2
21297.6
21295.2
21297.6
21295.2
21297.6
21295.2
21297.6
21295.1
21297.6
21295.1
21297.6
21295.1
21297.6
21295.1
21297.6
21295.1
21297.6
21295.1
21297.6
21295.1
21297.6
21295.1
21297.6
21295.1
21297.6
21295.1
21297.6
21295
21297.6
21295
21297.6
21295
21297.6
21295
21297.5
21294.9
21297.5
21294.9
21297.5
21294.8
21297.5
21294.7
21297.5
21294.6
21297.5
21294.6
21297.5
21294.5
21297.5
21294.3
21297.5
21294.2
21297.4
21294.1
21297.4
21294
21297.4
21293.9
21297.4
21293.8
21297.4
21293.8
21297.4
21293.8
21297.4
21293.9
21297.4
21294
21297.4
21294.1
21297.5
21294.2
21297.5
21294.3
21297.5
21294.4
21297.5
21294.5
21297.5
21294.6
21297.5
21294.7
21297.5
21294.7
21297.5
21294.8
21297.6
21294.8
21297.6
21294.8
21297.6
21294.9
21297.6
21294.9
21297.6
21294.9
21297.6
21294.9
21297.6
21295
21297.6
21295
21297.6
21295
21297.6
21295
21297.6
21295
21297.6
21295
21297.6
21295
21297.6
21295
21297.6
21295
21297.6
21295
21297.6
21295
21297.6
21295
21297.6
21295
21297.6
21295
21289
21277
21276.7
21280.6
21288.8
21295.9
21305.9
21315.2
21327.2
21338.6
21352.4
21365.6
21380.7
21395.4
21411.7
21427.5
21444.5
21461.2
21478.7
21495.9
21513.5
21530.9
21548.4
21565.5
21582.6
21599.2
21615.6
21631.5
21646.9
21661.8
21676.3
21690.2
21703.6
21716.4
21728.8
21740.8
21752.2
21763.2
21773.7
21783.8
21793.3
21802.3
21810.8
21818.7
21826.1
21833
21839.3
21845
21850.1
21854.5
21858.3
21861.5
21864.1
21866.2
21868
21868.9
21869.5
21868.1
21865.6
21860.3
21853.2
21842.9
21830.2
21817
21807.3
21796
21785
21772.4
21761.1
21748.4
21736.3
21722
21706.4
21688.7
21669.5
21649.1
21628.4
21607
21585.7
21563.1
21539.6
21513.2
21484.6
21451
21413.7
21367.9
21314.6
21235.7
21289
21277
21276.7
21280.6
21288.8
21295.9
21305.9
21315.2
21327.2
21338.6
21352.4
21365.6
21380.7
21395.4
21411.7
21427.5
21444.5
21461.2
21478.7
21495.9
21513.5
21530.9
21548.4
21565.5
21582.6
21599.2
21615.6
21631.5
21646.9
21661.8
21676.3
21690.2
21703.6
21716.4
21728.8
21740.8
21752.2
21763.2
21773.7
21783.8
21793.3
21802.3
21810.8
21818.7
21826.1
21833
21839.3
21845
21850.1
21854.5
21858.3
21861.5
21864.1
21866.2
21868
21868.9
21869.5
21868.1
21865.6
21860.3
21853.2
21842.9
21830.2
21817
21807.3
21796
21784.9
21772.4
21761.1
21748.4
21736.3
21722
21706.4
21688.7
21669.5
21649.1
21628.4
21607
21585.7
21563.1
21539.6
21513.2
21484.6
21451
21413.7
21367.8
21314.6
21236
21289
21277
21276.7
21280.6
21288.8
21295.9
21305.9
21315.2
21327.2
21338.6
21352.4
21365.6
21380.7
21395.4
21411.7
21427.5
21444.5
21461.2
21478.7
21495.9
21513.5
21530.9
21548.4
21565.5
21582.6
21599.2
21615.6
21631.5
21646.9
21661.8
21676.3
21690.2
21703.6
21716.4
21728.8
21740.8
21752.2
21763.2
21773.7
21783.8
21793.3
21802.3
21810.8
21818.7
21826.1
21833
21839.3
21845
21850.1
21854.5
21858.3
21861.5
21864.1
21866.2
21868
21868.9
21869.5
21868.1
21865.6
21860.3
21853.2
21842.9
21830.2
21817
21807.3
21796
21784.9
21772.4
21761.1
21748.4
21736.3
21722
21706.4
21688.7
21669.5
21649.1
21628.3
21607
21585.7
21563.1
21539.6
21513.2
21484.6
21451
21413.7
21367.8
21314.6
21236.7
21289
21277
21276.7
21280.6
21288.8
21295.9
21305.9
21315.2
21327.2
21338.6
21352.4
21365.6
21380.7
21395.4
21411.7
21427.5
21444.5
21461.2
21478.7
21495.9
21513.5
21530.9
21548.4
21565.5
21582.6
21599.2
21615.6
21631.5
21646.9
21661.8
21676.3
21690.2
21703.6
21716.4
21728.8
21740.8
21752.2
21763.2
21773.7
21783.8
21793.3
21802.3
21810.8
21818.7
21826.1
21833
21839.3
21845
21850.1
21854.5
21858.3
21861.5
21864.1
21866.2
21868
21868.9
21869.5
21868.1
21865.6
21860.3
21853.2
21842.9
21830.2
21817
21807.3
21796
21784.9
21772.4
21761.1
21748.4
21736.3
21722
21706.4
21688.7
21669.5
21649.1
21628.3
21607
21585.7
21563.1
21539.6
21513.1
21484.6
21451
21413.7
21367.8
21314.8
21237.7
21289
21277
21276.7
21280.6
21288.8
21295.9
21305.9
21315.2
21327.2
21338.6
21352.4
21365.6
21380.7
21395.4
21411.7
21427.5
21444.5
21461.2
21478.7
21495.9
21513.5
21530.9
21548.4
21565.5
21582.6
21599.2
21615.6
21631.5
21646.9
21661.8
21676.3
21690.2
21703.6
21716.4
21728.8
21740.8
21752.2
21763.2
21773.7
21783.8
21793.3
21802.3
21810.8
21818.7
21826.1
21833
21839.3
21845
21850.1
21854.5
21858.3
21861.5
21864.1
21866.2
21868
21868.9
21869.5
21868.1
21865.6
21860.3
21853.2
21842.9
21830.2
21817
21807.3
21796
21784.9
21772.4
21761.1
21748.4
21736.3
21722
21706.4
21688.7
21669.5
21649.1
21628.3
21607
21585.7
21563.1
21539.6
21513.1
21484.6
21451
21413.7
21367.9
21315
21239.3
21289
21277
21276.7
21280.6
21288.8
21295.9
21305.9
21315.2
21327.2
21338.6
21352.4
21365.6
21380.7
21395.4
21411.7
21427.5
21444.5
21461.2
21478.7
21495.9
21513.5
21530.9
21548.4
21565.5
21582.6
21599.2
21615.6
21631.5
21646.9
21661.8
21676.3
21690.2
21703.6
21716.4
21728.8
21740.8
21752.2
21763.2
21773.7
21783.8
21793.3
21802.3
21810.8
21818.7
21826.1
21833
21839.3
21845
21850.1
21854.5
21858.3
21861.5
21864.1
21866.2
21868
21868.9
21869.5
21868.1
21865.6
21860.3
21853.2
21842.8
21830.2
21817
21807.3
21796
21784.9
21772.4
21761.1
21748.4
21736.2
21722
21706.4
21688.7
21669.5
21649.1
21628.3
21607
21585.7
21563.1
21539.6
21513.1
21484.6
21451
21413.7
21367.9
21315.4
21241.5
21289
21277
21276.7
21280.6
21288.8
21295.9
21305.9
21315.2
21327.2
21338.6
21352.4
21365.6
21380.7
21395.4
21411.7
21427.5
21444.5
21461.2
21478.7
21495.9
21513.5
21530.9
21548.4
21565.5
21582.6
21599.2
21615.6
21631.5
21646.9
21661.8
21676.3
21690.2
21703.6
21716.4
21728.8
21740.8
21752.2
21763.2
21773.7
21783.8
21793.3
21802.3
21810.8
21818.7
21826.1
21833
21839.3
21845
21850.1
21854.5
21858.3
21861.5
21864.1
21866.2
21868
21868.9
21869.5
21868.1
21865.6
21860.3
21853.2
21842.8
21830.2
21817
21807.3
21796
21784.9
21772.4
21761.1
21748.4
21736.2
21722
21706.4
21688.7
21669.4
21649.1
21628.3
21607
21585.7
21563.1
21539.6
21513.1
21484.6
21451
21413.8
21368.1
21316.1
21244.2
21289
21277
21276.7
21280.6
21288.8
21295.9
21305.9
21315.2
21327.2
21338.6
21352.4
21365.6
21380.7
21395.4
21411.7
21427.5
21444.5
21461.2
21478.7
21495.9
21513.5
21530.9
21548.4
21565.5
21582.6
21599.2
21615.6
21631.5
21646.9
21661.8
21676.3
21690.2
21703.6
21716.4
21728.8
21740.8
21752.2
21763.2
21773.7
21783.8
21793.3
21802.3
21810.8
21818.7
21826.1
21833
21839.3
21845
21850.1
21854.5
21858.3
21861.5
21864.1
21866.2
21868
21868.9
21869.5
21868.1
21865.6
21860.3
21853.2
21842.8
21830.2
21817
21807.3
21796
21784.9
21772.4
21761.1
21748.4
21736.2
21722
21706.3
21688.7
21669.4
21649.1
21628.3
21607
21585.7
21563.1
21539.6
21513.2
21484.6
21451.1
21414
21368.4
21317
21247.7
21289
21277
21276.7
21280.6
21288.8
21295.9
21305.9
21315.2
21327.2
21338.6
21352.4
21365.6
21380.7
21395.4
21411.7
21427.5
21444.5
21461.2
21478.7
21495.9
21513.5
21530.9
21548.4
21565.5
21582.6
21599.2
21615.6
21631.5
21646.9
21661.8
21676.3
21690.2
21703.6
21716.4
21728.8
21740.8
21752.2
21763.2
21773.7
21783.8
21793.3
21802.3
21810.8
21818.7
21826.1
21833
21839.3
21845
21850.1
21854.5
21858.3
21861.5
21864.1
21866.2
21868
21868.9
21869.5
21868.1
21865.6
21860.3
21853.2
21842.8
21830.2
21817
21807.3
21796
21784.9
21772.4
21761.1
21748.4
21736.2
21721.9
21706.3
21688.7
21669.4
21649.1
21628.3
21607.1
21585.7
21563.1
21539.6
21513.2
21484.6
21451.2
21414.2
21368.8
21318.3
21251.9
21289
21277
21276.7
21280.6
21288.8
21295.9
21305.9
21315.2
21327.2
21338.6
21352.4
21365.6
21380.7
21395.4
21411.7
21427.5
21444.5
21461.2
21478.7
21495.9
21513.5
21530.9
21548.4
21565.5
21582.6
21599.2
21615.6
21631.5
21646.9
21661.8
21676.3
21690.2
21703.6
21716.4
21728.8
21740.8
21752.2
21763.2
21773.7
21783.8
21793.3
21802.3
21810.8
21818.7
21826.1
21833
21839.3
21845
21850.1
21854.5
21858.3
21861.5
21864.1
21866.2
21868
21868.9
21869.5
21868.1
21865.6
21860.3
21853.1
21842.8
21830.2
21817
21807.3
21796
21784.9
21772.4
21761.1
21748.4
21736.2
21721.9
21706.3
21688.6
21669.4
21649.1
21628.4
21607.1
21585.8
21563.2
21539.6
21513.2
21484.7
21451.3
21414.5
21369.5
21320.1
21257.1
21289
21277
21276.7
21280.7
21288.8
21295.9
21305.9
21315.2
21327.2
21338.6
21352.4
21365.6
21380.7
21395.4
21411.7
21427.5
21444.5
21461.2
21478.7
21495.9
21513.5
21530.9
21548.4
21565.5
21582.6
21599.2
21615.6
21631.5
21646.9
21661.8
21676.3
21690.2
21703.6
21716.4
21728.8
21740.8
21752.2
21763.2
21773.7
21783.8
21793.3
21802.3
21810.8
21818.7
21826.1
21833
21839.3
21845
21850.1
21854.5
21858.3
21861.5
21864.1
21866.2
21868
21868.9
21869.5
21868.1
21865.6
21860.3
21853.1
21842.8
21830.2
21817
21807.2
21796
21784.9
21772.4
21761.1
21748.4
21736.1
21721.9
21706.2
21688.6
21669.4
21649.1
21628.4
21607.1
21585.8
21563.2
21539.7
21513.3
21484.8
21451.6
21415
21370.7
21322.5
21263.3
21289
21277
21276.7
21280.7
21288.8
21295.9
21305.9
21315.2
21327.2
21338.6
21352.4
21365.6
21380.7
21395.4
21411.7
21427.5
21444.5
21461.2
21478.7
21495.9
21513.5
21530.9
21548.4
21565.5
21582.6
21599.2
21615.6
21631.5
21646.9
21661.8
21676.3
21690.2
21703.6
21716.4
21728.8
21740.8
21752.2
21763.2
21773.7
21783.8
21793.3
21802.3
21810.8
21818.7
21826.1
21833
21839.3
21845
21850.1
21854.5
21858.3
21861.5
21864.1
21866.2
21868
21868.9
21869.5
21868.1
21865.6
21860.3
21853.1
21842.8
21830.2
21817
21807.2
21796
21784.9
21772.4
21761
21748.4
21736.1
21721.8
21706.1
21688.5
21669.3
21649.1
21628.4
21607.2
21585.9
21563.3
21539.8
21513.5
21485
21452
21415.8
21372.4
21325.9
21270.9
21289
21277.1
21276.7
21280.7
21288.8
21295.9
21305.9
21315.2
21327.2
21338.6
21352.4
21365.6
21380.7
21395.4
21411.7
21427.5
21444.5
21461.2
21478.7
21495.9
21513.5
21530.9
21548.4
21565.5
21582.6
21599.2
21615.6
21631.5
21646.9
21661.8
21676.3
21690.2
21703.6
21716.4
21728.8
21740.8
21752.2
21763.2
21773.7
21783.8
21793.3
21802.3
21810.8
21818.7
21826.1
21833
21839.3
21845
21850.1
21854.5
21858.3
21861.5
21864.1
21866.2
21868
21869
21869.5
21868.1
21865.6
21860.3
21853.1
21842.8
21830.2
21817
21807.2
21796.1
21784.9
21772.4
21761
21748.4
21736
21721.8
21706
21688.5
21669.3
21649.1
21628.5
21607.3
21586
21563.5
21540
21513.7
21485.4
21452.7
21417.1
21374.9
21330.3
21279.8
21289
21277.1
21276.7
21280.7
21288.8
21295.9
21305.9
21315.2
21327.2
21338.6
21352.4
21365.6
21380.7
21395.4
21411.7
21427.5
21444.5
21461.2
21478.7
21495.9
21513.5
21530.9
21548.4
21565.5
21582.6
21599.2
21615.6
21631.5
21646.9
21661.8
21676.3
21690.2
21703.6
21716.4
21728.8
21740.8
21752.2
21763.2
21773.7
21783.8
21793.3
21802.3
21810.8
21818.7
21826.1
21833
21839.3
21845
21850.1
21854.5
21858.3
21861.5
21864.1
21866.2
21868
21869
21869.5
21868.1
21865.6
21860.3
21853.1
21842.8
21830.2
21817
21807.2
21796.1
21784.9
21772.4
21761
21748.4
21735.9
21721.7
21705.9
21688.4
21669.3
21649.1
21628.6
21607.5
21586.3
21563.8
21540.3
21514.2
21486.1
21453.9
21419
21378.4
21336.2
21290.4
21289
21277.1
21276.7
21280.7
21288.8
21295.9
21305.9
21315.2
21327.2
21338.6
21352.4
21365.6
21380.7
21395.4
21411.7
21427.5
21444.5
21461.2
21478.7
21495.9
21513.5
21530.9
21548.4
21565.5
21582.6
21599.2
21615.6
21631.5
21646.9
21661.8
21676.3
21690.2
21703.6
21716.4
21728.8
21740.8
21752.2
21763.2
21773.7
21783.8
21793.3
21802.3
21810.8
21818.7
21826.1
21833
21839.3
21845
21850.1
21854.5
21858.3
21861.5
21864.1
21866.2
21868.1
21869
21869.5
21868.1
21865.6
21860.3
21853.1
21842.8
21830.2
21817.1
21807.2
21796.1
21784.9
21772.5
21761
21748.4
21735.8
21721.6
21705.8
21688.3
21669.3
21649.3
21628.8
21607.8
21586.6
21564.2
21540.8
21515
21487.2
21455.7
21421.8
21383.3
21343.7
21302.6
21289
21277.1
21276.7
21280.7
21288.8
21295.9
21305.9
21315.2
21327.2
21338.6
21352.4
21365.6
21380.7
21395.4
21411.7
21427.5
21444.5
21461.2
21478.7
21495.9
21513.5
21530.9
21548.4
21565.5
21582.6
21599.2
21615.6
21631.5
21646.9
21661.8
21676.3
21690.2
21703.6
21716.4
21728.8
21740.8
21752.2
21763.2
21773.7
21783.8
21793.3
21802.3
21810.8
21818.7
21826.1
21833
21839.3
21845
21850.1
21854.6
21858.3
21861.5
21864.2
21866.3
21868.1
21869.1
21869.6
21868.2
21865.6
21860.3
21853.1
21842.8
21830.2
21817.1
21807.2
21796.2
21785
21772.6
21761
21748.4
21735.7
21721.4
21705.7
21688.2
21669.3
21649.5
21629.2
21608.3
21587.2
21564.9
21541.6
21516.1
21488.8
21458.3
21425.7
21389.6
21353
21316.3
21288.9
21277.1
21276.7
21280.7
21288.8
21295.9
21305.9
21315.2
21327.2
21338.6
21352.4
21365.6
21380.7
21395.4
21411.7
21427.5
21444.5
21461.2
21478.7
21495.9
21513.5
21530.9
21548.4
21565.5
21582.6
21599.2
21615.6
21631.5
21646.9
21661.8
21676.3
21690.2
21703.6
21716.4
21728.8
21740.8
21752.2
21763.2
21773.7
21783.8
21793.3
21802.3
21810.8
21818.7
21826.2
21833
21839.3
21845
21850.1
21854.6
21858.4
21861.6
21864.2
21866.4
21868.2
21869.1
21869.6
21868.2
21865.6
21860.3
21853.1
21842.8
21830.3
21817.2
21807.3
21796.3
21785.1
21772.8
21761.1
21748.5
21735.6
21721.3
21705.5
21688.2
21669.5
21649.8
21629.7
21609
21588
21566
21542.9
21517.9
21491.2
21461.9
21430.9
21397.6
21364.1
21331.7
21288.9
21277.2
21276.8
21280.7
21288.8
21295.9
21305.9
21315.2
21327.2
21338.6
21352.4
21365.6
21380.7
21395.4
21411.7
21427.5
21444.5
21461.2
21478.7
21495.9
21513.5
21530.9
21548.4
21565.5
21582.6
21599.2
21615.6
21631.5
21646.9
21661.8
21676.3
21690.2
21703.5
21716.4
21728.8
21740.8
21752.2
21763.2
21773.7
21783.8
21793.3
21802.3
21810.8
21818.7
21826.2
21833
21839.3
21845.1
21850.2
21854.6
21858.4
21861.6
21864.3
21866.5
21868.3
21869.2
21869.7
21868.3
21865.7
21860.4
21853.1
21842.9
21830.3
21817.4
21807.4
21796.5
21785.3
21773
21761.2
21748.6
21735.6
21721.3
21705.5
21688.2
21669.7
21650.3
21630.4
21610
21589.2
21567.5
21544.7
21520.3
21494.5
21466.8
21437.7
21407.5
21377.4
21348.9
21288.9
21277.2
21276.8
21280.7
21288.8
21295.9
21305.9
21315.2
21327.2
21338.6
21352.4
21365.6
21380.7
21395.4
21411.7
21427.5
21444.5
21461.2
21478.7
21495.9
21513.5
21530.9
21548.4
21565.5
21582.6
21599.2
21615.6
21631.5
21646.9
21661.8
21676.3
21690.2
21703.5
21716.4
21728.8
21740.8
21752.2
21763.2
21773.7
21783.8
21793.3
21802.3
21810.8
21818.7
21826.2
21833
21839.4
21845.1
21850.2
21854.7
21858.5
21861.7
21864.4
21866.6
21868.4
21869.4
21869.8
21868.4
21865.7
21860.4
21853.2
21843
21830.4
21817.6
21807.5
21796.8
21785.5
21773.3
21761.4
21748.8
21735.6
21721.3
21705.5
21688.4
21670.2
21651.1
21631.5
21611.4
21590.9
21569.6
21547.4
21523.8
21499.2
21473.2
21446.5
21419.4
21392.9
21368.3
21288.9
21277.2
21276.8
21280.7
21288.8
21295.9
21305.9
21315.2
21327.2
21338.6
21352.4
21365.6
21380.7
21395.4
21411.7
21427.5
21444.5
21461.2
21478.7
21495.9
21513.5
21530.9
21548.4
21565.5
21582.6
21599.2
21615.6
21631.5
21646.9
21661.8
21676.3
21690.2
21703.5
21716.4
21728.8
21740.8
21752.2
21763.2
21773.7
21783.7
21793.3
21802.3
21810.8
21818.7
21826.2
21833.1
21839.4
21845.1
21850.2
21854.7
21858.6
21861.8
21864.5
21866.7
21868.6
21869.6
21869.9
21868.6
21865.8
21860.6
21853.3
21843.1
21830.6
21817.9
21807.8
21797.1
21785.9
21773.8
21761.7
21749.1
21735.8
21721.4
21705.8
21688.9
21670.9
21652.2
21633
21613.4
21593.3
21572.6
21551.1
21528.7
21505.5
21481.7
21457.6
21433.7
21410.7
21390
21288.9
21277.3
21276.8
21280.7
21288.8
21295.9
21305.9
21315.2
21327.2
21338.6
21352.4
21365.6
21380.7
21395.5
21411.7
21427.5
21444.5
21461.2
21478.7
21495.9
21513.5
21530.9
21548.4
21565.5
21582.6
21599.2
21615.6
21631.5
21646.9
21661.8
21676.3
21690.2
21703.5
21716.4
21728.8
21740.8
21752.2
21763.2
21773.7
21783.7
21793.3
21802.3
21810.8
21818.7
21826.2
21833.1
21839.4
21845.2
21850.3
21854.8
21858.7
21862
21864.7
21866.9
21868.8
21869.8
21870.1
21868.8
21865.9
21860.7
21853.4
21843.4
21830.9
21818.3
21808.2
21797.7
21786.4
21774.4
21762.3
21749.6
21736.2
21721.9
21706.4
21689.7
21672.2
21653.9
21635.2
21616.2
21596.7
21576.7
21556.3
21535.3
21513.9
21492.4
21471.1
21450.5
21431.1
21413.9
21288.8
21277.3
21276.8
21280.7
21288.8
21295.9
21305.9
21315.2
21327.3
21338.6
21352.4
21365.6
21380.7
21395.5
21411.7
21427.5
21444.5
21461.2
21478.7
21495.9
21513.5
21530.9
21548.4
21565.5
21582.6
21599.2
21615.6
21631.5
21646.9
21661.8
21676.3
21690.1
21703.5
21716.4
21728.8
21740.8
21752.2
21763.2
21773.7
21783.7
21793.2
21802.3
21810.8
21818.7
21826.2
21833.1
21839.4
21845.2
21850.4
21854.9
21858.8
21862.1
21864.9
21867.2
21869.1
21870.1
21870.3
21869
21866.1
21861
21853.7
21843.7
21831.4
21818.9
21808.9
21798.4
21787.3
21775.4
21763.1
21750.4
21737.1
21722.8
21707.5
21691.2
21674.1
21656.5
21638.4
21620.1
21601.4
21582.5
21563.4
21544
21524.7
21505.6
21487.1
21469.7
21453.6
21439.6
21288.8
21277.4
21276.8
21280.7
21288.8
21295.9
21305.9
21315.2
21327.3
21338.7
21352.4
21365.6
21380.7
21395.5
21411.7
21427.5
21444.5
21461.2
21478.7
21495.9
21513.5
21530.9
21548.4
21565.5
21582.6
21599.2
21615.6
21631.4
21646.9
21661.8
21676.2
21690.1
21703.5
21716.4
21728.8
21740.7
21752.2
21763.2
21773.7
21783.7
21793.2
21802.3
21810.8
21818.7
21826.2
21833.1
21839.5
21845.3
21850.5
21855
21859
21862.4
21865.2
21867.6
21869.4
21870.5
21870.7
21869.4
21866.5
21861.4
21854.1
21844.3
21832.1
21819.9
21809.9
21799.6
21788.5
21776.8
21764.6
21751.9
21738.5
21724.4
21709.4
21693.6
21677.1
21660.2
21642.9
21625.5
21607.9
21590.3
21572.6
21555.1
21538
21521.4
21505.6
21491
21477.8
21466.5
21288.8
21277.5
21276.9
21280.7
21288.9
21295.9
21305.9
21315.2
21327.3
21338.7
21352.4
21365.6
21380.7
21395.5
21411.7
21427.6
21444.6
21461.2
21478.7
21495.9
21513.5
21530.9
21548.4
21565.5
21582.6
21599.2
21615.6
21631.4
21646.9
21661.8
21676.2
21690.1
21703.5
21716.4
21728.8
21740.7
21752.2
21763.2
21773.7
21783.7
21793.2
21802.2
21810.7
21818.7
21826.2
21833.2
21839.5
21845.4
21850.6
21855.2
21859.2
21862.7
21865.6
21868
21869.9
21871
21871.2
21869.9
21867
21862
21854.8
21845.3
21833.3
21821.3
21811.5
21801.4
21790.4
21778.8
21766.8
21754.2
21741
21727.1
21712.5
21697.3
21681.6
21665.5
21649.2
21632.9
21616.6
21600.4
21584.4
21568.8
21553.8
21539.5
21526.1
21513.9
21502.9
21493.7
21288.7
21277.6
21276.9
21280.7
21288.9
21295.9
21305.9
21315.2
21327.3
21338.7
21352.4
21365.6
21380.8
21395.5
21411.7
21427.6
21444.6
21461.2
21478.7
21495.9
21513.5
21530.9
21548.4
21565.5
21582.6
21599.2
21615.6
21631.4
21646.9
21661.8
21676.2
21690.1
21703.5
21716.4
21728.8
21740.7
21752.2
21763.1
21773.6
21783.7
21793.2
21802.2
21810.7
21818.7
21826.2
21833.2
21839.6
21845.5
21850.8
21855.4
21859.6
21863.1
21866.1
21868.6
21870.6
21871.7
21871.9
21870.7
21867.8
21863
21856
21846.7
21835.1
21823.4
21813.9
21804
21793.4
21782
21770.1
21757.8
21744.9
21731.4
21717.4
21702.9
21688
21673
21657.8
21642.8
21627.8
21613.2
21598.9
21585.1
21572
21559.6
21548.1
21537.6
21528.2
21520.2
21288.7
21277.7
21276.9
21280.8
21288.9
21295.9
21305.9
21315.2
21327.3
21338.7
21352.4
21365.6
21380.8
21395.5
21411.7
21427.6
21444.6
21461.2
21478.7
21495.9
21513.5
21530.9
21548.4
21565.5
21582.6
21599.2
21615.5
21631.4
21646.9
21661.8
21676.2
21690.1
21703.5
21716.3
21728.7
21740.7
21752.1
21763.1
21773.6
21783.6
21793.2
21802.2
21810.7
21818.8
21826.3
21833.3
21839.7
21845.6
21851
21855.8
21860
21863.7
21866.8
21869.4
21871.5
21872.7
21873
21871.9
21869.1
21864.5
21857.8
21849
21837.8
21826.7
21817.5
21808
21797.7
21786.7
21775.2
21763.3
21750.9
21738
21724.7
21711
21697.2
21683.2
21669.3
21655.6
21642
21628.9
21616.1
21603.9
21592.2
21581.3
21571.1
21561.7
21553.1
21545.6
21288.6
21277.8
21277
21280.8
21288.9
21295.9
21306
21315.2
21327.3
21338.7
21352.4
21365.6
21380.8
21395.5
21411.7
21427.6
21444.6
21461.2
21478.7
21495.9
21513.5
21530.9
21548.4
21565.5
21582.6
21599.2
21615.5
21631.4
21646.8
21661.7
21676.2
21690.1
21703.4
21716.3
21728.7
21740.6
21752.1
21763.1
21773.6
21783.6
21793.1
21802.2
21810.7
21818.8
21826.3
21833.4
21839.9
21845.9
21851.3
21856.2
21860.6
21864.4
21867.8
21870.5
21872.7
21874.1
21874.5
21873.6
21871.2
21866.9
21860.7
21852.5
21842.1
21831.5
21822.9
21813.9
21804.2
21793.7
21782.8
21771.4
21759.7
21747.5
21735.1
21722.4
21709.7
21696.9
21684.3
21671.8
21659.6
21647.7
21636.1
21625.1
21614.6
21604.5
21595.1
21586.2
21577.9
21570.4
21288.5
21277.9
21277
21280.8
21288.9
21295.9
21306
21315.2
21327.3
21338.7
21352.4
21365.6
21380.8
21395.5
21411.7
21427.6
21444.6
21461.2
21478.8
21495.9
21513.6
21530.8
21548.4
21565.5
21582.5
21599.2
21615.5
21631.4
21646.8
21661.7
21676.1
21690
21703.4
21716.3
21728.7
21740.6
21752
21763
21773.5
21783.6
21793.1
21802.2
21810.7
21818.8
21826.4
21833.5
21840.1
21846.2
21851.8
21856.9
21861.4
21865.5
21869
21872.1
21874.5
21876.2
21876.8
21876.3
21874.3
21870.6
21865.2
21857.8
21848.4
21838.7
21830.8
21822.6
21813.6
21803.9
21793.7
21783.2
21772.3
21761.1
21749.7
21738.1
21726.5
21714.9
21703.5
21692.1
21681
21670.1
21659.6
21649.3
21639.5
21630
21620.9
21612.1
21603.8
21595.9
21288.5
21278
21277.1
21280.8
21289
21296
21306
21315.2
21327.3
21338.7
21352.5
21365.6
21380.8
21395.5
21411.8
21427.5
21444.6
21461.2
21478.8
21495.9
21513.6
21530.8
21548.4
21565.5
21582.5
21599.1
21615.5
21631.3
21646.8
21661.7
21676.1
21690
21703.4
21716.2
21728.6
21740.5
21752
21763
21773.5
21783.5
21793.1
21802.2
21810.8
21818.9
21826.6
21833.8
21840.5
21846.7
21852.5
21857.8
21862.6
21866.9
21870.8
21874.2
21877
21879
21880.2
21880.2
21879
21876.2
21871.8
21865.7
21857.7
21849.2
21842.3
21835.1
21827.1
21818.4
21809.3
21799.8
21790
21780
21769.7
21759.3
21748.9
21738.4
21728
21717.6
21707.4
21697.4
21687.5
21677.9
21668.4
21659.2
21650.2
21641.5
21632.9
21624.7
21288.4
21278.1
21277.1
21280.8
21289
21296
21306
21315.2
21327.3
21338.6
21352.5
21365.6
21380.8
21395.4
21411.8
21427.5
21444.6
21461.2
21478.8
21495.9
21513.6
21530.8
21548.4
21565.4
21582.6
21599.1
21615.5
21631.3
21646.8
21661.6
21676.1
21689.9
21703.3
21716.2
21728.6
21740.5
21752
21763
21773.5
21783.5
21793.1
21802.3
21810.9
21819.1
21826.9
21834.2
21841.1
21847.5
21853.5
21859
21864.2
21868.9
21873.2
21877.1
21880.4
21883.1
21885.1
21886.1
21885.9
21884.5
21881.7
21877.3
21871.2
21864.4
21858.8
21852.9
21846.2
21838.9
21831.1
21823
21814.5
21805.8
21796.8
21787.7
21778.4
21769.1
21759.7
21750.3
21740.9
21731.6
21722.3
21713.1
21704
21695
21686.1
21677.4
21668.7
21660.2
21288.4
21278.2
21277.2
21280.8
21289
21295.9
21306
21315.2
21327.4
21338.6
21352.5
21365.6
21380.9
21395.4
21411.8
21427.5
21444.7
21461.2
21478.8
21495.8
21513.6
21530.8
21548.4
21565.4
21582.6
21599.1
21615.5
21631.3
21646.8
21661.6
21676.1
21689.9
21703.3
21716.2
21728.6
21740.5
21752
21763
21773.5
21783.6
21793.2
21802.4
21811.2
21819.5
21827.3
21834.8
21841.8
21848.5
21854.7
21860.6
21866.1
21871.3
21876.1
21880.6
21884.7
21888.2
21891.2
21893.4
21894.8
21895.1
21894.2
21892
21888.1
21883.3
21879.3
21875
21869.9
21864.1
21857.9
21851.3
21844.2
21836.9
21829.2
21821.3
21813.2
21805
21796.6
21788.1
21779.5
21770.9
21762.2
21753.5
21744.8
21736.1
21727.5
21718.8
21710.2
21701.7
21288.3
21278.2
21277.2
21280.8
21289
21295.9
21306
21315.2
21327.4
21338.6
21352.5
21365.5
21380.9
21395.4
21411.9
21427.4
21444.7
21461.1
21478.9
21495.8
21513.7
21530.7
21548.4
21565.4
21582.6
21599.1
21615.5
21631.2
21646.8
21661.6
21676.1
21689.9
21703.4
21716.2
21728.6
21740.6
21752.1
21763.1
21773.6
21783.7
21793.4
21802.6
21811.5
21819.9
21827.8
21835.5
21842.7
21849.6
21856.1
21862.3
21868.2
21873.9
21879.2
21884.3
21889.2
21893.7
21897.8
21901.4
21904.5
21906.7
21907.9
21908
21906.5
21903.9
21901.6
21899
21895.7
21891.6
21886.9
21881.8
21876.3
21870.3
21864
21857.3
21850.4
21843.1
21835.7
21828.1
21820.3
21812.4
21804.4
21796.3
21788.1
21779.8
21771.5
21763.2
21754.8
21746.6
21288.3
21278.1
21277.2
21280.8
21289
21295.9
21306.1
21315.1
21327.4
21338.5
21352.6
21365.5
21380.9
21395.3
21411.9
21427.4
21444.8
21461.1
21478.9
21495.7
21513.7
21530.7
21548.5
21565.3
21582.6
21599
21615.6
21631.2
21646.8
21661.6
21676.1
21690
21703.4
21716.2
21728.7
21740.6
21752.1
21763.2
21773.8
21783.9
21793.6
21802.9
21811.8
21820.3
21828.4
21836.2
21843.6
21850.8
21857.6
21864.1
21870.4
21876.5
21882.5
21888.2
21893.9
21899.4
21904.8
21910
21914.8
21919.2
21922.7
21925.3
21926.5
21926.3
21926
21925.3
21923.8
21921.5
21918.7
21915.2
21911.2
21906.7
21901.8
21896.4
21890.6
21884.5
21878
21871.4
21864.4
21857.3
21850.1
21842.6
21835.1
21827.4
21819.7
21811.9
21804
21796.2
21288.4
21278.1
21277.2
21280.7
21289
21295.8
21306.1
21315.1
21327.4
21338.5
21352.6
21365.4
21381
21395.2
21411.9
21427.3
21444.8
21461
21479
21495.7
21513.7
21530.6
21548.5
21565.3
21582.7
21599
21615.6
21631.2
21646.8
21661.6
21676.2
21690
21703.5
21716.3
21728.8
21740.7
21752.3
21763.3
21773.9
21784.1
21793.9
21803.2
21812.2
21820.8
21829.1
21837
21844.6
21852
21859.1
21866
21872.7
21879.3
21885.7
21892.2
21898.6
21905.2
21911.9
21918.6
21925.4
21932.1
21938.2
21943.6
21947.7
21950
21951.9
21953.4
21954.1
21953.8
21952.9
21951.2
21948.9
21946
21942.4
21938.4
21933.8
21928.9
21923.5
21917.7
21911.7
21905.4
21898.9
21892.2
21885.4
21878.5
21871.5
21864.4
21857.3
21850.2
21288.4
21278
21277.1
21280.7
21289
21295.8
21306.1
21315
21327.5
21338.4
21352.6
21365.3
21381
21395.2
21412
21427.2
21444.9
21460.9
21479
21495.6
21513.8
21530.6
21548.6
21565.2
21582.7
21599
21615.7
21631.2
21646.9
21661.6
21676.3
21690
21703.6
21716.3
21728.9
21740.8
21752.4
21763.4
21774.1
21784.3
21794.2
21803.6
21812.7
21821.4
21829.8
21837.9
21845.7
21853.3
21860.7
21867.9
21875
21882
21889
21896.1
21903.3
21910.8
21918.8
21927.2
21936.1
21945.2
21954.1
21962.6
21969.7
21974.8
21979.2
21983.3
21986.5
21988.5
21989.7
21990.1
21989.6
21988.3
21986.4
21983.9
21980.7
21976.9
21972.6
21967.8
21962.5
21956.9
21951.1
21945.1
21939
21932.8
21926.7
21920.6
21914.5
21908.5
21288.4
21277.8
21277.1
21280.6
21289
21295.7
21306.1
21314.9
21327.5
21338.3
21352.7
21365.2
21381.1
21395.1
21412
21427.1
21444.9
21460.8
21479.1
21495.5
21513.9
21530.5
21548.7
21565.2
21582.8
21598.9
21615.7
21631.1
21647
21661.6
21676.4
21690.1
21703.7
21716.4
21729
21740.9
21752.6
21763.6
21774.4
21784.6
21794.5
21804
21813.1
21821.9
21830.4
21838.7
21846.7
21854.5
21862.2
21869.7
21877.1
21884.5
21891.9
21899.4
21907.2
21915.5
21924.5
21934.3
21945.3
21956.8
21968.7
21980.5
21990
21997.8
22004.9
22012
22017.9
22022.5
22025.9
22028.1
22029.4
22030
22029.8
22028.9
22027.2
22024.8
22021.4
22017.2
22012.4
22006.9
22001.1
21995.1
21989.1
21983.2
21977.6
21972.3
21967.3
21962.6
21288.5
21277.7
21277
21280.6
21289
21295.7
21306.1
21314.9
21327.5
21338.3
21352.7
21365.2
21381.1
21395
21412.1
21427.1
21445
21460.8
21479.1
21495.4
21513.9
21530.4
21548.7
21565.1
21582.9
21598.9
21615.8
21631.1
21647
21661.7
21676.5
21690.1
21703.8
21716.5
21729.1
21741
21752.7
21763.8
21774.6
21784.8
21794.8
21804.3
21813.5
21822.4
21831
21839.4
21847.5
21855.6
21863.4
21871.2
21878.8
21886.5
21894.1
21902
21910.1
21919
21928.6
21939.4
21952.1
21965.7
21980.7
21995.6
22006.1
22015.8
22025.9
22036.4
22045.2
22052.2
22057.5
22061.3
22064
22066.1
22067.8
22069
22069.4
22068.7
22066.5
22062.8
22057.7
22051.4
22044.4
22036.9
22029.5
22022.6
22016.3
22010.9
22006.4
22002.8
21288.6
21277.5
21277
21280.5
21289
21295.6
21306.1
21314.8
21327.5
21338.2
21352.7
21365.1
21381.1
21394.9
21412.1
21427
21445
21460.7
21479.2
21495.3
21514
21530.3
21548.8
21565.1
21582.9
21598.9
21615.9
21631
21647.1
21661.7
21676.6
21690.1
21703.9
21716.6
21729.2
21741.1
21752.8
21763.9
21774.7
21785
21795
21804.6
21813.8
21822.8
21831.4
21840
21848.2
21856.4
21864.3
21872.4
21880.1
21888.1
21895.9
21904
21912.3
21921.4
21931.3
21942.6
21956.8
21972.2
21990.9
22008.9
22017.9
22028.9
22042.6
22057
22069
22078.3
22085.1
22089.7
22092.9
22096.1
22100
22104.3
22108
22110.1
22109.9
22107.1
22101.5
22093.4
22083.3
22072
22060.5
22049.8
22040.5
22033.2
22028
22024.7
21288.6
21277.4
21276.9
21280.5
21289
21295.6
21306.1
21314.8
21327.5
21338.2
21352.7
21365.1
21381.1
21394.9
21412.1
21426.9
21445
21460.6
21479.2
21495.3
21514
21530.3
21548.8
21565
21583
21598.8
21615.9
21631
21647.1
21661.7
21676.7
21690.2
21703.9
21716.6
21729.3
21741.2
21752.9
21764
21774.8
21785.2
21795.1
21804.8
21814
21823.2
21831.7
21840.5
21848.7
21857.1
21865.1
21873.3
21881.2
21889.3
21897.3
21905.5
21913.8
21923.1
21932.9
21944.5
21959.8
21976.5
22000.1
22021.2
22025.3
22036.8
22055.1
22074.5
22090.3
22101.8
22109.9
22114
22115.7
22118.8
22125.2
22133.9
22142.8
22149.9
22153.6
22153
22147.5
22136.9
22121.7
22103.2
22083.4
22064.8
22048.8
22036.6
22028.5
22024.2
21288.7
21277.3
21276.9
21280.5
21289
21295.6
21306.1
21314.8
21327.5
21338.1
21352.7
21365
21381.2
21394.8
21412.2
21426.9
21445.1
21460.6
21479.2
21495.2
21514.1
21530.3
21548.9
21565
21583
21598.8
21616
21631
21647.1
21661.7
21676.7
21690.2
21704
21716.7
21729.4
21741.3
21753
21764.2
21774.9
21785.4
21795.3
21805.1
21814.2
21823.4
21832
21840.9
21849
21857.7
21865.6
21874.1
21882
21890.4
21898.3
21906.7
21915
21924.3
21933.8
21945.3
21961.2
21978.8
22009.2
22033.1
22028
22039.5
22064
22089.6
22109.7
22123.7
22133.1
22135.1
22132
22133.1
22141.9
22156.6
22173
22187.6
22197.8
22201.8
22197.9
22185
22162.4
22132.1
22098.2
22065.2
22036.6
22014.8
22000.4
21993.6
21288.7
21277.2
21276.9
21280.4
21289
21295.5
21306.1
21314.7
21327.5
21338.1
21352.7
21365
21381.2
21394.8
21412.2
21426.9
21445.1
21460.5
21479.3
21495.2
21514.1
21530.2
21548.9
21565
21583.1
21598.8
21616
21630.9
21647.2
21661.7
21676.8
21690.2
21704
21716.7
21729.4
21741.3
21753
21764.2
21775
21785.5
21795.3
21805.2
21814.3
21823.7
21832.2
21841.2
21849.3
21858.1
21866
21874.8
21882.6
21891.3
21899.2
21907.6
21915.9
21925.3
21934.2
21945.5
21961.1
21979.2
22018.9
22044.9
22026.2
22037.2
22069.8
22102.6
22127.5
22144.7
22156.5
22154.5
22141.7
22137.6
22148.6
22170.8
22196.9