/*--------------------------------*- C++ -*----------------------------------*\
| =========                 |                                                 |
| \\      /  F ield         | OpenFOAM: The Open Source CFD Toolbox           |
|  \\    /   O peration     | Version:  2306                                  |
|   \\  /    A nd           | Website:  www.openfoam.com                      |
|    \\/     M anipulation  |                                                 |
\*---------------------------------------------------------------------------*/
FoamFile
{
    version     2.0;
    format      ascii;
    arch        "LSB;label=32;scalar=64";
    class       surfaceScalarField;
    location    "1000";
    object      phi;
}
// * * * * * * * * * * * * * * * * * * * * * * * * * * * * * * * * * * * * * //

dimensions      [0 3 -1 0 0 0 0];

oriented        oriented;

internalField   nonuniform List<scalar> 
40747
(
1.75471e-05
-2.66615e-06
7.49569e-06
1.00527e-05
2.11959e-05
-5.85883e-06
1.5292e-05
1.34035e-05
2.55397e-05
-9.61831e-06
2.30996e-05
1.7739e-05
3.06581e-05
-1.39265e-05
3.05266e-05
2.32424e-05
3.66124e-05
-1.86603e-05
3.70809e-05
3.00757e-05
4.34394e-05
-2.35321e-05
4.22079e-05
3.83388e-05
5.11652e-05
-2.80366e-05
4.53821e-05
4.80287e-05
5.9868e-05
-3.14523e-05
4.6275e-05
5.90271e-05
6.98321e-05
-3.2985e-05
4.49941e-05
7.11838e-05
8.17979e-05
-3.21503e-05
4.22977e-05
8.4589e-05
9.71443e-05
-2.93217e-05
3.95382e-05
0.000100028
0.000117569
-2.59423e-05
3.80224e-05
0.000119245
0.000144063
-2.36831e-05
3.79966e-05
0.000144288
0.000176304
-2.29712e-05
3.84583e-05
0.000176086
0.000214066
-2.28895e-05
3.8472e-05
0.00021435
0.000258843
-2.2667e-05
3.80391e-05
0.00025964
0.000313001
-2.22643e-05
3.74559e-05
0.000314028
0.000378653
-2.17802e-05
3.67869e-05
0.000379864
0.000458089
-2.12131e-05
3.59964e-05
0.000459537
0.000554189
-2.05518e-05
3.50656e-05
0.000555917
0.000670453
-1.97856e-05
3.39771e-05
0.000672507
0.000811109
-1.89004e-05
3.27076e-05
0.00081355
0.000981276
-1.78823e-05
3.12291e-05
0.000984175
0.00118715
-1.67195e-05
2.95093e-05
0.00119059
0.00143622
-1.54037e-05
2.75103e-05
0.0014403
0.00173756
-1.39328e-05
2.51874e-05
0.0017424
0.00210214
-1.23116e-05
2.24865e-05
0.00210787
0.00254324
-1.06536e-05
1.92221e-05
0.00255
0.00307689
-9.16855e-06
1.49474e-05
0.00308489
0.0037225
-7.96863e-06
9.48645e-06
0.00373199
0.00356699
-6.40838e-06
4.92457e-06
0.00357594
0.0035671
-4.7042e-06
5.63188e-07
0.00357599
0.00356712
-2.94769e-06
-3.83003e-06
0.003576
0.00356706
-1.32351e-06
-8.67764e-06
0.003576
0.00360969
2.21795e-07
-1.41247e-05
0.00361885
0.00300267
2.31098e-06
-1.84093e-05
0.00301044
0.00249772
4.64924e-06
-2.18753e-05
0.00250433
0.00207768
7.02582e-06
-2.47401e-05
0.0020833
0.00172828
9.30673e-06
-2.7146e-05
0.00173306
0.00143765
1.14158e-05
-2.91888e-05
0.00144171
0.0011959
1.33171e-05
-3.09354e-05
0.00119935
0.000994802
1.50011e-05
-3.24351e-05
0.000997728
0.000827525
1.64747e-05
-3.3726e-05
0.000830006
0.000688378
1.77534e-05
-3.48371e-05
0.00069048
0.000572629
1.88575e-05
-3.57899e-05
0.000574409
0.000476342
1.98077e-05
-3.66061e-05
0.000477847
0.000396249
2.0619e-05
-3.73e-05
0.000397515
0.00032962
2.13129e-05
-3.79006e-05
0.000330694
0.000274249
2.18489e-05
-3.8415e-05
0.000275154
0.000228308
2.21309e-05
-3.8653e-05
0.000228868
0.00018979
2.25011e-05
-3.8356e-05
0.00018976
0.000156772
2.39207e-05
-3.79239e-05
0.000156561
0.000128692
2.68241e-05
-3.84506e-05
0.000129401
0.000106065
3.02275e-05
-4.04718e-05
0.000108233
8.8764e-05
3.25209e-05
-4.33039e-05
9.1712e-05
7.55682e-05
3.26926e-05
-4.56344e-05
7.79889e-05
6.49957e-05
3.06945e-05
-4.63625e-05
6.57933e-05
5.59974e-05
2.70956e-05
-4.49708e-05
5.46585e-05
4.80507e-05
2.26275e-05
-4.1477e-05
4.45964e-05
4.09648e-05
1.79126e-05
-3.62312e-05
3.5748e-05
3.46882e-05
1.33758e-05
-2.97236e-05
2.8201e-05
2.91992e-05
9.25677e-06
-2.24522e-05
2.19429e-05
2.44635e-05
5.65879e-06
-1.48534e-05
1.6878e-05
2.04254e-05
2.58593e-06
-7.28259e-06
1.28614e-05
1.7015e-05
9.73241e-06
7.25895e-07
9.33096e-06
3.72182e-07
3.55358e-07
2.95887e-07
7.9267e-08
2.55587e-07
4.04951e-08
2.30352e-07
2.69638e-08
2.11855e-07
1.78138e-08
1.97899e-07
1.48904e-08
1.86181e-07
1.07179e-08
1.76731e-07
9.90108e-09
1.68265e-07
7.24674e-09
1.61109e-07
7.13305e-09
1.5441e-07
5.22383e-09
1.48589e-07
5.3018e-09
1.42993e-07
3.82794e-09
1.38009e-07
3.94406e-09
1.33132e-07
2.78458e-09
1.28687e-07
2.86279e-09
1.243e-07
1.9459e-09
1.20225e-07
1.95326e-09
1.16196e-07
1.23922e-09
1.12395e-07
1.17185e-09
1.0865e-07
6.33832e-10
1.05079e-07
5.01494e-10
1.01583e-07
1.10195e-10
9.82321e-08
-7.44968e-11
9.49871e-08
-3.52729e-10
9.18823e-08
-5.67973e-10
8.89165e-08
-7.58906e-10
8.60991e-08
-9.73686e-10
8.34493e-08
-1.09859e-09
8.09607e-08
-1.28495e-09
7.86381e-08
-1.34075e-09
7.64479e-08
-1.43886e-09
7.43969e-08
-1.42427e-09
7.24774e-08
-1.4595e-09
7.0718e-08
-1.44436e-09
6.91323e-08
-1.47732e-09
6.77552e-08
-1.51415e-09
6.66132e-08
-1.59409e-09
6.57408e-08
-1.72075e-09
6.51726e-08
-1.88864e-09
6.4947e-08
-2.14273e-09
6.5113e-08
-2.44975e-09
6.57235e-08
-2.88801e-09
6.68538e-08
-3.40601e-09
6.8588e-08
-4.10774e-09
7.10442e-08
-4.92862e-09
7.43531e-08
-5.98963e-09
7.86627e-08
-7.20367e-09
8.40543e-08
-8.65002e-09
9.03873e-08
-1.00934e-08
9.76101e-08
-1.19875e-08
1.05228e-07
-1.36356e-08
1.13397e-07
-1.73371e-08
1.22667e-07
-1.98968e-08
1.33386e-07
-2.75004e-08
1.47637e-07
-3.00574e-08
1.64955e-07
-4.02228e-08
1.87148e-07
-3.98385e-08
2.12562e-07
-4.90822e-08
2.42941e-07
-4.56357e-08
2.76519e-07
-5.47347e-08
3.10171e-07
-4.56315e-08
3.28865e-07
-4.44804e-08
3.52652e-07
-3.90351e-08
3.7873e-07
-6.35702e-08
4.08934e-07
-5.48406e-08
4.33052e-07
-8.04475e-08
4.60986e-07
-7.46512e-08
4.86189e-07
-1.0128e-07
5.17421e-07
-9.81127e-08
5.51779e-07
-1.07047e-07
5.895e-07
-9.92972e-08
6.29531e-07
-9.12234e-08
6.69976e-07
-8.13714e-08
7.09199e-07
-8.02827e-08
7.50586e-07
-7.74036e-08
7.93655e-07
-9.17713e-08
8.44841e-07
-9.74752e-08
9.03771e-07
-1.19117e-07
9.77552e-07
-1.262e-07
1.06267e-06
-1.48135e-07
1.1679e-06
-1.54604e-07
1.29278e-06
-1.8099e-07
1.44238e-06
-1.92992e-07
1.67527e-06
-2.78414e-07
1.77294e-06
-1.37821e-07
-2.57521e-06
4.31264e-06
2.65135e-06
2.00956e-05
1.4357e-06
1.5757e-06
1.1409e-06
3.8294e-07
9.86042e-07
1.95732e-07
8.88432e-07
1.29729e-07
8.18111e-07
8.59505e-08
7.63101e-07
7.26862e-08
7.19227e-07
5.14561e-08
6.81294e-07
4.91333e-08
6.49957e-07
3.47625e-08
6.20935e-07
3.59811e-08
5.96287e-07
2.52514e-08
5.72633e-07
2.72433e-08
5.52103e-07
1.88275e-08
5.31972e-07
2.07471e-08
5.14135e-07
1.40803e-08
4.96433e-07
1.55594e-08
4.80524e-07
1.02338e-08
4.64652e-07
1.11552e-08
4.50297e-07
6.89976e-09
4.35941e-07
7.30576e-09
4.22962e-07
3.9341e-09
4.09974e-07
3.91922e-09
3.98298e-07
1.26977e-09
3.86651e-07
9.24629e-10
3.76278e-07
-1.13352e-09
3.65982e-07
-1.65871e-09
3.56862e-07
-3.16454e-09
3.47832e-07
-3.66693e-09
3.39805e-07
-4.64676e-09
3.31895e-07
-5.01664e-09
3.24751e-07
-5.48729e-09
3.17713e-07
-5.57151e-09
3.11231e-07
-5.63181e-09
3.05032e-07
-5.64076e-09
2.99435e-07
-5.68511e-09
2.94423e-07
-5.86303e-09
2.9016e-07
-6.12223e-09
2.86756e-07
-6.58434e-09
2.84277e-07
-7.20285e-09
2.82912e-07
-8.07084e-09
2.82715e-07
-9.23634e-09
2.83968e-07
-1.07455e-08
2.86793e-07
-1.27571e-08
2.91563e-07
-1.52332e-08
2.98505e-07
-1.84304e-08
3.08075e-07
-2.22014e-08
3.206e-07
-2.68791e-08
3.36475e-07
-3.21237e-08
3.55812e-07
-3.82049e-08
3.78025e-07
-4.42058e-08
4.03797e-07
-5.30878e-08
4.30765e-07
-5.9925e-08
4.63857e-07
-8.00717e-08
5.00356e-07
-9.00231e-08
5.49312e-07
-1.29006e-07
6.08249e-07
-1.37397e-07
6.826e-07
-1.83772e-07
7.6958e-07
-1.79038e-07
8.68779e-07
-2.17731e-07
9.79627e-07
-2.00283e-07
1.10189e-06
-2.37643e-07
1.21687e-06
-1.94171e-07
1.30517e-06
-2.05483e-07
1.37571e-06
-1.51594e-07
1.46809e-06
-2.58507e-07
1.54438e-06
-1.99427e-07
1.64577e-06
-3.31486e-07
1.72937e-06
-2.81559e-07
1.84944e-06
-4.11072e-07
1.96603e-06
-3.78371e-07
2.1069e-06
-4.17602e-07
2.24336e-06
-3.76075e-07
2.38191e-06
-3.45072e-07
2.513e-06
-3.03233e-07
2.64452e-06
-3.04235e-07
2.78073e-06
-2.94248e-07
2.93431e-06
-3.52169e-07
3.10658e-06
-3.68673e-07
3.31127e-06
-4.48686e-07
3.54087e-06
-4.61022e-07
3.81211e-06
-5.42453e-07
4.116e-06
-5.52277e-07
4.49046e-06
-6.58597e-07
4.89574e-06
-6.76113e-07
5.56454e-06
-1.02546e-06
6.05035e-06
-6.91476e-07
-4.99371e-06
8.41556e-06
5.56502e-06
3.22909e-05
3.18399e-06
3.96468e-06
2.53121e-06
1.05127e-06
2.18954e-06
5.37876e-07
1.97344e-06
3.54916e-07
1.81787e-06
2.37525e-07
1.69679e-06
1.98681e-07
1.59992e-06
1.42656e-07
1.51699e-06
1.3431e-07
1.44798e-06
9.68499e-08
1.38493e-06
9.86295e-08
1.33087e-06
7.09424e-08
1.27972e-06
7.52241e-08
1.23487e-06
5.36628e-08
1.19147e-06
5.80658e-08
1.15263e-06
4.10835e-08
1.11452e-06
4.45699e-08
1.07993e-06
3.10546e-08
1.04573e-06
3.32643e-08
1.01447e-06
2.24709e-08
9.83436e-07
2.3469e-08
9.55034e-07
1.48862e-08
9.26802e-07
1.48811e-08
9.0105e-07
8.08239e-09
8.75516e-07
7.27586e-09
8.52389e-07
1.92815e-09
8.29575e-07
6.74806e-10
8.09014e-07
-3.31104e-09
7.88817e-07
-4.52229e-09
7.70605e-07
-7.20503e-09
7.52846e-07
-8.13135e-09
7.36677e-07
-9.54815e-09
7.20923e-07
-9.81589e-09
7.0637e-07
-1.02023e-08
6.92535e-07
-1.03616e-08
6.80004e-07
-1.07315e-08
6.68769e-07
-1.14052e-08
6.59156e-07
-1.23417e-08
6.51393e-07
-1.37943e-08
6.45644e-07
-1.56533e-08
6.42281e-07
-1.81685e-08
6.41462e-07
-2.1421e-08
6.43732e-07
-2.55826e-08
6.49385e-07
-3.09849e-08
6.59157e-07
-3.76075e-08
6.73561e-07
-4.60121e-08
6.93529e-07
-5.59142e-08
7.19802e-07
-6.80568e-08
7.53272e-07
-8.16853e-08
7.94286e-07
-9.73691e-08
8.41863e-07
-1.12943e-07
8.971e-07
-1.35697e-07
9.55713e-07
-1.52838e-07
1.02586e-06
-2.02758e-07
1.10335e-06
-2.26084e-07
1.20359e-06
-3.19629e-07
1.32345e-06
-3.38813e-07
1.47247e-06
-4.47435e-07
1.64638e-06
-4.37501e-07
1.84426e-06
-5.26203e-07
2.06608e-06
-4.9005e-07
2.30911e-06
-5.73231e-07
2.54254e-06
-4.76648e-07
2.70983e-06
-4.75693e-07
2.86028e-06
-3.59829e-07
3.04347e-06
-5.80341e-07
3.21906e-06
-4.6679e-07
3.41905e-06
-7.2543e-07
3.60177e-06
-6.21522e-07
3.82196e-06
-8.62773e-07
4.03972e-06
-7.91523e-07
4.28733e-06
-8.60142e-07
4.53358e-06
-7.79738e-07
4.78659e-06
-7.25349e-07
5.03909e-06
-6.54221e-07
5.29497e-06
-6.60355e-07
5.56446e-06
-6.50198e-07
5.85826e-06
-7.58279e-07
6.18411e-06
-7.9644e-07
6.55678e-06
-9.47266e-07
6.97425e-06
-9.82454e-07
7.45448e-06
-1.14233e-06
7.98916e-06
-1.17702e-06
8.62901e-06
-1.39612e-06
9.31465e-06
-1.43514e-06
1.03326e-05
-2.1167e-06
1.13742e-05
-1.79668e-06
-7.39992e-06
1.37291e-05
9.81133e-06
4.57569e-05
5.95252e-06
7.83652e-06
4.7389e-06
2.29126e-06
4.10228e-06
1.1751e-06
3.6985e-06
7.74264e-07
3.40775e-06
5.21274e-07
3.18204e-06
4.32848e-07
3.00137e-06
3.13405e-07
2.84737e-06
2.92136e-07
2.71905e-06
2.1307e-07
2.60249e-06
2.14389e-07
2.50238e-06
1.56421e-07
2.40821e-06
1.63768e-07
2.3255e-06
1.18869e-07
2.2459e-06
1.26958e-07
2.17457e-06
9.17405e-08
2.10492e-06
9.82667e-08
2.0416e-06
7.03294e-08
1.97928e-06
7.4451e-08
1.9222e-06
5.21864e-08
1.86576e-06
5.39691e-08
1.81398e-06
3.6274e-08
1.76268e-06
3.60999e-08
1.71576e-06
2.20697e-08
1.66935e-06
2.0323e-08
1.62717e-06
9.26214e-09
1.58564e-06
6.6448e-09
1.54806e-06
-1.63671e-09
1.5112e-06
-4.15397e-09
1.47784e-06
-9.79907e-09
1.44537e-06
-1.17724e-08
1.41574e-06
-1.48832e-08
1.38697e-06
-1.55657e-08
1.36039e-06
-1.65992e-08
1.33518e-06
-1.71146e-08
1.31235e-06
-1.81465e-08
1.29189e-06
-1.97804e-08
1.27437e-06
-2.20047e-08
1.26019e-06
-2.52873e-08
1.24964e-06
-2.94285e-08
1.24338e-06
-3.49294e-08
1.24169e-06
-4.19476e-08
1.24552e-06
-5.08494e-08
1.25539e-06
-6.22753e-08
1.27257e-06
-7.62153e-08
1.29797e-06
-9.37517e-08
1.33318e-06
-1.14356e-07
1.3795e-06
-1.39456e-07
1.43851e-06
-1.67644e-07
1.51092e-06
-2.00005e-07
1.59542e-06
-2.3253e-07
1.69382e-06
-2.79341e-07
1.79974e-06
-3.14883e-07
1.92543e-06
-4.13734e-07
2.06484e-06
-4.58828e-07
2.24065e-06
-6.37219e-07
2.44858e-06
-6.71893e-07
2.70209e-06
-8.73417e-07
2.99575e-06
-8.5534e-07
3.3265e-06
-1.01619e-06
3.69693e-06
-9.55855e-07
4.09803e-06
-1.10153e-06
4.49201e-06
-9.34992e-07
4.76406e-06
-8.77398e-07
5.02619e-06
-6.92953e-07
5.32623e-06
-1.04801e-06
5.63736e-06
-8.87956e-07
5.96812e-06
-1.28288e-06
6.28852e-06
-1.12333e-06
6.63997e-06
-1.47393e-06
6.9911e-06
-1.35871e-06
7.37079e-06
-1.45056e-06
7.75366e-06
-1.33049e-06
8.1464e-06
-1.25259e-06
8.54846e-06
-1.15942e-06
8.95968e-06
-1.1764e-06
9.39547e-06
-1.17589e-06
9.86319e-06
-1.34164e-06
1.03746e-05
-1.41192e-06
1.09424e-05
-1.64247e-06
1.15681e-05
-1.71273e-06
1.22671e-05
-1.96119e-06
1.30372e-05
-2.03719e-06
1.39177e-05
-2.37421e-06
1.48902e-05
-2.48132e-06
1.61356e-05
-3.43609e-06
1.76585e-05
-3.38465e-06
-9.80459e-06
2.00093e-05
1.58043e-05
6.00823e-05
1.0214e-05
1.3447e-05
8.16635e-06
4.38136e-06
7.07646e-06
2.26567e-06
6.38249e-06
1.49372e-06
5.88199e-06
1.01005e-06
5.49418e-06
8.34619e-07
5.18364e-06
6.07334e-07
4.91977e-06
5.62275e-07
4.69981e-06
4.12739e-07
4.50095e-06
4.118e-07
4.33009e-06
3.0275e-07
4.17012e-06
3.14201e-07
4.02962e-06
2.30062e-07
3.89502e-06
2.43542e-07
3.77445e-06
1.77739e-07
3.65722e-06
1.88748e-07
3.55071e-06
1.36696e-07
3.44628e-06
1.43553e-07
3.3507e-06
1.02177e-07
3.25651e-06
1.04927e-07
3.17015e-06
7.21095e-08
3.08484e-06
7.14113e-08
3.00683e-06
4.54372e-08
2.92988e-06
4.19848e-08
2.85992e-06
2.15613e-08
2.79116e-06
1.66416e-08
2.72886e-06
1.40744e-09
2.66781e-06
-3.2212e-09
2.61244e-06
-1.35914e-08
2.55859e-06
-1.72181e-08
2.50942e-06
-2.30255e-08
2.46175e-06
-2.4375e-08
2.41775e-06
-2.64595e-08
2.37612e-06
-2.75666e-08
2.33848e-06
-2.96911e-08
2.30483e-06
-3.28972e-08
2.27606e-06
-3.72274e-08
2.25281e-06
-4.34809e-08
2.23555e-06
-5.13285e-08
2.22533e-06
-6.1659e-08
2.22259e-06
-7.47632e-08
2.22884e-06
-9.12983e-08
2.24491e-06
-1.1239e-07
2.2728e-06
-1.38019e-07
2.31392e-06
-1.70057e-07
2.37077e-06
-2.07575e-07
2.44533e-06
-2.53007e-07
2.54018e-06
-3.04038e-07
2.65654e-06
-3.62563e-07
2.79313e-06
-4.22304e-07
2.95272e-06
-5.0701e-07
3.12726e-06
-5.72746e-07
3.33305e-06
-7.44625e-07
3.56253e-06
-8.22472e-07
3.84453e-06
-1.11933e-06
4.17418e-06
-1.17429e-06
4.56653e-06
-1.49905e-06
5.01745e-06
-1.47052e-06
5.51818e-06
-1.72369e-06
6.07824e-06
-1.63717e-06
6.67664e-06
-1.85859e-06
7.28078e-06
-1.6163e-06
7.68997e-06
-1.43644e-06
8.10429e-06
-1.18784e-06
8.55165e-06
-1.68326e-06
9.03517e-06
-1.49414e-06
9.52984e-06
-2.02626e-06
1.00275e-05
-1.8185e-06
1.05426e-05
-2.26744e-06
1.10619e-05
-2.10789e-06
1.16005e-05
-2.21097e-06
1.21467e-05
-2.05244e-06
1.27036e-05
-1.94964e-06
1.32781e-05
-1.84111e-06
1.38683e-05
-1.87561e-06
1.44927e-05
-1.89354e-06
1.51546e-05
-2.12315e-06
1.58678e-05
-2.23263e-06
1.664e-05
-2.5461e-06
1.74762e-05
-2.65686e-06
1.83855e-05
-2.99422e-06
1.93756e-05
-3.12078e-06
2.0466e-05
-3.56613e-06
2.1685e-05
-3.77782e-06
2.31164e-05
-4.9459e-06
2.49687e-05
-5.30666e-06
-1.2137e-05
2.72448e-05
2.3987e-05
7.45125e-05
1.65847e-05
2.08787e-05
1.33841e-05
7.64556e-06
1.16215e-05
4.02888e-06
1.04906e-05
2.66371e-06
9.67186e-06
1.81032e-06
9.03848e-06
1.48961e-06
8.53057e-06
1.0891e-06
8.10059e-06
1.00189e-06
7.74167e-06
7.39655e-07
7.41906e-06
7.31904e-07
7.14156e-06
5.41571e-07
6.88334e-06
5.57199e-07
6.65633e-06
4.10909e-07
6.44025e-06
4.31124e-07
6.24657e-06
3.17078e-07
6.05944e-06
3.33776e-07
5.88939e-06
2.4386e-07
5.7236e-06
2.53975e-07
5.57184e-06
1.82744e-07
5.42307e-06
1.86248e-07
5.28667e-06
1.29931e-07
5.15253e-06
1.27886e-07
5.02987e-06
8.34675e-08
4.9093e-06
7.70615e-08
4.79961e-06
4.23207e-08
4.69208e-06
3.37576e-08
4.59449e-06
8.06024e-09
4.49896e-06
2.89648e-10
4.41213e-06
-1.7052e-08
4.32771e-06
-2.30512e-08
4.25055e-06
-3.28281e-08
4.17589e-06
-3.51491e-08
4.10706e-06
-3.88379e-08
4.04213e-06
-4.08786e-08
3.98354e-06
-4.4736e-08
3.93128e-06
-5.03996e-08
3.8867e-06
-5.80186e-08
3.85076e-06
-6.88539e-08
3.82415e-06
-8.24075e-08
3.8084e-06
-1.00125e-07
3.80423e-06
-1.22499e-07
3.81385e-06
-1.50601e-07
3.8385e-06
-1.86234e-07
3.88114e-06
-2.29358e-07
3.94378e-06
-2.82902e-07
4.0301e-06
-3.45395e-07
4.14295e-06
-4.20582e-07
4.28624e-06
-5.05104e-07
4.462e-06
-6.01926e-07
4.66974e-06
-7.02573e-07
4.91318e-06
-8.42507e-07
5.18404e-06
-9.54704e-07
5.50081e-06
-1.22613e-06
5.85631e-06
-1.35126e-06
6.28098e-06
-1.79812e-06
6.77214e-06
-1.88066e-06
7.34077e-06
-2.35358e-06
7.9895e-06
-2.31724e-06
8.69771e-06
-2.67792e-06
9.48838e-06
-2.57015e-06
1.03215e-05
-2.8756e-06
1.11868e-05
-2.56859e-06
1.17693e-05
-2.18355e-06
1.23804e-05
-1.88653e-06
1.30092e-05
-2.5145e-06
1.36972e-05
-2.31425e-06
1.43831e-05
-2.97762e-06
1.50893e-05
-2.73504e-06
1.5793e-05
-3.26561e-06
1.6508e-05
-3.06554e-06
1.72278e-05
-3.16396e-06
1.79576e-05
-2.96679e-06
1.86966e-05
-2.83589e-06
1.94566e-05
-2.71367e-06
2.02357e-05
-2.76923e-06
2.1053e-05
-2.80913e-06
2.19078e-05
-3.1039e-06
2.28153e-05
-3.25369e-06
2.37784e-05
-3.64796e-06
2.48043e-05
-3.79754e-06
2.59006e-05
-4.22229e-06
2.70762e-05
-4.39695e-06
2.83517e-05
-4.95096e-06
2.97639e-05
-5.27438e-06
3.13658e-05
-6.63349e-06
3.34528e-05
-7.46945e-06
-1.44165e-05
3.56744e-05
3.47435e-05
8.79054e-05
2.57857e-05
2.98762e-05
2.11574e-05
1.23618e-05
1.84512e-05
6.73517e-06
1.66864e-05
4.48362e-06
1.53988e-05
3.07117e-06
1.44037e-05
2.51561e-06
1.36025e-05
1.8523e-06
1.29279e-05
1.69018e-06
1.23624e-05
1.25853e-06
1.18586e-05
1.23177e-06
1.14234e-05
9.20473e-07
1.10224e-05
9.35801e-07
1.06685e-05
6.97855e-07
1.0335e-05
7.23092e-07
1.00351e-05
5.38449e-07
9.74812e-06
5.59779e-07
9.48657e-06
4.14879e-07
9.23391e-06
4.26991e-07
9.00198e-06
3.12728e-07
8.77647e-06
3.15331e-07
8.56914e-06
2.25374e-07
8.36671e-06
2.19999e-07
8.18107e-06
1.49355e-07
7.99965e-06
1.37847e-07
7.83403e-06
8.29496e-08
7.67232e-06
6.87837e-08
7.5249e-06
2.8564e-08
7.38096e-06
1.62723e-08
7.24946e-06
-1.06225e-08
7.12189e-06
-1.99826e-08
7.00494e-06
-3.53475e-08
6.8922e-06
-3.92662e-08
6.78831e-06
-4.55367e-08
6.69069e-06
-4.93153e-08
6.60275e-06
-5.61441e-08
6.52452e-06
-6.58279e-08
6.45791e-06
-7.87268e-08
6.40424e-06
-9.66615e-08
6.36452e-06
-1.18961e-07
6.34092e-06
-1.47791e-07
6.33447e-06
-1.83928e-07
6.34828e-06
-2.29001e-07
6.38413e-06
-2.85655e-07
6.44609e-06
-3.53867e-07
6.53699e-06
-4.37831e-07
6.66192e-06
-5.35513e-07
6.82475e-06
-6.5214e-07
7.03122e-06
-7.8351e-07
7.28439e-06
-9.33629e-07
7.58576e-06
-1.09281e-06
7.93955e-06
-1.30832e-06
8.33968e-06
-1.48856e-06
8.80328e-06
-1.88608e-06
9.32671e-06
-2.07828e-06
9.93453e-06
-2.70089e-06
1.06308e-05
-2.82365e-06
1.14136e-05
-3.46069e-06
1.22998e-05
-3.42613e-06
1.32489e-05
-3.90206e-06
1.43049e-05
-3.78446e-06
1.54028e-05
-4.17678e-06
1.65693e-05
-3.83003e-06
1.7354e-05
-3.14493e-06
1.8197e-05
-2.8231e-06
1.90363e-05
-3.5692e-06
1.99506e-05
-3.36944e-06
2.08419e-05
-4.15105e-06
2.17699e-05
-3.88703e-06
2.26709e-05
-4.47911e-06
2.35904e-05
-4.24322e-06
2.44995e-05
-4.32093e-06
2.54189e-05
-4.08265e-06
2.6345e-05
-3.91912e-06
2.72908e-05
-3.77979e-06
2.82542e-05
-3.85518e-06
2.92539e-05
-3.91461e-06
3.02856e-05
-4.27098e-06
3.13667e-05
-4.45769e-06
3.24976e-05
-4.9291e-06
3.3689e-05
-5.11399e-06
3.49511e-05
-5.62791e-06
3.6291e-05
-5.8471e-06
3.77418e-05
-6.52095e-06
3.93337e-05
-6.95824e-06
4.11218e-05
-8.51336e-06
4.3433e-05
-9.86134e-06
-1.67697e-05
4.57234e-05
4.82476e-05
9.88268e-05
3.85028e-05
3.96715e-05
3.24029e-05
1.85742e-05
2.85017e-05
1.06357e-05
2.58747e-05
7.18198e-06
2.39279e-05
4.98261e-06
2.24207e-05
4.06299e-06
2.11981e-05
3.02456e-06
2.0175e-05
2.73093e-06
1.9311e-05
2.06079e-06
1.85498e-05
1.98721e-06
1.78874e-05
1.50836e-06
1.72851e-05
1.50807e-06
1.67494e-05
1.14505e-06
1.62518e-05
1.16566e-06
1.5801e-05
8.85864e-07
1.53758e-05
9.0484e-07
1.49856e-05
6.86645e-07
1.46135e-05
6.95041e-07
1.42699e-05
5.2396e-07
1.39395e-05
5.20689e-07
1.36339e-05
3.86639e-07
1.33385e-05
3.73514e-07
1.30658e-05
2.68692e-07
1.28016e-05
2.48201e-07
1.25586e-05
1.67214e-07
1.23228e-05
1.44328e-07
1.21061e-05
8.54535e-08
1.18955e-05
6.64495e-08
1.17016e-05
2.71958e-08
1.15143e-05
1.26967e-08
1.13417e-05
-1.04857e-08
1.11763e-05
-1.76178e-08
1.10238e-05
-2.84531e-08
1.08813e-05
-3.59884e-08
1.07531e-05
-4.83494e-08
1.06395e-05
-6.50417e-08
1.05428e-05
-8.67697e-08
1.04649e-05
-1.15938e-07
1.04072e-05
-1.5177e-07
1.03726e-05
-1.97244e-07
1.03625e-05
-2.5355e-07
1.03811e-05
-3.22989e-07
1.04308e-05
-4.09187e-07
1.05169e-05
-5.12243e-07
1.06432e-05
-6.37713e-07
1.08164e-05
-7.83181e-07
1.10415e-05
-9.55309e-07
1.13264e-05
-1.14968e-06
1.16754e-05
-1.37082e-06
1.20931e-05
-1.60996e-06
1.25835e-05
-1.92375e-06
1.31455e-05
-2.19882e-06
1.37909e-05
-2.74819e-06
1.45227e-05
-3.03305e-06
1.53512e-05
-3.85056e-06
1.62922e-05
-4.03181e-06
1.732e-05
-4.83868e-06
1.84739e-05
-4.82012e-06
1.96861e-05
-5.4107e-06
2.10281e-05
-5.29724e-06
2.24072e-05
-5.77529e-06
2.38926e-05
-5.41746e-06
2.48887e-05
-4.32942e-06
2.59737e-05
-4.00799e-06
2.70336e-05
-4.8582e-06
2.81792e-05
-4.6658e-06
2.92758e-05
-5.54925e-06
3.04216e-05
-5.27362e-06
3.15139e-05
-5.90711e-06
3.26307e-05
-5.63845e-06
3.37236e-05
-5.68106e-06
3.48265e-05
-5.39802e-06
3.59344e-05
-5.19711e-06
3.70592e-05
-5.03553e-06
3.81987e-05
-5.12793e-06
3.93718e-05
-5.20336e-06
4.0571e-05
-5.618e-06
4.18191e-05
-5.84058e-06
4.31151e-05
-6.38904e-06
4.44765e-05
-6.61178e-06
4.59168e-05
-7.22247e-06
4.74424e-05
-7.49169e-06
4.91001e-05
-8.30535e-06
5.09121e-05
-8.86819e-06
5.29507e-05
-1.0648e-05
5.55386e-05
-1.25341e-05
-1.93616e-05
5.80615e-05
6.42877e-05
0.000105905
5.50999e-05
4.89217e-05
4.79819e-05
2.58281e-05
4.2839e-05
1.57773e-05
3.91758e-05
1.09309e-05
3.6379e-05
7.73621e-06
3.41952e-05
6.29525e-06
3.24003e-05
4.75817e-06
3.0905e-05
4.24724e-06
2.96278e-05
3.2628e-06
2.8516e-05
3.09164e-06
2.75378e-05
2.39599e-06
2.66619e-05
2.34729e-06
2.58744e-05
1.82547e-06
2.51548e-05
1.81853e-06
2.44964e-05
1.41984e-06
2.38853e-05
1.41944e-06
2.33195e-05
1.11084e-06
2.2788e-05
1.10234e-06
2.22928e-05
8.61857e-07
2.18232e-05
8.42242e-07
2.1385e-05
6.54642e-07
2.09665e-05
6.25342e-07
2.05768e-05
4.79075e-07
2.02028e-05
4.42841e-07
1.98557e-05
3.30218e-07
1.95215e-05
2.9347e-07
1.92113e-05
2.11916e-07
1.89116e-05
1.82443e-07
1.86333e-05
1.27658e-07
1.83658e-05
1.04711e-07
1.8118e-05
7.04678e-08
1.7882e-05
5.67222e-08
1.76644e-05
3.76795e-08
1.74622e-05
2.23223e-08
1.72806e-05
-1.95974e-10
1.71201e-05
-2.90636e-08
1.69837e-05
-6.5403e-08
1.68737e-05
-1.12149e-07
1.6792e-05
-1.68545e-07
1.6742e-05
-2.38382e-07
1.67259e-05
-3.23438e-07
1.67487e-05
-4.26752e-07
1.68135e-05
-5.53061e-07
1.69269e-05
-7.02736e-07
1.70937e-05
-8.82696e-07
1.73221e-05
-1.0905e-06
1.76183e-05
-1.33397e-06
1.79924e-05
-1.60941e-06
1.84496e-05
-1.9209e-06
1.89986e-05
-2.26353e-06
1.96426e-05
-2.69933e-06
2.03866e-05
-3.09878e-06
2.12351e-05
-3.82457e-06
2.21991e-05
-4.23123e-06
2.32685e-05
-5.25697e-06
2.44741e-05
-5.51815e-06
2.57594e-05
-6.49238e-06
2.71909e-05
-6.50499e-06
2.86703e-05
-7.20415e-06
3.02994e-05
-7.10837e-06
3.1961e-05
-7.67121e-06
3.37601e-05
-7.3259e-06
3.49587e-05
-5.72882e-06
3.62742e-05
-5.43069e-06
3.75465e-05
-6.37535e-06
3.89153e-05
-6.19755e-06
4.0211e-05
-7.16961e-06
4.15676e-05
-6.89093e-06
4.28466e-05
-7.54844e-06
4.4156e-05
-7.24916e-06
4.54304e-05
-7.24408e-06
4.67155e-05
-6.91306e-06
4.80053e-05
-6.67138e-06
4.93122e-05
-6.48487e-06
5.06334e-05
-6.59425e-06
5.19913e-05
-6.68733e-06
5.33762e-05
-7.16201e-06
5.4818e-05
-7.42745e-06
5.63141e-05
-8.05912e-06
5.78895e-05
-8.33236e-06
5.95615e-05
-9.05607e-06
6.13351e-05
-9.39063e-06
6.32689e-05
-1.03708e-05
6.53755e-05
-1.10782e-05
6.77421e-05
-1.31158e-05
7.06566e-05
-1.55389e-05
-2.22778e-05
7.34969e-05
8.22252e-05
0.000108501
7.52488e-05
5.59744e-05
6.82497e-05
3.29877e-05
6.23189e-05
2.17065e-05
5.77089e-05
1.56394e-05
5.39968e-05
1.13987e-05
5.1031e-05
9.31622e-06
4.8538e-05
7.1811e-06
4.64569e-05
6.35206e-06
4.46508e-05
4.98309e-06
4.30913e-05
4.64246e-06
4.17008e-05
3.68359e-06
4.04714e-05
3.53488e-06
3.93526e-05
2.82325e-06
3.8345e-05
2.7506e-06
3.74132e-05
2.21182e-06
3.65611e-05
2.16323e-06
3.57644e-05
1.74934e-06
3.50264e-05
1.70182e-06
3.43325e-05
1.38107e-06
3.36828e-05
1.328e-06
3.30713e-05
1.07853e-06
3.24937e-05
1.0197e-06
3.19512e-05
8.25282e-07
3.14355e-05
7.62888e-07
3.09525e-05
6.13153e-07
3.04909e-05
5.54665e-07
3.00586e-05
4.46099e-07
2.96434e-05
4.0028e-07
2.92546e-05
3.26067e-07
2.88829e-05
2.89397e-07
2.85366e-05
2.39537e-07
2.82086e-05
2.13622e-07
2.79058e-05
1.80766e-07
2.76259e-05
1.51102e-07
2.73746e-05
1.11441e-07
2.71529e-05
6.27792e-08
2.69644e-05
3.66903e-09
2.68115e-05
-6.92385e-08
2.66967e-05
-1.5532e-07
2.66237e-05
-2.59088e-07
2.65952e-05
-3.83115e-07
2.66167e-05
-5.31197e-07
2.66923e-05
-7.09305e-07
2.68293e-05
-9.18263e-07
2.70334e-05
-1.16631e-06
2.73141e-05
-1.45138e-06
2.76785e-05
-1.78214e-06
2.81386e-05
-2.15651e-06
2.87006e-05
-2.57726e-06
2.93764e-05
-3.04596e-06
3.01692e-05
-3.62655e-06
3.10894e-05
-4.17879e-06
3.21341e-05
-5.10339e-06
3.33228e-05
-5.66105e-06
3.46223e-05
-6.90481e-06
3.60813e-05
-7.26836e-06
3.7611e-05
-8.40583e-06
3.9306e-05
-8.46592e-06
4.10401e-05
-9.26957e-06
4.29448e-05
-9.20663e-06
4.48826e-05
-9.85912e-06
4.69842e-05
-9.54507e-06
4.83751e-05
-7.33424e-06
4.99107e-05
-7.08166e-06
5.13906e-05
-8.11668e-06
5.29818e-05
-7.96458e-06
5.44823e-05
-9.01429e-06
5.60571e-05
-8.74421e-06
5.75359e-05
-9.40861e-06
5.90509e-05
-9.08313e-06
6.05222e-05
-9.01934e-06
6.20055e-05
-8.63945e-06
6.34947e-05
-8.35607e-06
6.50048e-05
-8.14632e-06
6.65328e-05
-8.276e-06
6.81078e-05
-8.39657e-06
6.972e-05
-8.94081e-06
7.14071e-05
-9.26719e-06
7.31632e-05
-9.99527e-06
7.50159e-05
-1.03369e-05
7.69781e-05
-1.11857e-05
7.90529e-05
-1.15977e-05
8.131e-05
-1.27649e-05
8.37538e-05
-1.36316e-05
8.6488e-05
-1.59568e-05
8.97417e-05
-1.8889e-05
-2.55433e-05
9.29241e-05
0.00010139
0.000107437
9.78263e-05
5.96328e-05
9.25234e-05
3.84812e-05
8.69408e-05
2.72876e-05
8.20258e-05
2.06663e-05
7.77031e-05
1.56658e-05
7.40848e-05
1.2996e-05
7.09191e-05
1.02691e-05
6.82361e-05
9.06111e-06
6.58509e-05
7.27401e-06
6.37893e-05
6.69453e-06
6.19192e-05
5.44139e-06
6.02748e-05
5.13361e-06
5.87576e-05
4.20908e-06
5.74029e-05
4.02355e-06
5.61357e-05
3.32817e-06
5.49878e-05
3.19443e-06
5.39042e-05
2.66319e-06
5.29098e-05
2.54793e-06
5.19668e-05
2.13766e-06
5.10915e-05
2.02885e-06
5.02611e-05
1.70986e-06
4.94828e-05
1.60414e-06
4.87462e-05
1.35483e-06
4.80507e-05
1.25268e-06
4.73943e-05
1.0598e-06
4.67704e-05
9.69107e-07
4.61817e-05
8.28253e-07
4.56189e-05
7.58037e-07
4.50883e-05
6.59327e-07
4.45827e-05
6.01731e-07
4.41094e-05
5.30305e-07
4.36626e-05
4.84725e-07
4.3249e-05
4.30681e-07
4.28676e-05
3.78122e-07
4.25245e-05
3.12288e-07
4.22212e-05
2.34121e-07
4.19616e-05
1.42165e-07
4.17482e-05
3.28561e-08
4.15837e-05
-9.3324e-08
4.14717e-05
-2.41471e-07
4.14151e-05
-4.15131e-07
4.14195e-05
-6.18861e-07
4.14893e-05
-8.6001e-07
4.16325e-05
-1.14006e-06
4.1855e-05
-1.46857e-06
4.21676e-05
-1.84429e-06
4.2578e-05
-2.27656e-06
4.30997e-05
-2.76554e-06
4.374e-05
-3.31259e-06
4.45135e-05
-3.92712e-06
4.54243e-05
-4.67348e-06
4.64873e-05
-5.40419e-06
4.76935e-05
-6.54856e-06
4.90708e-05
-7.28566e-06
5.05663e-05
-8.75906e-06
5.22457e-05
-9.24984e-06
5.39929e-05
-1.0553e-05
5.59289e-05
-1.06811e-05
5.79033e-05
-1.1593e-05
6.00755e-05
-1.15841e-05
6.229e-05
-1.23394e-05
6.46971e-05
-1.20781e-05
6.62871e-05
-9.14967e-06
6.80513e-05
-8.96831e-06
6.97538e-05
-1.00901e-05
7.15829e-05
-9.97886e-06
7.33102e-05
-1.10956e-05
7.51242e-05
-1.08481e-05
7.68264e-05
-1.15014e-05
7.85674e-05
-1.11539e-05
8.02573e-05
-1.10216e-05
8.19606e-05
-1.05938e-05
8.36724e-05
-1.02703e-05
8.5413e-05
-1.00445e-05
8.7181e-05
-1.02033e-05
8.90113e-05
-1.03676e-05
9.08881e-05
-1.09903e-05
9.28552e-05
-1.13944e-05
9.48989e-05
-1.22252e-05
9.70533e-05
-1.2651e-05
9.93242e-05
-1.36295e-05
0.000101722
-1.41349e-05
0.000104315
-1.55006e-05
0.000107113
-1.65456e-05
0.000110219
-1.91751e-05
0.000113789
-2.25619e-05
-2.91344e-05
0.00011729
0.000122073
0.000104992
0.000121702
6.01198e-05
0.000119192
4.12223e-05
0.000115359
3.112e-05
0.000111342
2.48129e-05
0.000107281
1.96634e-05
0.000103606
1.67401e-05
0.000100154
1.36351e-05
9.71223e-05
1.21218e-05
9.43127e-05
9.9808e-06
9.18465e-05
9.15048e-06
8.95477e-05
7.61894e-06
8.75149e-05
7.11742e-06
8.56022e-05
5.98112e-06
8.38925e-05
5.64594e-06
8.22695e-05
4.79072e-06
8.08009e-05
4.53927e-06
7.93983e-05
3.88616e-06
7.81137e-05
3.67615e-06
7.6884e-05
3.17129e-06
7.57449e-05
2.98488e-06
7.46555e-05
2.59088e-06
7.36366e-05
2.42062e-06
7.26653e-05
2.11046e-06
7.17499e-05
1.95422e-06
7.08803e-05
1.71194e-06
7.00552e-05
1.57745e-06
6.92722e-05
1.39812e-06
6.8525e-05
1.29401e-06
6.78172e-05
1.16444e-06
6.71436e-05
1.07718e-06
6.65103e-05
9.76843e-07
6.59131e-05
9.02565e-07
6.53587e-05
8.18467e-07
6.48469e-05
7.32909e-07
6.43842e-05
6.30615e-07
6.39725e-05
5.12147e-07
6.36159e-05
3.7632e-07
6.3317e-05
2.19558e-07
6.30778e-05
4.24974e-08
6.29017e-05
-1.6034e-07
6.27911e-05
-3.93627e-07
6.27514e-05
-6.62748e-07
6.27868e-05
-9.76633e-07
6.29055e-05
-1.33769e-06
6.3114e-05
-1.75703e-06
6.34236e-05
-2.23458e-06
6.38433e-05
-2.78069e-06
6.43878e-05
-3.39802e-06
6.50667e-05
-4.0873e-06
6.58968e-05
-4.86604e-06
6.68844e-05
-5.79915e-06
6.80483e-05
-6.73352e-06
6.93761e-05
-8.12049e-06
7.09032e-05
-9.06705e-06
7.2561e-05
-1.07873e-05
7.44307e-05
-1.14332e-05
7.63738e-05
-1.29115e-05
7.85342e-05
-1.31319e-05
8.07418e-05
-1.41619e-05
8.31802e-05
-1.42362e-05
8.56765e-05
-1.51108e-05
8.83994e-05
-1.49332e-05
9.02037e-05
-1.11854e-05
9.22094e-05
-1.11019e-05
9.41534e-05
-1.23082e-05
9.62383e-05
-1.22557e-05
9.82072e-05
-1.34243e-05
0.000100263
-1.32038e-05
0.000102186
-1.38249e-05
0.000104145
-1.34533e-05
0.000106046
-1.32444e-05
0.000107964
-1.27711e-05
0.000109898
-1.24142e-05
0.000111873
-1.21844e-05
0.000113886
-1.23822e-05
0.000115977
-1.26072e-05
0.000118122
-1.33145e-05
0.000120372
-1.38125e-05
0.000122701
-1.4746e-05
0.000125155
-1.52725e-05
0.000127724
-1.63764e-05
0.000130441
-1.69989e-05
0.000133352
-1.85586e-05
0.000136496
-1.98127e-05
0.000139936
-2.27328e-05
0.00014377
-2.6504e-05
-3.29684e-05
0.000147507
0.00014633
0.000103422
0.000147419
5.91747e-05
0.000147316
4.16089e-05
0.000145794
3.26415e-05
0.000143678
2.7083e-05
0.000140953
2.23153e-05
0.000138197
1.95753e-05