/*--------------------------------*- C++ -*----------------------------------*\
| =========                 |                                                 |
| \\      /  F ield         | OpenFOAM: The Open Source CFD Toolbox           |
|  \\    /   O peration     | Version:  2306                                  |
|   \\  /    A nd           | Website:  www.openfoam.com                      |
|    \\/     M anipulation  |                                                 |
\*---------------------------------------------------------------------------*/
FoamFile
{
    version     2.0;
    format      ascii;
    arch        "LSB;label=32;scalar=64";
    class       volSymmTensorField;
    location    "1000";
    object      turbulenceProperties:devReff;
}
// * * * * * * * * * * * * * * * * * * * * * * * * * * * * * * * * * * * * * //

dimensions      [0 2 -2 0 0 0 0];

internalField   nonuniform List<symmTensor> 
20540
(
(-0.00126308 -0.0194859 -0 0.00126127 -0 1.80609e-06)
(0.0118235 0.0334486 -0 -0.0117976 -0 -2.58061e-05)
(-0.00125197 -0.062257 -0 0.00125179 -0 1.82105e-07)
(0.010199 0.105462 -0 -0.0102158 -0 1.68394e-05)
(-0.00121951 -0.111953 -0 0.0012199 -0 -3.86417e-07)
(0.00843609 0.187406 -0 -0.00844734 -0 1.12559e-05)
(-0.00115565 -0.166953 -0 0.00115605 -0 -4.00271e-07)
(0.0066235 0.273793 -0 -0.00662787 -0 4.36577e-06)
(-0.0010507 -0.223667 -0 0.00105154 -0 -8.45265e-07)
(0.00482539 0.354002 -0 -0.00482936 -0 3.97054e-06)
(-0.000895215 -0.275018 -0 0.000896497 -0 -1.28151e-06)
(0.00311259 0.415623 -0 -0.00311715 -0 4.55717e-06)
(-0.000685394 -0.310702 -0 0.000686323 -0 -9.29004e-07)
(0.00158196 0.443836 -0 -0.00158648 -0 4.51964e-06)
(-0.000430133 -0.319206 -0 0.00042929 -0 8.43276e-07)
(0.00035127 0.424161 -0 -0.000356371 -0 5.10097e-06)
(-0.000159696 -0.292503 -0 0.000156096 -0 3.60026e-06)
(-0.000461153 0.348853 -0 0.000452773 -0 8.38066e-06)
(7.06883e-05 -0.231998 -0 -7.60767e-05 -0 5.38838e-06)
(-0.000782925 0.227334 -0 0.000768444 -0 1.44813e-05)
(0.000197035 -0.151646 -0 -0.000201575 -0 4.54061e-06)
(-0.000660981 0.0939681 -0 0.000642703 -0 1.82774e-05)
(0.000190963 -0.074387 -0 -0.000193165 -0 2.20249e-06)
(-0.000310258 -0.00278062 -0 0.000297046 -0 1.32119e-05)
(0.000100706 -0.0216582 -0 -0.000102059 -0 1.35346e-06)
(-2.71833e-05 -0.0353971 -0 2.38399e-05 -0 3.34346e-06)
(2.03047e-05 -0.000135331 -0 -2.28313e-05 -0 2.52665e-06)
(3.93433e-05 -0.0228055 -0 -4.1165e-05 -0 1.82166e-06)
(-5.00601e-06 0.00190115 -0 1.35126e-06 -0 3.65474e-06)
(-1.30636e-05 -0.00498153 -0 5.94188e-06 -0 7.1217e-06)
(-1.75339e-06 6.20748e-06 -0 -2.29882e-06 -0 4.05221e-06)
(-5.05639e-05 0.000745232 -0 4.16323e-05 -0 8.93162e-06)
(1.09415e-06 -0.000289327 -0 -5.31041e-06 -0 4.21626e-06)
(-5.58978e-05 0.000380545 -0 4.87085e-05 -0 7.18929e-06)
(8.83064e-07 -4.81249e-05 -0 -5.11094e-06 -0 4.22788e-06)
(-5.43685e-05 -5.36208e-05 -0 4.82132e-05 -0 6.15522e-06)
(4.86536e-07 1.1677e-05 -0 -4.64096e-06 -0 4.15442e-06)
(-5.33399e-05 -6.50367e-05 -0 4.7083e-05 -0 6.25695e-06)
(2.19473e-07 7.82784e-06 -0 -4.34445e-06 -0 4.12498e-06)
(-5.24236e-05 -4.94457e-05 -0 4.59066e-05 -0 6.51699e-06)
(-3.24369e-08 4.35237e-06 -0 -4.07172e-06 -0 4.10416e-06)
(-5.15488e-05 -4.2065e-05 -0 4.48263e-05 -0 6.7225e-06)
(-3.0618e-07 1.99108e-06 -0 -3.74945e-06 -0 4.05563e-06)
(-5.06786e-05 -3.65407e-05 -0 4.37282e-05 -0 6.95047e-06)
(-6.00639e-07 3.35116e-07 -0 -3.39096e-06 -0 3.9916e-06)
(-4.9813e-05 -3.26132e-05 -0 4.26087e-05 -0 7.2043e-06)
(-8.92407e-07 -7.2682e-07 -0 -3.05195e-06 -0 3.94436e-06)
(-4.89863e-05 -2.95792e-05 -0 4.15353e-05 -0 7.45096e-06)
(-1.19227e-06 -1.34518e-06 -0 -2.71739e-06 -0 3.90967e-06)
(-4.81514e-05 -2.69457e-05 -0 4.04157e-05 -0 7.73572e-06)
(-1.64628e-06 -1.66696e-06 -0 -2.09856e-06 -0 3.74484e-06)
(-4.72562e-05 -2.43614e-05 -0 3.9146e-05 -0 8.11019e-06)
(-2.30527e-06 -1.78947e-06 -0 -1.09308e-06 -0 3.39835e-06)
(-4.6625e-05 -2.16262e-05 -0 3.83737e-05 -0 8.25128e-06)
(-2.78466e-06 -1.76549e-06 -0 -4.6528e-07 -0 3.24994e-06)
(-4.66777e-05 -1.86074e-05 -0 3.89378e-05 -0 7.73989e-06)
(-2.92107e-06 -1.67977e-06 -0 -5.30957e-07 -0 3.45203e-06)
(-4.69375e-05 -1.48997e-05 -0 3.98719e-05 -0 7.06559e-06)
(-3.12754e-06 -1.5704e-06 -0 -4.33269e-07 -0 3.56081e-06)
(-4.67773e-05 -1.00739e-05 -0 3.98596e-05 -0 6.91767e-06)
(-3.58788e-06 -1.38267e-06 -0 2.746e-07 -0 3.31328e-06)
(-4.60971e-05 -5.18231e-06 -0 3.86375e-05 -0 7.45965e-06)
(-3.98107e-06 -1.19885e-06 -0 9.52875e-07 -0 3.02819e-06)
(-4.54021e-05 -8.31291e-07 -0 3.71764e-05 -0 8.22571e-06)
(-3.87607e-06 -1.0606e-06 -0 7.38363e-07 -0 3.13771e-06)
(-4.57493e-05 3.47619e-06 -0 3.76711e-05 -0 8.07822e-06)
(-3.39087e-06 -7.97186e-07 -0 -1.35592e-07 -0 3.52646e-06)
(-4.69458e-05 7.81152e-06 -0 3.96571e-05 -0 7.28872e-06)
(-2.91509e-06 -5.36121e-07 -0 -8.88714e-07 -0 3.8038e-06)
(-4.79006e-05 1.26658e-05 -0 4.10492e-05 -0 6.85133e-06)
(-2.54657e-06 -3.42211e-07 -0 -1.32867e-06 -0 3.87524e-06)
(-4.8361e-05 1.72427e-05 -0 4.1331e-05 -0 7.03006e-06)
(-2.1006e-06 -1.16844e-07 -0 -1.90126e-06 -0 4.00186e-06)
(-4.83604e-05 2.07373e-05 -0 4.06452e-05 -0 7.7152e-06)
(-1.37043e-06 5.9186e-08 -0 -3.04408e-06 -0 4.4145e-06)
(-4.85295e-05 2.36472e-05 -0 4.0311e-05 -0 8.21847e-06)
(-6.25104e-07 1.46079e-07 -0 -4.23141e-06 -0 4.85651e-06)
(-4.91234e-05 2.61628e-05 -0 4.08439e-05 -0 8.27953e-06)
(-6.70119e-08 8.26172e-08 -0 -5.06511e-06 -0 5.13212e-06)
(-4.98071e-05 2.84345e-05 -0 4.157e-05 -0 8.23708e-06)
(4.08194e-07 -1.94657e-07 -0 -5.75551e-06 -0 5.34732e-06)
(-5.05414e-05 3.0671e-05 -0 4.24048e-05 -0 8.13668e-06)
(8.28194e-07 -7.22592e-07 -0 -6.35589e-06 -0 5.5277e-06)
(-5.13421e-05 3.3132e-05 -0 4.33719e-05 -0 7.97013e-06)
(1.21026e-06 -1.51301e-06 -0 -6.89601e-06 -0 5.68576e-06)
(-5.21964e-05 3.61678e-05 -0 4.444e-05 -0 7.7564e-06)
(1.56145e-06 -2.99563e-06 -0 -7.38306e-06 -0 5.82161e-06)
(-5.30557e-05 4.05117e-05 -0 4.55075e-05 -0 7.54822e-06)
(1.84092e-06 -6.87916e-06 -0 -7.72481e-06 -0 5.88389e-06)
(-5.38325e-05 4.80395e-05 -0 4.63991e-05 -0 7.43335e-06)
(2.12486e-06 -1.50628e-05 -0 -8.05469e-06 -0 5.92983e-06)
(-5.46911e-05 5.9373e-05 -0 4.74599e-05 -0 7.23122e-06)
(2.5062e-06 -4.91665e-06 -0 -8.56158e-06 -0 6.05538e-06)
(-5.56769e-05 8.1179e-05 -0 4.87699e-05 -0 6.90704e-06)
(2.99673e-06 0.000155488 -0 -9.12708e-06 -0 6.13034e-06)
(-5.70673e-05 -9.30885e-05 -0 4.97622e-05 -0 7.30516e-06)
(2.04965e-06 0.000295276 -0 -8.12606e-06 -0 6.07641e-06)
(-5.71584e-05 -0.000842919 -0 4.81233e-05 -0 9.03508e-06)
(-2.79839e-06 -0.000913972 -0 -3.13215e-06 -0 5.93054e-06)
(-3.82741e-05 0.000575736 -0 2.87662e-05 -0 9.50792e-06)
(2.12974e-06 -0.0025792 -0 -7.41694e-06 -0 5.28719e-06)
(1.71263e-05 0.0120646 -0 -2.26123e-05 -0 5.48604e-06)
(5.12012e-05 0.00544066 -0 -5.52193e-05 -0 4.01812e-06)
(3.90198e-05 0.0317234 -0 -4.13844e-05 -0 2.36462e-06)
(0.000144209 0.0383332 -0 -0.00014786 -0 3.65117e-06)
(-0.00011595 0.0307619 -0 0.000107617 -0 8.33293e-06)
(0.000210663 0.100532 -0 -0.000215871 -0 5.20827e-06)
(-0.000450027 -0.0253117 -0 0.000433349 -0 1.66779e-05)
(0.000171965 0.179396 -0 -0.000178905 -0 6.94042e-06)
(-0.000747235 -0.136945 -0 0.000729356 -0 1.78793e-05)
(1.11485e-05 0.253464 -0 -1.78441e-05 -0 6.69558e-06)
(-0.000743837 -0.267607 -0 0.000730805 -0 1.30318e-05)
(-0.000229751 0.303682 -0 0.000225265 -0 4.48625e-06)
(-0.000294799 -0.374614 -0 0.000286556 -0 8.2435e-06)
(-0.00049195 0.320608 -0 0.000489922 -0 2.02782e-06)
(0.000602922 -0.433586 -0 -0.000609132 -0 6.21031e-06)
(-0.000731014 0.305624 -0 0.000730396 -0 6.17771e-07)
(0.00186755 -0.441142 -0 -0.00187353 -0 5.97672e-06)
(-0.000924551 0.26724 -0 0.000924238 -0 3.12879e-07)
(0.00339004 -0.406442 -0 -0.00339591 -0 5.87472e-06)
(-0.00106717 0.215996 -0 0.00106659 -0 5.8309e-07)
(0.00506698 -0.342962 -0 -0.00507233 -0 5.35216e-06)
(-0.00116329 0.160868 -0 0.00116234 -0 9.47918e-07)
(0.00681445 -0.263864 -0 -0.00682084 -0 6.39084e-06)
(-0.00122189 0.107885 -0 0.00122096 -0 9.35591e-07)
(0.00856946 -0.180078 -0 -0.00858221 -0 1.27557e-05)
(-0.00125243 0.0600374 -0 0.00125163 -0 7.96505e-07)
(0.0102761 -0.101095 -0 -0.0102942 -0 1.81005e-05)
(-0.00126319 0.0187937 -0 0.0012614 -0 1.78558e-06)
(0.011849 -0.0319897 -0 -0.0118235 -0 -2.54882e-05)
(0.0159106 -3.41035 -0 -0.0159058 -0 -4.76888e-06)
(0.000651355 -1.48 -0 -0.000677313 -0 2.59583e-05)
(0.000148375 -1.11835 -0 -0.000156207 -0 7.83173e-06)
(7.98269e-05 -0.943095 -0 -8.30437e-05 -0 3.21685e-06)
(5.36445e-05 -0.838142 -0 -5.68836e-05 -0 3.23905e-06)
(3.85557e-05 -0.765636 -0 -3.94958e-05 -0 9.40086e-07)
(3.21673e-05 -0.710614 -0 -3.42028e-05 -0 2.03544e-06)
(2.56969e-05 -0.667099 -0 -2.58429e-05 -0 1.45976e-07)
(2.34747e-05 -0.630155 -0 -2.48718e-05 -0 1.39705e-06)
(1.9463e-05 -0.599974 -0 -1.91155e-05 -0 -3.47483e-07)
(1.88897e-05 -0.572197 -0 -1.97185e-05 -0 8.28788e-07)
(1.60582e-05 -0.548978 -0 -1.52677e-05 -0 -7.90488e-07)
(1.60677e-05 -0.526448 -0 -1.62887e-05 -0 2.20961e-07)
(1.38784e-05 -0.507473 -0 -1.26077e-05 -0 -1.27079e-06)
(1.41409e-05 -0.488336 -0 -1.3673e-05 -0 -4.67844e-07)
(1.24067e-05 -0.472067 -0 -1.05744e-05 -0 -1.83233e-06)
(1.2738e-05 -0.455246 -0 -1.14738e-05 -0 -1.26425e-06)
(1.13279e-05 -0.440787 -0 -8.824e-06 -0 -2.50388e-06)
(1.16129e-05 -0.425692 -0 -9.44088e-06 -0 -2.17198e-06)
(1.0448e-05 -0.412562 -0 -7.16599e-06 -0 -3.28202e-06)
(1.06276e-05 -0.398884 -0 -7.46348e-06 -0 -3.16409e-06)
(9.66205e-06 -0.386837 -0 -5.52627e-06 -0 -4.13578e-06)
(9.7072e-06 -0.374414 -0 -5.50658e-06 -0 -4.20062e-06)
(8.89315e-06 -0.363347 -0 -3.86269e-06 -0 -5.03045e-06)
(8.76887e-06 -0.352112 -0 -3.52798e-06 -0 -5.24089e-06)
(8.0408e-06 -0.342025 -0 -2.11854e-06 -0 -5.92225e-06)
(7.73585e-06 -0.331982 -0 -1.5233e-06 -0 -6.21255e-06)
(7.0609e-06 -0.322909 -0 -3.42796e-07 -0 -6.71811e-06)
(6.61916e-06 -0.314031 -0 3.73455e-07 -0 -6.99262e-06)
(5.98785e-06 -0.305948 -0 1.30317e-06 -0 -7.29102e-06)
(5.46576e-06 -0.298167 -0 2.00738e-06 -0 -7.47313e-06)
(4.97912e-06 -0.291031 -0 2.58506e-06 -0 -7.56417e-06)
(4.63782e-06 -0.284183 -0 2.98076e-06 -0 -7.61858e-06)
(4.38188e-06 -0.277773 -0 3.16017e-06 -0 -7.54205e-06)
(4.07892e-06 -0.271689 -0 3.40902e-06 -0 -7.48794e-06)
(3.69954e-06 -0.266064 -0 3.61527e-06 -0 -7.31481e-06)
(3.11442e-06 -0.260969 -0 4.06633e-06 -0 -7.18074e-06)
(2.31406e-06 -0.25648 -0 4.65506e-06 -0 -6.96912e-06)
(1.2012e-06 -0.252749 -0 5.58941e-06 -0 -6.79061e-06)
(-2.77572e-07 -0.249807 -0 6.88602e-06 -0 -6.60845e-06)
(-2.1791e-06 -0.247843 -0 8.64404e-06 -0 -6.46495e-06)
(-4.6816e-06 -0.246883 -0 1.11162e-05 -0 -6.43456e-06)
(-7.8259e-06 -0.247173 -0 1.43076e-05 -0 -6.48165e-06)
(-1.19606e-05 -0.248786 -0 1.87583e-05 -0 -6.79771e-06)
(-1.71183e-05 -0.25205 -0 2.43564e-05 -0 -7.23802e-06)
(-2.38532e-05 -0.257123 -0 3.1945e-05 -0 -8.09183e-06)
(-3.21974e-05 -0.264427 -0 4.12652e-05 -0 -9.06787e-06)
(-4.28933e-05 -0.274236 -0 5.34382e-05 -0 -1.05449e-05)
(-5.57931e-05 -0.287031 -0 6.7873e-05 -0 -1.20799e-05)
(-7.09878e-05 -0.303109 -0 8.53245e-05 -0 -1.43367e-05)
(-8.63257e-05 -0.322463 -0 0.000103384 -0 -1.70584e-05)
(-0.000104972 -0.344549 -0 0.000128095 -0 -2.31233e-05)
(-0.000119508 -0.369696 -0 0.00014941 -0 -2.99023e-05)
(-0.000151623 -0.395805 -0 0.00020215 -0 -5.05265e-05)
(-0.000176353 -0.427698 -0 0.000236867 -0 -6.05135e-05)
(-0.000248531 -0.462935 -0 0.000351978 -0 -0.000103447)
(-0.000291009 -0.510859 -0 0.000392426 -0 -0.000101417)
(-0.000405057 -0.567045 -0 0.000558451 -0 -0.000153394)
(-0.000441924 -0.640845 -0 0.000564784 -0 -0.00012286)
(-0.000565039 -0.721652 -0 0.000735029 -0 -0.00016999)
(-0.000587489 -0.819694 -0 0.000700531 -0 -0.000113041)
(-0.000725013 -0.923889 -0 0.000892192 -0 -0.000167179)
(-0.000658833 -1.04301 -0 0.000758497 -0 -9.96649e-05)
(-0.000868393 -1.12857 -0 0.00120328 -0 -0.000334884)
(-0.000797333 -1.19883 -0 0.000960658 -0 -0.000163326)
(-0.00129289 -1.27507 -0 0.00178886 -0 -0.000495967)
(-0.0011792 -1.36009 -0 0.00146471 -0 -0.000285505)
(-0.00167314 -1.4492 -0 0.00249863 -0 -0.000825492)
(-0.00156946 -1.52677 -0 0.00223784 -0 -0.00066838)
(-0.00221702 -1.62642 -0 0.00346074 -0 -0.00124372)
(-0.00223985 -1.72191 -0 0.00334923 -0 -0.00110938)
(-0.00269559 -1.8413 -0 0.00400098 -0 -0.00130539)
(-0.00267309 -1.9657 -0 0.0037894 -0 -0.00111632)
(-0.00274284 -2.09138 -0 0.00373012 -0 -0.000987285)
(-0.00266042 -2.22069 -0 0.00345464 -0 -0.00079422)
(-0.00278598 -2.34398 -0 0.00363731 -0 -0.000851326)
(-0.00289183 -2.46882 -0 0.00368738 -0 -0.000795553)
(-0.00351378 -2.60353 -0 0.00464606 -0 -0.00113228)
(-0.00399643 -2.75334 -0 0.00515566 -0 -0.00115923)
(-0.00514271 -2.92505 -0 0.0066763 -0 -0.00153359)
(-0.00592345 -3.1343 -0 0.00735797 -0 -0.00143452)
(-0.00752095 -3.36255 -0 0.00924923 -0 -0.00172827)
(-0.0085905 -3.65745 -0 0.0101222 -0 -0.00153175)
(-0.0111946 -3.95363 -0 0.0129028 -0 -0.00170815)
(-0.0128038 -4.40317 -0 0.0145566 -0 -0.00175279)
(-0.0220476 -4.75325 -0 0.0236547 -0 -0.00160705)
(-0.00699941 -5.79958 -0 0.0123437 -0 -0.00534427)
(-0.216389 -5.26631 -1.15919e-18 0.209807 -0 0.0065821)
(0.0151799 -2.97629 -0 -0.0151913 -0 1.14137e-05)
(0.00176537 -1.47607 -0 -0.00175436 -0 -1.10062e-05)
(0.000450456 -1.11434 -0 -0.00045123 -0 7.73311e-07)
(0.000242607 -0.941252 -0 -0.000241635 -0 -9.7189e-07)
(0.000161725 -0.836845 -0 -0.000163132 -0 1.40749e-06)
(0.000117909 -0.765022 -0 -0.000116135 -0 -1.77436e-06)
(9.70756e-05 -0.710278 -0 -9.80871e-05 -0 1.01147e-06)
(7.89396e-05 -0.667373 -0 -7.64179e-05 -0 -2.52169e-06)
(7.10663e-05 -0.630752 -0 -7.15802e-05 -0 5.13881e-07)
(6.01908e-05 -0.6011 -0 -5.70957e-05 -0 -3.09514e-06)
(5.7511e-05 -0.573707 -0 -5.72663e-05 -0 -2.44689e-07)
(5.00723e-05 -0.551008 -0 -4.6309e-05 -0 -3.76323e-06)
(4.93502e-05 -0.528916 -0 -4.80811e-05 -0 -1.26913e-06)
(4.37164e-05 -0.510454 -0 -3.91381e-05 -0 -4.57826e-06)
(4.3926e-05 -0.491806 -0 -4.13937e-05 -0 -2.53222e-06)
(3.95254e-05 -0.476065 -0 -3.39587e-05 -0 -5.5667e-06)
(4.00814e-05 -0.459792 -0 -3.60706e-05 -0 -4.01079e-06)
(3.64884e-05 -0.445899 -0 -2.97573e-05 -0 -6.73113e-06)
(3.69986e-05 -0.431421 -0 -3.13479e-05 -0 -5.65068e-06)
(3.39334e-05 -0.418915 -0 -2.58994e-05 -0 -8.03403e-06)
(3.41837e-05 -0.405929 -0 -2.68078e-05 -0 -7.37583e-06)
(3.14775e-05 -0.394578 -0 -2.20631e-05 -0 -9.41431e-06)
(3.13559e-05 -0.382925 -0 -2.22435e-05 -0 -9.11248e-06)
(2.88656e-05 -0.37263 -0 -1.80547e-05 -0 -1.08109e-05)
(2.8275e-05 -0.362237 -0 -1.74822e-05 -0 -1.07927e-05)
(2.58822e-05 -0.352986 -0 -1.37159e-05 -0 -1.21663e-05)
(2.48731e-05 -0.343825 -0 -1.25215e-05 -0 -1.23516e-05)
(2.26601e-05 -0.335608 -0 -9.22865e-06 -0 -1.34314e-05)
(2.1493e-05 -0.327593 -0 -7.74964e-06 -0 -1.37434e-05)
(1.95941e-05 -0.320311 -0 -5.03493e-06 -0 -1.45591e-05)
(1.84184e-05 -0.313297 -0 -3.50551e-06 -0 -1.49129e-05)
(1.70454e-05 -0.306848 -0 -1.58927e-06 -0 -1.54562e-05)
(1.63395e-05 -0.300648 -0 -6.07002e-07 -0 -1.57325e-05)
(1.5488e-05 -0.294824 -0 4.74306e-07 -0 -1.59623e-05)
(1.4568e-05 -0.289299 -0 1.48127e-06 -0 -1.60493e-05)
(1.30728e-05 -0.284185 -0 2.9098e-06 -0 -1.59826e-05)
(1.09816e-05 -0.279575 -0 4.89268e-06 -0 -1.58742e-05)
(8.09528e-06 -0.275525 -0 7.55035e-06 -0 -1.56456e-05)
(4.3251e-06 -0.272189 -0 1.11343e-05 -0 -1.54594e-05)
(-4.74151e-07 -0.26958 -0 1.57293e-05 -0 -1.52552e-05)
(-6.48653e-06 -0.267881 -0 2.16319e-05 -0 -1.51454e-05)
(-1.40636e-05 -0.267106 -0 2.92068e-05 -0 -1.51432e-05)
(-2.35468e-05 -0.26749 -0 3.88237e-05 -0 -1.52769e-05)
(-3.55809e-05 -0.269098 -0 5.12697e-05 -0 -1.56888e-05)
(-5.06113e-05 -0.272238 -0 6.69113e-05 -0 -1.62999e-05)
(-6.95933e-05 -0.277053 -0 8.70117e-05 -0 -1.74184e-05)
(-9.30154e-05 -0.283921 -0 0.000111853 -0 -1.88374e-05)
(-0.000121976 -0.293065 -0 0.000143077 -0 -2.11017e-05)
(-0.000156454 -0.304882 -0 0.000180247 -0 -2.37924e-05)
(-0.00019575 -0.319608 -0 0.000223823 -0 -2.80736e-05)
(-0.000235995 -0.337228 -0 0.000269212 -0 -3.32174e-05)
(-0.00028481 -0.357494 -0 0.00032965 -0 -4.48402e-05)
(-0.000327069 -0.380662 -0 0.000381089 -0 -5.40198e-05)
(-0.000414346 -0.405773 -0 0.000502331 -0 -8.79848e-05)
(-0.000494982 -0.436364 -0 0.000591675 -0 -9.6692e-05)
(-0.000677726 -0.471253 -0 0.000837411 -0 -0.000159685)
(-0.000823805 -0.517231 -0 0.000977071 -0 -0.000153265)
(-0.00108617 -0.570274 -0 0.00130951 -0 -0.000223331)
(-0.00124078 -0.637895 -0 0.00142905 -0 -0.000188261)
(-0.00149945 -0.710145 -0 0.00174813 -0 -0.000248686)
(-0.00163734 -0.796134 -0 0.00182243 -0 -0.00018509)
(-0.00189786 -0.885936 -0 0.00214698 -0 -0.000249113)
(-0.00184611 -0.985978 -0 0.00198269 -0 -0.000136582)
(-0.00217545 -1.06214 -0 0.00265797 -0 -0.000482519)
(-0.00211935 -1.12407 -0 0.00240841 -0 -0.000289056)
(-0.00279858 -1.18751 -0 0.00355442 -0 -0.000755834)
(-0.00281962 -1.25545 -0 0.00330927 -0 -0.00048965)
(-0.00354936 -1.33372 -0 0.00469887 -0 -0.00114952)
(-0.00366651 -1.40237 -0 0.00457515 -0 -0.000908636)
(-0.00474877 -1.4893 -0 0.00623631 -0 -0.00148754)
(-0.0051022 -1.57265 -0 0.00641594 -0 -0.00131374)
(-0.00587692 -1.66653 -0 0.00729864 -0 -0.00142172)
(-0.00599484 -1.76477 -0 0.00725626 -0 -0.00126142)
(-0.00609162 -1.85866 -0 0.00721183 -0 -0.00112021)
(-0.00608314 -1.95692 -0 0.00704062 -0 -0.000957479)
(-0.00634385 -2.05336 -0 0.0073965 -0 -0.00105265)
(-0.00684146 -2.15318 -0 0.00781885 -0 -0.000977399)
(-0.00812489 -2.26192 -0 0.00944531 -0 -0.00132042)
(-0.00938017 -2.38121 -0 0.0106799 -0 -0.00129973)
(-0.0116749 -2.51161 -0 0.0133623 -0 -0.00168737)
(-0.0134429 -2.66491 -0 0.0150085 -0 -0.00156561)
(-0.0166333 -2.82058 -0 0.0184675 -0 -0.0018342)
(-0.0189244 -3.01979 -0 0.0205631 -0 -0.00163869)
(-0.024548 -3.20087 -0 0.0261398 -0 -0.00159171)
(-0.026756 -3.48049 -0 0.0283796 -0 -0.00162361)
(-0.0474339 -3.66631 -0 0.0477752 -0 -0.000341281)
(-0.0280806 -4.18145 -0 0.032275 -0 -0.00419444)
(-0.184594 -4.48298 8.63487e-19 0.193111 -0 -0.0085178)
(0.0142052 -2.53526 -0 -0.0142123 -0 7.09914e-06)
(0.00286905 -1.47046 -0 -0.00286145 -0 -7.60125e-06)
(0.000826244 -1.11331 -0 -0.000830099 -0 3.85468e-06)
(0.000443784 -0.942317 -0 -0.000443105 -0 -6.79125e-07)
(0.000296398 -0.838203 -0 -0.0002996 -0 3.20176e-06)
(0.000216103 -0.766765 -0 -0.000213469 -0 -2.63416e-06)
(0.00017767 -0.712172 -0 -0.000180189 -0 2.5182e-06)
(0.000144315 -0.669869 -0 -0.000140435 -0 -3.87954e-06)
(0.000129755 -0.633554 -0 -0.000131442 -0 1.68721e-06)
(0.000109736 -0.60457 -0 -0.000104889 -0 -4.84701e-06)
(0.000104708 -0.577612 -0 -0.000105095 -0 3.86985e-07)
(9.10825e-05 -0.555637 -0 -8.51663e-05 -0 -5.91619e-06)
(8.969e-05 -0.534071 -0 -8.83398e-05 -0 -1.35023e-06)
(7.94632e-05 -0.516331 -0 -7.22535e-05 -0 -7.20973e-06)
(7.9788e-05 -0.498263 -0 -7.62997e-05 -0 -3.48823e-06)
(7.18811e-05 -0.483216 -0 -6.30594e-05 -0 -8.82167e-06)
(7.2874e-05 -0.467542 -0 -6.68596e-05 -0 -6.01444e-06)
(6.64943e-05 -0.454285 -0 -5.56973e-05 -0 -1.0797e-05)
(6.74766e-05 -0.440372 -0 -5.8614e-05 -0 -8.86259e-06)
(6.21014e-05 -0.4284 -0 -4.90138e-05 -0 -1.30875e-05)
(6.27129e-05 -0.415888 -0 -5.08056e-05 -0 -1.19073e-05)
(5.80209e-05 -0.404934 -0 -4.24425e-05 -0 -1.55785e-05)
(5.80724e-05 -0.393616 -0 -4.30536e-05 -0 -1.50188e-05)
(5.37948e-05 -0.383549 -0 -3.56427e-05 -0 -1.81521e-05)
(5.31059e-05 -0.373313 -0 -3.50285e-05 -0 -1.80774e-05)
(4.90236e-05 -0.364102 -0 -2.83507e-05 -0 -2.06729e-05)
(4.76595e-05 -0.35491 -0 -2.67637e-05 -0 -2.08958e-05)
(4.39058e-05 -0.346563 -0 -2.09973e-05 -0 -2.29085e-05)
(4.22884e-05 -0.338371 -0 -1.90923e-05 -0 -2.31961e-05)
(3.90775e-05 -0.33087 -0 -1.45124e-05 -0 -2.45651e-05)
(3.74053e-05 -0.323635 -0 -1.26656e-05 -0 -2.47396e-05)
(3.50732e-05 -0.316982 -0 -9.61985e-06 -0 -2.54533e-05)
(3.41191e-05 -0.31062 -0 -8.68042e-06 -0 -2.54386e-05)
(3.26827e-05 -0.304678 -0 -7.12371e-06 -0 -2.5559e-05)
(3.12579e-05 -0.29907 -0 -5.9118e-06 -0 -2.53461e-05)
(2.87213e-05 -0.293891 -0 -3.71145e-06 -0 -2.50098e-05)
(2.51805e-05 -0.289212 -0 -5.68681e-07 -0 -2.46118e-05)
(2.02474e-05 -0.285076 -0 3.76736e-06 -0 -2.40148e-05)
(1.37382e-05 -0.281624 -0 9.77983e-06 -0 -2.35181e-05)
(5.46135e-06 -0.278865 -0 1.74643e-05 -0 -2.29257e-05)
(-5.01926e-06 -0.276974 -0 2.75707e-05 -0 -2.25515e-05)
(-1.8228e-05 -0.275958 -0 4.05657e-05 -0 -2.23377e-05)
(-3.48679e-05 -0.276036 -0 5.73363e-05 -0 -2.24684e-05)
(-5.59835e-05 -0.277253 -0 7.91152e-05 -0 -2.31317e-05)
(-8.23843e-05 -0.279888 -0 0.000106613 -0 -2.42284e-05)
(-0.000115683 -0.284054 -0 0.000141908 -0 -2.62249e-05)
(-0.000156657 -0.290098 -0 0.000185265 -0 -2.86082e-05)
(-0.000207258 -0.298228 -0 0.000239489 -0 -3.22302e-05)
(-0.000267468 -0.30883 -0 0.00030355 -0 -3.60821e-05)
(-0.000336496 -0.322194 -0 0.000378783 -0 -4.22868e-05)
(-0.00040817 -0.338384 -0 0.000458108 -0 -4.99377e-05)
(-0.000495772 -0.357304 -0 0.000565745 -0 -6.99736e-05)
(-0.000572004 -0.378979 -0 0.000658051 -0 -8.60474e-05)
(-0.000726232 -0.402681 -0 0.00087738 -0 -0.000151148)
(-0.000855216 -0.430245 -0 0.00101831 -0 -0.000163094)
(-0.001166 -0.461173 -0 0.00144951 -0 -0.000283508)
(-0.00137498 -0.499419 -0 0.00162598 -0 -0.000251)
(-0.00181237 -0.542774 -0 0.00219079 -0 -0.000378413)
(-0.00201491 -0.596797 -0 0.00229061 -0 -0.000275694)
(-0.00244495 -0.654139 -0 0.00282441 -0 -0.000379467)
(-0.00262029 -0.72262 -0 0.00284092 -0 -0.000220635)
(-0.00305215 -0.794268 -0 0.0033862 -0 -0.000334059)
(-0.00294336 -0.873287 -0 0.00307618 -0 -0.000132818)
(-0.00351864 -0.933779 -0 0.00424179 -0 -0.000723154)
(-0.00332452 -0.984236 -0 0.00357919 -0 -0.000254666)
(-0.00450561 -1.03849 -0 0.00551365 -0 -0.00100803)
(-0.00454393 -1.09868 -0 0.00502633 -0 -0.000482392)
(-0.00577132 -1.16821 -0 0.0073678 -0 -0.00159648)
(-0.00570194 -1.22837 -0 0.0068063 -0 -0.00110436)
(-0.00728266 -1.2948 -0 0.00938626 -0 -0.0021036)
(-0.00741083 -1.35401 -0 0.00911072 -0 -0.00169989)
(-0.00851557 -1.4123 -0 0.010433 -0 -0.00191739)
(-0.00857859 -1.47495 -0 0.0101217 -0 -0.00154307)
(-0.00886215 -1.53554 -0 0.0101737 -0 -0.0013116)
(-0.00904906 -1.6046 -0 0.0100286 -0 -0.000979517)
(-0.00960798 -1.67695 -0 0.010681 -0 -0.00107299)
(-0.0104101 -1.75429 -0 0.0113472 -0 -0.000937028)
(-0.0121978 -1.83517 -0 0.0135526 -0 -0.00135474)
(-0.0138516 -1.92208 -0 0.0151564 -0 -0.00130486)
(-0.0169087 -2.00894 -0 0.0186209 -0 -0.0017122)
(-0.0192027 -2.10939 -0 0.0206919 -0 -0.00148927)
(-0.0235194 -2.20324 -0 0.0252414 -0 -0.00172206)
(-0.0264101 -2.3218 -0 0.0278308 -0 -0.00142071)
(-0.0337419 -2.42285 -0 0.0350794 -0 -0.00133752)
(-0.03645 -2.55713 -0 0.0377486 -0 -0.00129856)
(-0.0588061 -2.68053 -0 0.0590724 -0 -0.000266264)
(-0.054102 -2.74951 -0 0.0579207 -0 -0.00381866)
(-0.141285 -3.22988 -0 0.136164 -0 0.00512088)
(0.0129543 -2.09031 -0 -0.0129584 -0 4.05323e-06)
(0.00385573 -1.44266 -0 -0.00385808 -0 2.34375e-06)
(0.00127079 -1.10482 -0 -0.00127804 -0 7.25146e-06)
(0.000685103 -0.93757 -0 -0.00068555 -0 4.4698e-07)
(0.000458156 -0.834328 -0 -0.00046351 -0 5.35322e-06)
(0.000334885 -0.763761 -0 -0.00033194 -0 -2.94505e-06)
(0.000274152 -0.709296 -0 -0.000278166 -0 4.01372e-06)
(0.000223148 -0.667654 -0 -0.000218129 -0 -5.0185e-06)
(0.000199576 -0.631483 -0 -0.000202228 -0 2.65217e-06)
(0.000169227 -0.60306 -0 -0.000162669 -0 -6.55884e-06)
(0.000160447 -0.576347 -0 -0.000161146 -0 6.99132e-07)
(0.000139961 -0.554936 -0 -0.000131756 -0 -8.20554e-06)
(0.000136984 -0.533723 -0 -0.000135126 -0 -1.85882e-06)
(0.000121695 -0.516547 -0 -0.000111536 -0 -1.01593e-05)
(0.000121518 -0.49893 -0 -0.000116538 -0 -4.97983e-06)
(0.000109751 -0.484462 -0 -9.72062e-05 -0 -1.25449e-05)
(0.000110754 -0.469334 -0 -0.000102115 -0 -8.63901e-06)
(0.000101323 -0.456688 -0 -8.59065e-05 -0 -1.54169e-05)
(0.000102459 -0.443405 -0 -8.97244e-05 -0 -1.2735e-05)
(9.45858e-05 -0.432085 -0 -7.58803e-05 -0 -1.87056e-05)
(9.52831e-05 -0.420274 -0 -7.8193e-05 -0 -1.70901e-05)
(8.84816e-05 -0.410015 -0 -6.62263e-05 -0 -2.22552e-05)
(8.84341e-05 -0.399451 -0 -6.69115e-05 -0 -2.15226e-05)
(8.23038e-05 -0.39012 -0 -5.63993e-05 -0 -2.59044e-05)
(8.12409e-05 -0.380674 -0 -5.53809e-05 -0 -2.586e-05)
(7.54522e-05 -0.372219 -0 -4.59866e-05 -0 -2.94656e-05)
(7.34491e-05 -0.363817 -0 -4.36003e-05 -0 -2.98488e-05)
(6.81475e-05 -0.356211 -0 -3.55057e-05 -0 -3.26418e-05)
(6.57571e-05 -0.348763 -0 -3.2611e-05 -0 -3.31462e-05)
(6.11525e-05 -0.34194 -0 -2.60755e-05 -0 -3.50771e-05)
(5.8566e-05 -0.33536 -0 -2.3105e-05 -0 -3.54611e-05)
(5.50437e-05 -0.329295 -0 -1.85256e-05 -0 -3.65181e-05)
(5.33651e-05 -0.323505 -0 -1.67267e-05 -0 -3.66384e-05)
(5.10097e-05 -0.318095 -0 -1.41292e-05 -0 -3.68805e-05)
(4.86254e-05 -0.313013 -0 -1.19411e-05 -0 -3.66844e-05)
(4.46247e-05 -0.308327 -0 -8.33737e-06 -0 -3.62873e-05)
(3.91612e-05 -0.304122 -0 -3.36072e-06 -0 -3.58005e-05)
(3.16275e-05 -0.300418 -0 3.42724e-06 -0 -3.50548e-05)
(2.17995e-05 -0.297356 -0 1.26392e-05 -0 -3.44387e-05)
(9.32861e-06 -0.294924 -0 2.44e-05 -0 -3.37286e-05)
(-6.34845e-06 -0.293288 -0 3.96509e-05 -0 -3.33024e-05)
(-2.60298e-05 -0.29244 -0 5.91485e-05 -0 -3.31187e-05)
(-5.0666e-05 -0.29258 -0 8.40415e-05 -0 -3.33755e-05)
(-8.17504e-05 -0.293739 -0 0.000116099 -0 -3.43487e-05)
(-0.000120437 -0.296161 -0 0.000156318 -0 -3.58811e-05)
(-0.000168972 -0.299935 -0 0.00020758 -0 -3.86081e-05)
(-0.000228581 -0.305347 -0 0.000270456 -0 -4.1875e-05)
(-0.000301936 -0.312566 -0 0.000348752 -0 -4.68163e-05)
(-0.000389504 -0.321887 -0 0.000441667 -0 -5.21637e-05)
(-0.000490183 -0.333586 -0 0.000550884 -0 -6.07018e-05)
(-0.000596862 -0.347708 -0 0.000668145 -0 -7.12833e-05)
(-0.000725391 -0.36451 -0 0.000823388 -0 -9.79972e-05)
(-0.000841604 -0.383752 -0 0.000960365 -0 -0.000118761)
(-0.00105486 -0.405815 -0 0.00125543 -0 -0.000200575)
(-0.00123799 -0.430753 -0 0.00145265 -0 -0.000214665)
(-0.00164209 -0.459448 -0 0.00199904 -0 -0.000356951)
(-0.00192637 -0.492783 -0 0.0022454 -0 -0.000319033)
(-0.00248135 -0.529817 -0 0.00294053 -0 -0.000459183)
(-0.00277049 -0.573757 -0 0.00311653 -0 -0.000346046)
(-0.00331067 -0.619403 -0 0.00376196 -0 -0.000451286)
(-0.00359245 -0.672488 -0 0.00387708 -0 -0.000284626)
(-0.00410967 -0.727484 -0 0.00450136 -0 -0.000391684)
(-0.00405171 -0.785967 -0 0.00423661 -0 -0.000184905)
(-0.00461797 -0.835773 -0 0.00533513 -0 -0.000717155)
(-0.00462423 -0.877502 -0 0.00496179 -0 -0.00033756)
(-0.00583959 -0.920572 -0 0.00681877 -0 -0.000979175)
(-0.00626508 -0.965159 -0 0.00683967 -0 -0.000574588)
(-0.00738655 -1.01808 -0 0.00884552 -0 -0.00145896)
(-0.00751945 -1.06693 -0 0.00865185 -0 -0.0011324)
(-0.00886474 -1.11651 -0 0.0106921 -0 -0.00182738)
(-0.00908742 -1.16379 -0 0.010676 -0 -0.0015886)
(-0.010103 -1.20512 -0 0.0117437 -0 -0.00164068)
(-0.0104018 -1.24881 -0 0.0117843 -0 -0.00138246)
(-0.0108811 -1.29061 -0 0.0120455 -0 -0.00116442)
(-0.0114778 -1.3362 -0 0.0123912 -0 -0.000913363)
(-0.0123271 -1.38507 -0 0.0133003 -0 -0.000973183)
(-0.0134931 -1.43777 -0 0.0143868 -0 -0.000893746)
(-0.0154881 -1.49105 -0 0.0166622 -0 -0.00117412)
(-0.0174196 -1.54817 -0 0.0186045 -0 -0.00118493)
(-0.0206466 -1.60051 -0 0.0220758 -0 -0.00142919)
(-0.0232385 -1.65759 -0 0.0245956 -0 -0.00135712)
(-0.0277115 -1.70509 -0 0.0291359 -0 -0.00142448)
(-0.0310292 -1.75849 -0 0.0323734 -0 -0.00134418)
(-0.0380059 -1.80236 -0 0.0391476 -0 -0.00114172)
(-0.0425017 -1.83579 -0 0.0437776 -0 -0.0012759)
(-0.0594128 -1.9043 -0 0.0597623 -0 -0.000349506)
(-0.0668316 -1.81098 -0 0.0704068 -0 -0.0035752)
(-0.121773 -2.05629 -0 0.121815 -0 -4.22333e-05)
(0.0113808 -1.65278 -0 -0.0113842 -0 3.45186e-06)
(0.00461949 -1.38081 -0 -0.00462568 -0 6.19095e-06)
(0.00177138 -1.08865 -0 -0.0017806 -0 9.22208e-06)
(0.000969381 -0.929052 -0 -0.000969857 -0 4.75994e-07)
(0.000650548 -0.828028 -0 -0.000657695 -0 7.14722e-06)
(0.000476555 -0.758954 -0 -0.000472585 -0 -3.9697e-06)
(0.000389402 -0.704989 -0 -0.000394832 -0 5.42917e-06)
(0.000317064 -0.66424 -0 -0.000310273 -0 -6.79146e-06)
(0.000282822 -0.628406 -0 -0.000286379 -0 3.5572e-06)
(0.000239794 -0.600672 -0 -0.000230863 -0 -8.93039e-06)
(0.000226502 -0.574345 -0 -0.000227367 -0 8.65769e-07)
(0.000197505 -0.553603 -0 -0.0001863 -0 -1.12048e-05)
(0.000192602 -0.532872 -0 -0.000189952 -0 -2.65065e-06)
(0.000170997 -0.516353 -0 -0.000157108 -0 -1.38888e-05)
(0.000170133 -0.499313 -0 -0.000163205 -0 -6.92799e-06)
(0.000153511 -0.485515 -0 -0.000136361 -0 -1.71501e-05)
(0.000154386 -0.471054 -0 -0.000142464 -0 -1.19225e-05)
(0.00014109 -0.459106 -0 -0.000120034 -0 -2.10554e-05)
(0.000142234 -0.446564 -0 -0.000124749 -0 -1.74849e-05)
(0.000131176 -0.435975 -0 -0.000105675 -0 -2.55011e-05)
(0.00013179 -0.424957 -0 -0.000108424 -0 -2.33655e-05)
(0.000122287 -0.415457 -0 -9.20171e-05 -0 -3.02702e-05)
(0.000121947 -0.405718 -0 -9.2634e-05 -0 -2.93129e-05)
(0.00011345 -0.397163 -0 -7.83109e-05 -0 -3.5139e-05)
(0.000111817 -0.388547 -0 -7.67292e-05 -0 -3.50876e-05)
(0.000103908 -0.380864 -0 -6.40612e-05 -0 -3.98472e-05)
(0.000101129 -0.373261 -0 -6.07857e-05 -0 -4.03431e-05)
(9.40314e-05 -0.366385 -0 -5.00401e-05 -0 -4.39914e-05)
(9.08753e-05 -0.359665 -0 -4.62542e-05 -0 -4.46212e-05)
(8.48165e-05 -0.353496 -0 -3.77152e-05 -0 -4.71014e-05)
(8.14297e-05 -0.347545 -0 -3.38863e-05 -0 -4.75435e-05)
(7.67278e-05 -0.342046 -0 -2.78853e-05 -0 -4.88425e-05)
(7.44098e-05 -0.33681 -0 -2.55085e-05 -0 -4.89014e-05)
(7.11185e-05 -0.331923 -0 -2.20191e-05 -0 -4.90994e-05)
(6.77603e-05 -0.327361 -0 -1.90508e-05 -0 -4.87095e-05)
(6.22057e-05 -0.323167 -0 -1.41602e-05 -0 -4.80455e-05)
(5.4693e-05 -0.319435 -0 -7.44388e-06 -0 -4.72491e-05)
(4.44057e-05 -0.316161 -0 1.71018e-06 -0 -4.61159e-05)
(3.10675e-05 -0.313481 -0 1.40717e-05 -0 -4.51391e-05)
(1.41957e-05 -0.311366 -0 2.98569e-05 -0 -4.40525e-05)
(-6.94195e-06 -0.309968 -0 5.0267e-05 -0 -4.33251e-05)
(-3.34135e-05 -0.309267 -0 7.63455e-05 -0 -4.2932e-05)
(-6.64479e-05 -0.309439 -0 0.000109546 -0 -4.30977e-05)
(-0.000107983 -0.310499 -0 0.000152186 -0 -4.42028e-05)
(-0.000159489 -0.312652 -0 0.000205489 -0 -4.60003e-05)
(-0.000223798 -0.315963 -0 0.000273113 -0 -4.93148e-05)
(-0.000302493 -0.320655 -0 0.000355746 -0 -5.32533e-05)
(-0.00039883 -0.326863 -0 0.00045808 -0 -5.92505e-05)
(-0.000513936 -0.334796 -0 0.000579583 -0 -6.56468e-05)
(-0.000646543 -0.344736 -0 0.000722495 -0 -7.59519e-05)
(-0.0007906 -0.356695 -0 0.000879318 -0 -8.8718e-05)