/*--------------------------------*- C++ -*----------------------------------*\
| =========                 |                                                 |
| \\      /  F ield         | OpenFOAM: The Open Source CFD Toolbox           |
|  \\    /   O peration     | Version:  2306                                  |
|   \\  /    A nd           | Website:  www.openfoam.com                      |
|    \\/     M anipulation  |                                                 |
\*---------------------------------------------------------------------------*/
FoamFile
{
    version     2.0;
    format      ascii;
    arch        "LSB;label=32;scalar=64";
    class       volVectorField;
    location    "1000";
    object      U;
}
// * * * * * * * * * * * * * * * * * * * * * * * * * * * * * * * * * * * * * //

dimensions      [0 1 -1 0 0 0 0];

internalField   nonuniform List<vector> 
20540
(
(29.9904 -0.000534964 0)
(58.7603 0.00528971 0)
(30.0636 -0.00171746 0)
(58.6347 0.0157023 0)
(30.2579 -0.00312966 0)
(58.3076 0.0263467 0)
(30.6381 -0.00477412 0)
(57.6735 0.0367106 0)
(31.288 -0.00662859 0)
(56.6205 0.0462176 0)
(32.3004 -0.00861675 0)
(55.0474 0.0541511 0)
(33.7511 -0.0105786 0)
(52.9069 0.0597383 0)
(35.6527 -0.0122493 0)
(50.2728 0.0623414 0)
(37.8968 -0.0132781 0)
(47.4204 0.0617655 0)
(40.2197 -0.0133468 0)
(44.8625 0.0586353 0)
(42.2432 -0.012415 0)
(43.2199 0.0545676 0)
(43.6175 -0.0109447 0)
(42.8381 0.0516191 0)
(44.223 -0.00974497 0)
(43.3843 0.0508589 0)
(44.2892 -0.00928904 0)
(44.0285 0.0514006 0)
(44.2151 -0.00927483 0)
(44.266 0.0517043 0)
(44.202 -0.00922985 0)
(44.2467 0.0513687 0)
(44.2172 -0.0090769 0)
(44.2203 0.050707 0)
(44.2214 -0.00888564 0)
(44.2208 0.0498676 0)
(44.2206 -0.00867079 0)
(44.2237 0.0488734 0)
(44.2199 -0.0084223 0)
(44.2258 0.0477162 0)
(44.2193 -0.00813067 0)
(44.2279 0.0463618 0)
(44.2188 -0.00779186 0)
(44.2299 0.044777 0)
(44.2185 -0.00740301 0)
(44.2318 0.0429306 0)
(44.2182 -0.00695948 0)
(44.2339 0.0407814 0)
(44.218 -0.00644828 0)
(44.2361 0.0382769 0)
(44.2179 -0.0058661 0)
(44.2385 0.0353862 0)
(44.2179 -0.00528973 0)
(44.2411 0.0320813 0)
(44.2179 -0.00479618 0)
(44.2438 0.028093 0)
(44.218 -0.00420166 0)
(44.2465 0.0229116 0)
(44.2182 -0.00337548 0)
(44.249 0.016451 0)
(44.2185 -0.00259987 0)
(44.2506 0.00967509 0)
(44.2188 -0.00212202 0)
(44.2514 0.00361526 0)
(44.2193 -0.00175511 0)
(44.2513 -0.00210933 0)
(44.2198 -0.00114536 0)
(44.2504 -0.00843057 0)
(44.2204 -0.000259179 0)
(44.2486 -0.015326 0)
(44.221 0.00069482 0)
(44.246 -0.0218757 0)
(44.2215 0.00153461 0)
(44.2432 -0.0271935 0)
(44.222 0.0023774 0)
(44.2405 -0.0313683 0)
(44.2224 0.00329646 0)
(44.2379 -0.0348665 0)
(44.2228 0.00417414 0)
(44.2355 -0.0378409 0)
(44.2231 0.00497694 0)
(44.2333 -0.0403774 0)
(44.2235 0.00569759 0)
(44.2312 -0.0425528 0)
(44.2239 0.00633439 0)
(44.2293 -0.0444262 0)
(44.2243 0.00689354 0)
(44.2274 -0.0460425 0)
(44.2247 0.00737909 0)
(44.2255 -0.0474308 0)
(44.2255 0.00779025 0)
(44.2233 -0.0486098 0)
(44.2267 0.00814499 0)
(44.2209 -0.0496334 0)
(44.2263 0.00845575 0)
(44.2176 -0.050517 0)
(44.2161 0.00872334 0)
(44.228 -0.051246 0)
(44.2078 0.00890814 0)
(44.2687 -0.0517608 0)
(44.2585 0.00897067 0)
(44.2082 -0.0517921 0)
(44.3189 0.00917085 0)
(43.7802 -0.0512083 0)
(44.089 0.0099826 0)
(43.089 -0.0509715 0)
(43.227 0.0113888 0)
(42.8193 -0.0525325 0)
(41.6463 0.0127457 0)
(43.6227 -0.055996 0)
(39.5501 0.0133839 0)
(45.5587 -0.0598792 0)
(37.2845 0.013047 0)
(48.1816 -0.0623259 0)
(35.173 0.0118746 0)
(50.9296 -0.0621217 0)
(33.4198 0.0101794 0)
(53.3903 -0.0589234 0)
(32.095 0.00826656 0)
(55.3608 -0.0530257 0)
(31.1724 0.00635796 0)
(56.8009 -0.0450458 0)
(30.5786 0.00458646 0)
(57.7645 -0.0356831 0)
(30.2292 0.00301556 0)
(58.3463 -0.0255742 0)
(30.0493 0.00166172 0)
(58.6478 -0.0152396 0)
(29.9811 0.000518681 0)
(58.7638 -0.00512823 0)
(3.08133 0.00686957 0)
(1.26238 9.40104e-05 0)
(0.955295 2.04057e-05 0)
(0.805185 8.98545e-06 0)
(0.715572 7.5658e-06 0)
(0.653413 3.62463e-06 0)
(0.606522 4.8886e-06 0)
(0.569283 2.29604e-06 0)
(0.537823 3.67436e-06 0)
(0.51207 1.52256e-06 0)
(0.488409 2.82242e-06 0)
(0.468625 1.04786e-06 0)
(0.449412 2.13297e-06 0)
(0.433237 6.68796e-07 0)
(0.41687 1.48324e-06 0)
(0.402951 2.45564e-07 0)
(0.388481 7.79416e-07 0)
(0.376005 -3.09713e-07 0)
(0.36288 -2.51931e-08 0)
(0.35138 -1.00272e-06 0)
(0.339287 -9.05547e-07 0)
(0.328509 -1.77737e-06 0)
(0.317273 -1.81237e-06 0)
(0.3071 -2.58411e-06 0)
(0.296645 -2.71922e-06 0)
(0.28708 -3.37192e-06 0)
(0.277437 -3.51601e-06 0)
(0.268576 -3.93628e-06 0)
(0.259835 -3.90031e-06 0)
(0.25181 -3.94386e-06 0)
(0.244082 -3.60633e-06 0)
(0.237014 -3.24773e-06 0)
(0.230267 -2.66075e-06 0)
(0.224003 -2.04103e-06 0)
(0.218073 -1.41565e-06 0)
(0.212602 -7.28321e-07 0)
(0.207611 -1.35908e-07 0)
(0.203178 5.78837e-07 0)
(0.19942 1.20079e-06 0)
(0.196381 1.88521e-06 0)
(0.194225 2.44413e-06 0)
(0.192986 2.80861e-06 0)
(0.192873 2.93816e-06 0)
(0.193947 2.51061e-06 0)
(0.196486 1.80018e-06 0)
(0.20063 2.79928e-07 0)
(0.206766 -1.30906e-06 0)
(0.215176 -3.68545e-06 0)
(0.226373 -5.76784e-06 0)
(0.240714 -8.71716e-06 0)
(0.258277 -1.18597e-05 0)
(0.278325 -1.99513e-05 0)
(0.301101 -2.86844e-05 0)
(0.323558 -6.19856e-05 0)
(0.35019 -6.84912e-05 0)
(0.377823 -0.000147344 0)
(0.415511 -0.000107503 0)
(0.460176 -0.000214127 0)
(0.520712 -9.47349e-05 0)
(0.588908 -0.00020248 0)
(0.674144 -2.29383e-05 0)
(0.766689 -0.000165936 0)
(0.875404 -4.48823e-06 0)
(0.947563 -0.000506467 0)
(1.00863 6.28511e-05 0)
(1.08169 -0.000744561 0)
(1.16898 -0.000125531 0)
(1.25317 -0.00136406 0)
(1.32394 -0.000715734 0)
(1.40913 -0.00210797 0)
(1.48476 -0.0014647 0)
(1.58589 -0.00211826 0)
(1.69211 -0.00151339 0)
(1.80665 -0.00137781 0)
(1.92891 -0.000899235 0)
(2.04637 -0.000990369 0)
(2.16512 -0.000782577 0)
(2.28967 -0.00134836 0)
(2.42782 -0.00130137 0)
(2.58718 -0.00196501 0)
(2.78737 -0.00172868 0)
(3.01308 -0.00243965 0)
(3.3091 -0.00207958 0)
(3.61941 -0.00291917 0)
(4.08077 -0.00308399 0)
(4.48012 -0.00475908 0)
(5.57471 -0.00629625 0)
(4.64722 -0.0561161 0)
(9.07815 0.0215436 0)
(4.03021 0.00120665 0)
(3.04371 0.000283294 0)
(2.56723 0.000151083 0)
(2.28154 0.000103726 0)
(2.08448 7.15328e-05 0)
(1.9346 6.21227e-05 0)
(1.81625 4.6016e-05 0)
(1.71559 4.48742e-05 0)
(1.63341 3.33948e-05 0)
(1.55774 3.51628e-05 0)
(1.49448 2.59131e-05 0)
(1.43313 2.84162e-05 0)
(1.38144 2.04757e-05 0)
(1.32938 2.29982e-05 0)
(1.28513 1.61159e-05 0)
(1.23947 1.82253e-05 0)
(1.20028 1.22406e-05 0)
(1.15947 1.36777e-05 0)
(1.12408 8.50509e-06 0)
(1.08735 9.1675e-06 0)
(1.05515 4.76077e-06 0)
(1.0221 4.6444e-06 0)
(0.992845 9.33627e-07 0)
(0.963307 7.35625e-08 0)
(0.937003 -3.0623e-06 0)
(0.910956 -4.55057e-06 0)
(0.887607 -7.2077e-06 0)
(0.864847 -9.11134e-06 0)
(0.844202 -1.13644e-05 0)
(0.824332 -1.34368e-05 0)
(0.806087 -1.51261e-05 0)
(0.788536 -1.66813e-05 0)
(0.772045 -1.76241e-05 0)
(0.756374 -1.87463e-05 0)
(0.741869 -1.96399e-05 0)
(0.728775 -2.09517e-05 0)
(0.717282 -2.25244e-05 0)
(0.70782 -2.46959e-05 0)
(0.700448 -2.76162e-05 0)
(0.695681 -3.13236e-05 0)
(0.693574 -3.63488e-05 0)
(0.6948 -4.25857e-05 0)
(0.69956 -5.10181e-05 0)
(0.708742 -6.14956e-05 0)
(0.722779 -7.5507e-05 0)
(0.742784 -9.29158e-05 0)
(0.769441 -0.000115669 0)
(0.803942 -0.000143133 0)
(0.846966 -0.000176567 0)
(0.898392 -0.000211782 0)
(0.957071 -0.000259774 0)
(1.02394 -0.000301956 0)
(1.09481 -0.000399409 0)
(1.18235 -0.00047547 0)
(1.28124 -0.000676806 0)
(1.4156 -0.000797132 0)
(1.57255 -0.00107744 0)
(1.77643 -0.00117644 0)
(1.99736 -0.00145421 0)
(2.26239 -0.00149972 0)
(2.54168 -0.00178821 0)
(2.85745 -0.00160575 0)
(3.09142 -0.00227518 0)
(3.28141 -0.00218629 0)
(3.47931 -0.00338901 0)
(3.69295 -0.00313413 0)
(3.92569 -0.00459085 0)
(4.13137 -0.00459053 0)
(4.40249 -0.00628247 0)
(4.66955 -0.00659905 0)
(4.9955 -0.00740008 0)
(5.33414 -0.00737961 0)
(5.6675 -0.00719006 0)
(6.00515 -0.00688932 0)
(6.32601 -0.00722924 0)
(6.65115 -0.00746991 0)
(7.00627 -0.00921759 0)
(7.4017 -0.0102818 0)
(7.85369 -0.0130368 0)
(8.39724 -0.0144165 0)
(8.98125 -0.0176587 0)
(9.7305 -0.0193644 0)
(10.4673 -0.0239003 0)
(11.5972 -0.0268898 0)
(12.4286 -0.0416713 0)
(15.0347 -0.0255921 0)
(14.1948 -0.313665 0)
(15.3434 0.0383211 0)
(7.38692 0.00382024 0)
(5.57917 0.000991878 0)
(4.71125 0.000525787 0)
(4.1885 0.000361108 0)
(3.82837 0.000249123 0)
(3.55441 0.000217962 0)
(3.33929 0.000160963 0)
(3.15599 0.000158777 0)
(3.00738 0.000117486 0)
(2.8702 0.000125549 0)
(2.75642 9.24647e-05 0)
(2.64569 0.000102942 0)
(2.5531 7.50085e-05 0)
(2.45951 8.52348e-05 0)
(2.38045 6.14021e-05 0)
(2.2986 6.99361e-05 0)
(2.22862 4.93561e-05 0)
(2.15553 5.54656e-05 0)
(2.09223 3.75798e-05 0)
(2.02632 4.11166e-05 0)
(1.96848 2.55799e-05 0)
(1.90888 2.66571e-05 0)
(1.85594 1.31305e-05 0)
(1.80228 1.18884e-05 0)
(1.7542 8.24746e-08 0)
(1.70639 -2.91322e-06 0)
(1.66324 -1.27956e-05 0)
(1.62103 -1.64206e-05 0)
(1.58258 -2.40193e-05 0)
(1.54553 -2.74535e-05 0)
(1.51151 -3.22516e-05 0)
(1.47887 -3.4074e-05 0)
(1.44829 -3.61043e-05 0)
(1.41931 -3.7597e-05 0)
(1.39251 -3.96713e-05 0)
(1.36827 -4.29369e-05 0)
(1.34692 -4.72594e-05 0)
(1.32921 -5.37687e-05 0)
(1.31523 -6.23009e-05 0)
(1.3059 -7.40038e-05 0)
(1.30132 -8.97085e-05 0)
(1.30267 -0.00011039 0)
(1.31028 -0.000138342 0)
(1.32569 -0.000173918 0)
(1.34963 -0.000221012 0)
(1.38405 -0.000278925 0)
(1.43017 -0.000353089 0)
(1.49016 -0.00044038 0)
(1.56538 -0.000545633 0)
(1.65588 -0.00065682 0)
(1.75988 -0.000820211 0)
(1.87865 -0.000959608 0)
(2.00502 -0.00133197 0)
(2.15784 -0.00154658 0)
(2.32901 -0.00230095 0)
(2.55528 -0.00253013 0)
(2.81734 -0.00351451 0)
(3.15498 -0.00354116 0)
(3.51934 -0.00447521 0)
(3.95747 -0.00427277 0)
(4.41877 -0.00526779 0)
(4.9385 -0.00448204 0)
(5.32269 -0.00726832 0)
(5.63805 -0.00559203 0)
(5.9731 -0.00997956 0)
(6.3425 -0.00812281 0)
(6.75108 -0.0139704 0)
(7.10538 -0.0123581 0)
(7.5465 -0.0187752 0)
(7.96057 -0.0179438 0)
(8.441 -0.0208165 0)
(8.94472 -0.0196288 0)
(9.43984 -0.0190829 0)
(9.9633 -0.0178086 0)
(10.4762 -0.018872 0)
(11.0051 -0.0193585 0)
(11.5753 -0.0241495 0)
(12.2013 -0.0266266 0)
(12.8917 -0.0338243 0)
(13.7162 -0.0367116 0)
(14.574 -0.0453577 0)
(15.6798 -0.0488801 0)
(16.7233 -0.0615037 0)
(18.3149 -0.0662358 0)
(19.4672 -0.106302 0)
(22.5939 -0.0850803 0)
(23.0697 -0.460049 0)
(21.6959 0.0570938 0)
(11.4067 0.0084997 0)
(8.62977 0.00242604 0)
(7.29576 0.0012881 0)
(6.48767 0.000881719 0)
(5.93224 0.000613574 0)
(5.50838 0.000531441 0)
(5.17787 0.000397106 0)
(4.89498 0.00038677 0)
(4.66747 0.000290631 0)
(4.45655 0.000306027 0)
(4.28314 0.000229702 0)
(4.11363 0.000251797 0)
(3.97304 0.000187752 0)
(3.8304 0.000210001 0)
(3.71077 0.000155641 0)
(3.58657 0.000174557 0)
(3.48097 0.000127823 0)
(3.37049 0.00014161 0)
(3.27516 0.000101118 0)
(3.17579 0.000109343 0)
(3.08878 7.42055e-05 0)
(2.9991 7.70557e-05 0)
(2.91949 4.64326e-05 0)
(2.83877 4.41701e-05 0)
(2.76642 1.73736e-05 0)
(2.69442 1.12285e-05 0)
(2.62935 -1.12871e-05 0)
(2.56566 -1.88541e-05 0)
(2.50753 -3.63308e-05 0)
(2.45151 -4.36714e-05 0)
(2.40001 -5.50382e-05 0)
(2.35066 -5.90781e-05 0)
(2.30447 -6.44007e-05 0)
(2.26078 -6.81901e-05 0)
(2.22039 -7.39579e-05 0)
(2.18392 -8.24012e-05 0)
(2.15177 -9.36704e-05 0)
(2.12507 -0.000110087 0)
(2.10392 -0.000131317 0)
(2.08972 -0.000160087 0)
(2.08255 -0.00019799 0)
(2.08417 -0.000247635 0)
(2.09503 -0.000313635 0)
(2.11738 -0.000397414 0)
(2.15224 -0.00050695 0)
(2.20243 -0.000641539 0)
(2.26968 -0.000812445 0)
(2.3571 -0.00101396 0)
(2.4668 -0.00125609 0)
(2.599 -0.00151434 0)
(2.75214 -0.00188892 0)
(2.92724 -0.0022085 0)
(3.11672 -0.00302979 0)
(3.34204 -0.00349684 0)
(3.59572 -0.00509778 0)
(3.92097 -0.00559084 0)
(4.29412 -0.00762541 0)
(4.76681 -0.00773161 0)
(5.27276 -0.00962355 0)
(5.87781 -0.00933001 0)
(6.51264 -0.0112802 0)
(7.21987 -0.00981949 0)
(7.75474 -0.0148696 0)
(8.19573 -0.0120058 0)
(8.66299 -0.0199256 0)
(9.17475 -0.0172235 0)
(9.75271 -0.0272538 0)
(10.2578 -0.0246967 0)
(10.8583 -0.0352317 0)
(11.4199 -0.0339228 0)
(12.0338 -0.0385199 0)
(12.682 -0.0368604 0)
(13.3144 -0.0362527 0)
(13.9925 -0.0348449 0)
(14.6707 -0.0370824 0)
(15.3782 -0.0387284 0)
(16.1328 -0.047045 0)
(16.9575 -0.0520826 0)
(17.8368 -0.064544 0)
(18.8735 -0.0706853 0)
(19.9158 -0.0859339 0)
(21.242 -0.093545 0)
(22.4697 -0.116072 0)
(24.2417 -0.125923 0)
(25.6831 -0.191154 0)
(28.5725 -0.18275 0)
(30.164 -0.643016 0)
(27.9068 0.0774688 0)
(16.1342 0.0156702 0)
(12.2839 0.00496318 0)
(10.4019 0.00264604 0)
(9.25262 0.00181034 0)
(8.46435 0.00126621 0)
(7.85976 0.00109013 0)
(7.39202 0.00081978 0)
(6.98916 0.000791945 0)
(6.66814 0.000600055 0)
(6.36885 0.000625644 0)
(6.12525 0.000474342 0)
(5.88583 0.000514678 0)
(5.68912 0.000388322 0)
(5.48871 0.000429868 0)
(5.32198 0.000323037 0)
(5.14845 0.000358694 0)
(5.00187 0.000267194 0)
(4.84833 0.000293298 0)
(4.7165 0.000214293 0)
(4.57908 0.000229903 0)
(4.45916 0.000161534 0)
(4.33565 0.000166952 0)
(4.22627 0.000107506 0)
(4.11549 0.000103241 0)
(4.0163 5.13691e-05 0)
(3.9177 3.98284e-05 0)
(3.82859 -3.59277e-06 0)
(3.74137 -1.76892e-05 0)
(3.66169 -5.13569e-05 0)
(3.58488 -6.51217e-05 0)
(3.51421 -8.72767e-05 0)
(3.44658 -9.50128e-05 0)
(3.38332 -0.000105791 0)
(3.32363 -0.000113423 0)
(3.26852 -0.000125381 0)
(3.2189 -0.000142484 0)
(3.1752 -0.000165433 0)
(3.13901 -0.000198436 0)
(3.11037 -0.000241036 0)
(3.09119 -0.000298434 0)
(3.08151 -0.000373679 0)
(3.08374 -0.000471879 0)
(3.09837 -0.00060164 0)
(3.12842 -0.00076588 0)
(3.17516 -0.000979328 0)
(3.24226 -0.00124101 0)
(3.33194 -0.00157155 0)
(3.44814 -0.00196149 0)
(3.5939 -0.00242944 0)
(3.76952 -0.00293471 0)
(3.97492 -0.00365859 0)
(4.20979 -0.00428451 0)
(4.4696 -0.00581541 0)
(4.77299 -0.00667943 0)
(5.11761 -0.00954527 0)
(5.54472 -0.010412 0)
(6.02967 -0.0139524 0)
(6.63109 -0.0141713 0)
(7.26918 -0.0173995 0)
(8.0252 -0.0170449 0)
(8.81569 -0.0202704 0)
(9.68492 -0.018059 0)
(10.3686 -0.0257909 0)
(10.935 -0.021861 0)
(11.5287 -0.0338126 0)
(12.1647 -0.0308578 0)
(12.8895 -0.0454348 0)
(13.5369 -0.0422915 0)
(14.2743 -0.0569364 0)
(14.9716 -0.0553581 0)
(15.6988 -0.0615909 0)
(16.4625 -0.0597788 0)
(17.2067 -0.0593895 0)
(18.0009 -0.0584575 0)
(18.804 -0.0624953 0)
(19.646 -0.066086 0)
(20.5318 -0.0786325 0)
(21.4961 -0.0870644 0)
(22.4948 -0.105508 0)
(23.6544 -0.115849 0)
(24.7893 -0.138425 0)
(26.2043 -0.151584 0)
(27.5009 -0.183974 0)
(29.2789 -0.203468 0)
(30.8251 -0.288307 0)
(33.4007 -0.3105 0)
(35.356 -0.82671 0)
(33.6848 0.0986095 0)
(21.5195 0.0256203 0)
(16.6182 0.00909067 0)
(14.1156 0.00490494 0)
(12.5667 0.00336024 0)
(11.5046 0.00236097 0)
(10.6846 0.00202369 0)
(10.0552 0.00152873 0)
(9.50932 0.0014676 0)
(9.07839 0.00111811 0)
(8.67429 0.0011567 0)
(8.34879 0.000882439 0)
(8.02722 0.000949786 0)
(7.76557 0.00072156 0)
(7.49801 0.000792267 0)
(7.27729 0.00059987 0)
(7.04714 0.000660835 0)
(6.85405 0.00049658 0)
(6.65174 0.000541096 0)
(6.47891 0.000399756 0)
(6.29893 0.000426072 0)
(6.14242 0.00030417 0)
(5.98151 0.000312811 0)
(5.83935 0.000207215 0)
(5.69564 0.000199219 0)
(5.56713 0.000107606 0)
(5.43957 8.74286e-05 0)
(5.32426 1.14206e-05 0)
(5.21145 -1.25322e-05 0)
(5.10823 -7.09205e-05 0)
(5.00871 -9.40871e-05 0)
(4.91701 -0.000132544 0)
(4.82939 -0.000145603 0)
(4.74748 -0.000164608 0)
(4.67046 -0.000177959 0)
(4.59943 -0.000199423 0)
(4.5357 -0.000229854 0)
(4.47965 -0.000270925 0)
(4.43338 -0.00032964 0)
(4.3968 -0.00040549 0)
(4.3724 -0.000507399 0)
(4.36011 -0.000640749 0)
(4.363 -0.000814372 0)
(4.38159 -0.0010429 0)
(4.41964 -0.00133136 0)
(4.47863 -0.00170434 0)
(4.56301 -0.00216037 0)
(4.67548 -0.00273339 0)
(4.82066 -0.00340965 0)
(5.00274 -0.00422049 0)
(5.22201 -0.00510885 0)
(5.48134 -0.0063634 0)
(5.77748 -0.00747334 0)
(6.11296 -0.0100264 0)
(6.4971 -0.0114781 0)
(6.93725 -0.0160508 0)
(7.46424 -0.0174293 0)
(8.05571 -0.0229095 0)
(8.77214 -0.0233291 0)
(9.52557 -0.028234 0)
(10.4072 -0.0279466 0)
(11.326 -0.0327185 0)
(12.3225 -0.0299075 0)
(13.1428 -0.0406499 0)
(13.8267 -0.0360959 0)
(14.5356 -0.0522169 0)
(15.2739 -0.0497449 0)
(16.1082 -0.0690596 0)
(16.8711 -0.0659451 0)
(17.7095 -0.0845358 0)
(18.5096 -0.0830588 0)
(19.3229 -0.090775 0)
(20.1638 -0.089139 0)
(20.9867 -0.0892698 0)
(21.8531 -0.0893297 0)
(22.7306 -0.095797 0)
(23.6487 -0.10202 0)
(24.5986 -0.119407 0)
(25.6253 -0.131903 0)
(26.6629 -0.15681 0)
(27.8528 -0.171975 0)
(28.9888 -0.202319 0)
(30.3963 -0.221795 0)
(31.6486 -0.264216 0)
(33.3722 -0.29532 0)
(34.8267 -0.397509 0)
(37.1887 -0.458732 0)
(39.0584 -1.00141 0)
(38.6808 0.119133 0)
(27.3526 0.0382838 0)
(21.6513 0.0153295 0)
(18.5072 0.00847548 0)
(16.5115 0.00582866 0)
(15.1372 0.00412076 0)
(14.0676 0.00351628 0)
(13.2514 0.00267162 0)
(12.5388 0.00254643 0)
(11.9807 0.00195336 0)
(11.455 0.00200189 0)
(11.0354 0.00153909 0)
(10.6194 0.00164008 0)
(10.2838 0.00125677 0)
(9.94001 0.00136571 0)
(9.65848 0.00104386 0)
(9.36496 0.00113821 0)
(9.1201 0.000864615 0)
(8.86394 0.000932986 0)
(8.64598 0.000698645 0)
(8.41955 0.000738071 0)
(8.22314 0.000536883 0)
(8.02178 0.000548268 0)
(7.84411 0.000374893 0)
(7.665 0.000360245 0)
(7.50479 0.000211017 0)
(7.34604 0.000178058 0)
(7.20231 5.57711e-05 0)
(7.06175 1.84009e-05 0)
(6.9328 -7.42027e-05 0)
(6.80844 -0.000109669 0)
(6.69359 -0.000170509 0)
(6.58407 -0.000190459 0)
(6.48175 -0.000220993 0)
(6.3859 -0.000242505 0)
(6.29765 -0.000278131 0)
(6.21875 -0.000328462 0)
(6.14943 -0.000396855 0)
(6.09234 -0.00049409 0)
(6.0472 -0.000619845 0)
(6.01708 -0.000788278 0)
(6.00179 -0.00100817 0)
(6.00502 -0.00129366 0)
(6.02731 -0.00166753 0)
(6.07306 -0.00213797 0)
(6.14394 -0.00274241 0)
(6.24505 -0.00347944 0)
(6.37955 -0.00439976 0)
(6.55251 -0.00548719 0)
(6.76949 -0.00678891 0)
(7.03047 -0.00823863 0)
(7.34273 -0.0102466 0)
(7.69825 -0.012079 0)
(8.1101 -0.0159939 0)
(8.57294 -0.0182846 0)
(9.10656 -0.0249752 0)
(9.72556 -0.0270671 0)
(10.4114 -0.0348372 0)
(11.2214 -0.0356487 0)
(12.0661 -0.0424869 0)
(13.0385 -0.0425181 0)
(14.0489 -0.0490408 0)
(15.1296 -0.0460605 0)
(16.0552 -0.0601402 0)
(16.8301 -0.0557261 0)
(17.6283 -0.0759379 0)
(18.4396 -0.0746082 0)
(19.3378 -0.0986725 0)
(20.1712 -0.0963312 0)
(21.0636 -0.118635 0)
(21.9163 -0.117743 0)
(22.7744 -0.126781 0)
(23.6476 -0.125602 0)
(24.5061 -0.126488 0)
(25.3987 -0.127856 0)
(26.2988 -0.137179 0)
(27.2347 -0.146447 0)
(28.187 -0.169032 0)
(29.2078 -0.18594 0)
(30.2194 -0.217601 0)
(31.3719 -0.237811 0)
(32.4508 -0.276448 0)
(33.7945 -0.302371 0)
(34.9547 -0.355877 0)
(36.5955 -0.398999 0)
(37.91 -0.518663 0)
(40.1148 -0.623184 0)
(41.7943 -1.17791 0)
(42.5198 0.13713 0)
(33.2083 0.0529408 0)
(27.2562 0.0240235 0)
(23.579 0.0138281 0)
(21.1358 0.00959403 0)
(19.4293 0.00684966 0)
(18.0861 0.00581488 0)
(17.0627 0.00445865 0)
(16.164 0.00420845 0)
(15.4631 0.00326451 0)
(14.8014 0.00330138 0)
(14.2765 0.00257137 0)
(13.7558 0.0027001 0)
(13.338 0.00210009 0)
(12.9107 0.00224705 0)
(12.5623 0.00174651 0)
(12.2003 0.00187507 0)
(11.8992 0.00145232 0)
(11.5856 0.00154421 0)
(11.3192 0.00118446 0)
(11.0437 0.00123485 0)
(10.8049 0.000927893 0)
(10.5611 0.000938107 0)
(10.3458 0.000675283 0)
(10.1296 0.000648744 0)
(9.93575 0.000424614 0)
(9.74414 0.000373662 0)
(9.57003 0.000192599 0)
(9.3999 0.000138281 0)
(9.24319 3.2801e-06 0)
(9.09209 -4.72266e-05 0)
(8.95216 -0.0001362 0)
(8.81903 -0.00016525 0)
(8.69479 -0.000211743 0)
(8.57889 -0.000245908 0)
(8.47242 -0.000303369 0)
(8.37757 -0.000384136 0)
(8.29433 -0.000494191 0)
(8.22591 -0.000648943 0)
(8.17176 -0.000848806 0)
(8.1355 -0.00111469 0)
(8.11678 -0.00145999 0)
(8.11984 -0.001906 0)
(8.14518 -0.00248552 0)
(8.19773 -0.00321169 0)
(8.27926 -0.00413695 0)
(8.39529 -0.00526223 0)
(8.54941 -0.00665689 0)
(8.74682 -0.00830809 0)
(8.9944 -0.0102787 0)
(9.29142 -0.0125106 0)
(9.6503 -0.0155289 0)
(10.0572 -0.0183839 0)
(10.537 -0.0240054 0)
(11.0683 -0.0274583 0)
(11.6819 -0.0366088 0)
(12.3755 -0.0397022 0)
(13.1338 -0.0499874 0)
(14.0065 -0.0514827 0)
(14.91 -0.0604079 0)
(15.9301 -0.0610898 0)
(16.9883 -0.0695081 0)
(18.1055 -0.0669507 0)
(19.0871 -0.084696 0)
(19.9078 -0.0813129 0)
(20.7515 -0.10556 0)
(21.5956 -0.105868 0)
(22.5115 -0.134564 0)
(23.3664 -0.133631 0)
(24.2652 -0.159393 0)
(25.1219 -0.15952 0)
(25.9803 -0.169746 0)
(26.8444 -0.169234 0)
(27.6972 -0.171053 0)
(28.5764 -0.1739 0)
(29.4591 -0.186333 0)
(30.3719 -0.198852 0)
(31.29 -0.226828 0)
(32.2689 -0.248399 0)
(33.2291 -0.28711 0)
(34.3204 -0.312672 0)
(35.3357 -0.36013 0)
(36.6071 -0.392901 0)
(37.6905 -0.458943 0)
(39.2536 -0.515096 0)
(40.4645 -0.655249 0)
(42.5613 -0.805737 0)
(44.0921 -1.36529 0)
(44.8857 0.150442 0)
(38.4475 0.0679518 0)
(33.0477 0.0349536 0)
(29.1669 0.0213053 0)
(26.3859 0.0150503 0)
(24.3799 0.0109123 0)
(22.7711 0.00922075 0)
(21.5375 0.00716508 0)
(20.4474 0.00668211 0)
(19.5957 0.00526832 0)
(18.7918 0.00523646 0)
(18.154 0.00415724 0)
(17.5239 0.00428035 0)
(17.0179 0.00340349 0)
(16.5039 0.00356643 0)
(16.0843 0.00284198 0)
(15.6518 0.00298826 0)
(15.2915 0.00238184 0)
(14.9195 0.00248347 0)
(14.6026 0.00197169 0)
(14.2776 0.00202082 0)
(13.9949 0.00158737 0)
(13.7085 0.00158528 0)
(13.4546 0.00121674 0)
(13.2011 0.00116839 0)
(12.9728 0.00085708 0)
(12.748 0.000780543 0)
(12.5426 0.000532741 0)
(12.3423 0.000456987 0)
(12.157 0.000274634 0)
(11.9784 0.000205277 0)
(11.8125 8.30189e-05 0)
(11.6551 4.00184e-05 0)
(11.5084 -2.94055e-05 0)
(11.3721 -8.53399e-05 0)
(11.2473 -0.000177671 0)
(11.1364 -0.000306019 0)
(11.0393 -0.000479801 0)
(10.9596 -0.000719621 0)
(10.8963 -0.00102758 0)
(10.8536 -0.00143242 0)
(10.8309 -0.00195371 0)
(10.8328 -0.00262158 0)
(10.8597 -0.00348052 0)
(10.9167 -0.00455098 0)
(11.0057 -0.00590184 0)
(11.1324 -0.00754034 0)
(11.3004 -0.00955447 0)
(11.5148 -0.0119441 0)
(11.7835 -0.0147832 0)
(12.1047 -0.018049 0)
(12.4952 -0.0223542 0)
(12.9365 -0.0265766 0)
(13.4621 -0.0342391 0)
(14.0391 -0.0392399 0)
(14.7037 -0.0511127 0)
(15.4405 -0.0555668 0)
(16.2372 -0.0684764 0)
(17.1322 -0.0709887 0)
(18.0547 -0.0820761 0)
(19.0769 -0.0837456 0)
(20.1368 -0.0941818 0)
(21.2462 -0.0925921 0)
(22.2303 -0.114263 0)
(23.0506 -0.112735 0)
(23.893 -0.141048 0)
(24.7296 -0.143435 0)
(25.6255 -0.176664 0)
(26.4648 -0.177671 0)
(27.3374 -0.206669 0)
(28.1679 -0.208199 0)
(28.9984 -0.219505 0)
(29.8293 -0.219863 0)
(30.6519 -0.222803 0)
(31.4963 -0.227327 0)
(32.3435 -0.24318 0)
(33.2177 -0.259245 0)
(34.095 -0.29289 0)
(35.0292 -0.319543 0)
(35.9462 -0.365779 0)
(36.987 -0.397761 0)
(37.9609 -0.455698 0)
(39.1811 -0.496974 0)
(40.2236 -0.578081 0)
(41.7324 -0.649151 0)
(42.8877 -0.81249 0)
(44.895 -1.01033 0)
(46.2984 -1.57423 0)
(45.6845 0.157365 0)
(42.3486 0.0807981 0)
(38.3245 0.046863 0)
(34.8086 0.0306933 0)
(31.9862 0.0223779 0)
(29.8239 0.0166132 0)
(28.0291 0.0140259 0)
(26.6244 0.0110899 0)
(25.3712 0.0102208 0)
(24.3802 0.00822204 0)
(23.4463 0.00802001 0)
(22.6986 0.00651697 0)
(21.9657 0.00656314 0)
(21.372 0.00535956 0)
(20.7755 0.00548517 0)
(20.2844 0.00450305 0)
(19.7848 0.00462551 0)
(19.3649 0.00381241 0)
(18.9371 0.00389058 0)
(18.5697 0.00321096 0)
(18.1976 0.00323209 0)
(17.8713 0.00266103 0)
(17.5442 0.00262514 0)
(17.252 0.0021428 0)
(16.9628 0.00205576 0)
(16.7006 0.00165177 0)
(16.4438 0.00153789 0)
(16.2077 0.00122086 0)
(15.9782 0.00111674 0)
(15.7647 0.00088554 0)
(15.5594 0.000791016 0)
(15.368 0.000630528 0)
(15.1868 0.000564395 0)
(15.0179 0.000461315 0)
(14.8617 0.000367959 0)
(14.7188 0.000220833 0)
(14.5922 1.96321e-05 0)
(14.4814 -0.000248726 0)
(14.39 -0.000610171 0)
(14.3172 -0.0010697 0)
(14.2669 -0.00166425 0)
(14.2384 -0.00242143 0)
(14.2363 -0.0033813 0)
(14.2608 -0.00460181 0)
(14.317 -0.00611314 0)
(14.4067 -0.00800148 0)
(14.5351 -0.0102852 0)
(14.7061 -0.0130696 0)
(14.9242 -0.0163775 0)
(15.1974 -0.0202877 0)
(15.5235 -0.0248405 0)
(15.9211 -0.0307048 0)
(16.3702 -0.0366436 0)
(16.9073 -0.0466533 0)
(17.4951 -0.0536096 0)
(18.1693 -0.0684082 0)
(18.9075 -0.0745996 0)
(19.7004 -0.090194 0)
(20.5757 -0.094044 0)
(21.4769 -0.107359 0)
(22.4627 -0.110337 0)
(23.4868 -0.122965 0)
(24.5555 -0.122767 0)
(25.504 -0.148526 0)
(26.2937 -0.149602 0)
(27.1055 -0.182131 0)
(27.9101 -0.187098 0)
(28.7671 -0.224807 0)
(29.5739 -0.228291 0)
(30.4081 -0.260309 0)
(31.2028 -0.263671 0)
(31.9968 -0.276056 0)
(32.7884 -0.277581 0)
(33.5747 -0.281969 0)
(34.3796 -0.288508 0)
(35.1898 -0.308214 0)
(36.0253 -0.328589 0)
(36.8689 -0.368854 0)
(37.7681 -0.402075 0)
(38.6598 -0.457334 0)
(39.6672 -0.497203 0)
(40.6193 -0.566868 0)
(41.7946 -0.617931 0)
(42.8083 -0.716184 0)
(44.2546 -0.804221 0)
(45.3613 -0.994355 0)
(47.2646 -1.23961 0)
(48.541 -1.80918 0)
(45.2442 0.157793 0)
(44.4284 0.0888639 0)
(42.2291 0.0573188 0)
(39.7002 0.0406503 0)
(37.3146 0.0310483 0)
(35.2983 0.0238604 0)
(33.5173 0.0203054 0)
(32.0632 0.0164088 0)
(30.7377 0.0150084 0)
(29.6622 0.0123458 0)
(28.6458 0.0118472 0)
(27.8158 0.00986672 0)
(27.008 0.00973446 0)
(26.3415 0.00817093 0)
(25.6805 0.00817822 0)
(25.1266 0.0069192 0)
(24.5719 0.0069533 0)
(24.0981 0.0059232 0)
(23.6229 0.00592678 0)
(23.2087 0.00507428 0)
(22.7952 0.0050273 0)
(22.428 0.00431633 0)
(22.0643 0.00421555 0)
(21.7359 0.00361817 0)
(21.4138 0.0034689 0)
(21.1192 0.0029717 0)
(20.8325 0.00280421 0)
(20.567 0.00241882 0)
(20.31 0.00227631 0)
(20.0695 0.00199655 0)
(19.8388 0.0018677 0)
(19.6227 0.00166354 0)
(19.4185 0.00156092 0)
(19.2279 0.00140972 0)
(19.0518 0.00125707 0)
(18.8907 0.00102861 0)
(18.7476 0.000721648 0)
(18.6221 0.00032023 0)
(18.5175 -0.000206383 0)
(18.4329 -0.000866997 0)
(18.3716 -0.00170634 0)
(18.3332 -0.00276186 0)
(18.3213 -0.00408408 0)
(18.3364 -0.00574602 0)
(18.3829 -0.00778966 0)
(18.4623 -0.0103194 0)
(18.5795 -0.013369 0)
(18.738 -0.0170607 0)
(18.9418 -0.0214478 0)
(19.1984 -0.0266114 0)
(19.5062 -0.0326745 0)
(19.8828 -0.0403417 0)
(20.3105 -0.0483115 0)
(20.8231 -0.0609413 0)
(21.3857 -0.0702355 0)
(22.0298 -0.0881562 0)
(22.7321 -0.096452 0)
(23.4849 -0.114831 0)
(24.3094 -0.120354 0)
(25.1606 -0.136027 0)
(26.0869 -0.140682 0)
(27.054 -0.155815 0)
(28.0647 -0.157404 0)
(28.9616 -0.187389 0)
(29.7102 -0.191732 0)
(30.4819 -0.22863 0)
(31.2476 -0.236783 0)
(32.0598 -0.279187 0)
(32.8307 -0.2861 0)
(33.6228 -0.321173 0)
(34.3794 -0.326989 0)
(35.1337 -0.340458 0)
(35.8843 -0.343554 0)
(36.632 -0.349728 0)
(37.3963 -0.358967 0)
(38.1706 -0.383319 0)
(38.9702 -0.409087 0)
(39.7835 -0.456859 0)
(40.6467 -0.497884 0)
(41.5103 -0.563086 0)
(42.4728 -0.61244 0)
(43.3948 -0.695326 0)
(44.5072 -0.75797 0)
(45.4863 -0.875593 0)
(46.843 -0.982638 0)
(47.9002 -1.20227 0)
(49.6612 -1.49308 0)
(50.8135 -2.06974 0)
(44.3554 0.154133 0)
(44.8528 0.0911358 0)
(44.2377 0.0636882 0)
(42.9825 0.04868 0)
(41.4706 0.0393112 0)
(39.9907 0.0315986 0)
(38.5395 0.0274645 0)
(37.264 0.0228233 0)
(36.0461 0.0209034 0)
(35.0121 0.0176172 0)
(34.0183 0.0167447 0)
(33.1788 0.0142896 0)
(32.3609 0.013889 0)
(31.6664 0.0119645 0)
(30.9827 0.0117715 0)
(30.3947 0.0102372 0)
(29.8126 0.0101141 0)
(29.3037 0.00887126 0)
(28.7999 0.00874464 0)
(28.3517 0.00772473 0)
(27.9096 0.00756611 0)
(27.5101 0.00672038 0)
(27.1184 0.00652123 0)
(26.7598 0.00581259 0)
(26.4107 0.00557583 0)
(26.0877 0.00498783 0)
(25.7752 0.00474881 0)
(25.4832 0.00429697 0)
(25.2017 0.00410427 0)
(24.9365 0.00377613 0)
(24.6827 0.00360204 0)
(24.4439 0.00334793 0)
(24.2184 0.00319326 0)
(24.0074 0.00297713 0)
(23.8121 0.00273982 0)
(23.6332 0.00240032 0)
(23.4732 0.00195161 0)
(23.3318 0.00137564 0)
(23.212 0.000637959 0)
(23.1127 -0.000273199 0)
(23.0367 -0.00140928 0)
(22.9833 -0.00281896 0)
(22.9555 -0.00456351 0)
(22.9536 -0.00673259 0)
(22.9812 -0.00938193 0)
(23.0398 -0.0126358 0)
(23.1333 -0.0165468 0)
(23.2654 -0.0212564 0)
(23.4396 -0.0268531 0)
(23.6627 -0.0334254 0)
(23.9341 -0.041188 0)
(24.2696 -0.0508788 0)
(24.655 -0.0611614 0)
(25.1198 -0.0766806 0)
(25.6344 -0.0886787 0)
(26.2246 -0.109963 0)
(26.8698 -0.120758 0)
(27.5628 -0.142123 0)
(28.3208 -0.149663 0)
(29.1079 -0.167901 0)
(29.9642 -0.174615 0)
(30.8642 -0.192607 0)
(31.8074 -0.196517 0)
(32.6469 -0.231091 0)
(33.3509 -0.239945 0)
(34.0764 -0.281581 0)
(34.8008 -0.293981 0)
(35.5643 -0.3409 0)
(36.2905 -0.3517 0)
(37.0302 -0.389378 0)
(37.7356 -0.397913 0)
(38.4369 -0.412503 0)
(39.1341 -0.417572 0)
(39.832 -0.42612 0)
(40.5463 -0.438815 0)
(41.2749 -0.468651 0)
(42.0276 -0.5011 0)
(42.7981 -0.557391 0)
(43.6112 -0.607802 0)
(44.4312 -0.683947 0)
(45.3309 -0.744473 0)
(46.2061 -0.841361 0)
(47.2332 -0.917586 0)
(48.1648 -1.05572 0)
(49.4003 -1.18433 0)
(50.4051 -1.43511 0)
(51.9743 -1.76799 0)
(53.0165 -2.35272 0)
(43.8677 0.150445 0)
(44.5094 0.0896436 0)
(44.6875 0.0653057 0)
(44.4052 0.0526798 0)
(43.809 0.0447587 0)
(43.0692 0.0376917 0)
(42.2094 0.0338216 0)
(41.3617 0.0290753 0)
(40.4794 0.0269894 0)
(39.6749 0.0233764 0)
(38.8666 0.0222391 0)
(38.1475 0.019452 0)
(37.4323 0.0187937 0)
(36.799 0.0165866 0)
(36.171 0.0161689 0)
(35.6115 0.0144095 0)
(35.0575 0.0140961 0)
(34.5583 0.0126766 0)
(34.0655 0.0123888 0)
(33.6159 0.0112285 0)
(33.174 0.0109324 0)
(32.7663 0.0099721 0)
(32.368 0.00965404 0)
(31.9971 0.00884824 0)
(31.6371 0.00850786 0)
(31.2998 0.00783789 0)
(30.974 0.00751501 0)
(30.6667 0.00700157 0)
(30.371 0.00674919 0)
(30.0908 0.00637332 0)
(29.8229 0.00614343 0)
(29.5699 0.00583258 0)
(29.3308 0.00560981 0)
(29.1067 0.0053112 0)
(28.8989 0.00496341 0)
(28.7079 0.00448302 0)
(28.5361 0.0038571 0)
(28.3831 0.00306826 0)
(28.2512 0.00207812 0)
(28.1395 0.000872315 0)
(28.0501 -0.000604689 0)
(27.9821 -0.00241273 0)
(27.9379 -0.00462448 0)
(27.9175 -0.00734831 0)
(27.9238 -0.0106563 0)
(27.9581 -0.0146953 0)
(28.0241 -0.0195414 0)
(28.125 -0.0253601 0)
(28.2642 -0.0322783 0)
(28.4479 -0.0404037 0)
(28.6767 -0.0500438 0)
(28.9639 -0.0619815 0)
(29.2995 -0.0748537 0)
(29.7071 -0.0935501 0)
(30.1633 -0.108629 0)
(30.6878 -0.133526 0)
(31.2636 -0.147161 0)
(31.8836 -0.171682 0)
(32.5615 -0.181782 0)
(33.2698 -0.202923 0)
(34.0419 -0.212471 0)
(34.8584 -0.233759 0)
(35.7203 -0.240898 0)
(36.494 -0.280279 0)
(37.1414 -0.29407 0)
(37.8038 -0.340395 0)
(38.4648 -0.35738 0)
(39.1542 -0.40871 0)
(39.8103 -0.423858 0)
(40.4733 -0.463937 0)