/*--------------------------------*- C++ -*----------------------------------*\
| =========                 |                                                 |
| \\      /  F ield         | OpenFOAM: The Open Source CFD Toolbox           |
|  \\    /   O peration     | Version:  2306                                  |
|   \\  /    A nd           | Website:  www.openfoam.com                      |
|    \\/     M anipulation  |                                                 |
\*---------------------------------------------------------------------------*/
FoamFile
{
    version     2.0;
    format      ascii;
    arch        "LSB;label=32;scalar=64";
    class       volVectorField;
    location    "1000";
    object      wallShearStress;
}
// * * * * * * * * * * * * * * * * * * * * * * * * * * * * * * * * * * * * * //

dimensions      [0 2 -2 0 0 0 0];

internalField   uniform (0 0 0);

boundaryField
{
    inlet
    {
        type            calculated;
        value           uniform (0 0 0);
    }
    outlet
    {
        type            calculated;
        value           uniform (0 0 0);
    }
    lowerWallStartup
    {
        type            symmetryPlane;
    }
    upperWallStartup
    {
        type            symmetryPlane;
    }
    upperWall
    {
        type            calculated;
        value           nonuniform List<vector> 
218
(
(-3.62942 0.0161025 0)
(-1.4833 0.000329543 0)
(-1.12273 7.69577e-05 0)
(-0.946647 2.25287e-05 0)
(-0.841353 3.03573e-05 0)
(-0.770126 1.65153e-06 0)
(-0.713164 2.17541e-05 0)
(-0.672688 -6.02196e-06 0)
(-0.632285 1.90627e-05 0)
(-0.606685 -1.10835e-05 0)
(-0.574033 1.82667e-05 0)
(-0.55689 -1.44512e-05 0)
(-0.527936 1.84109e-05 0)
(-0.516618 -1.71031e-05 0)
(-0.489356 1.91556e-05 0)
(-0.482394 -1.97163e-05 0)
(-0.455624 2.04948e-05 0)
(-0.452124 -2.27711e-05 0)
(-0.425162 2.25534e-05 0)
(-0.424593 -2.64296e-05 0)
(-0.39704 2.53697e-05 0)
(-0.399108 -3.05137e-05 0)
(-0.370636 2.87325e-05 0)
(-0.375366 -3.45274e-05 0)
(-0.345071 3.208e-05 0)
(-0.353907 -3.8883e-05 0)
(-0.321811 0.00019949 0)
(-0.295465 8.31297e-05 0)
(-0.296538 -0.000128608 0)
(-0.311582 -4.12859e-05 0)
(-0.282363 3.62391e-05 0)
(-0.297404 -3.03059e-05 0)
(-0.264948 3.14475e-05 0)
(-0.281793 -1.27228e-05 0)
(-0.248396 1.70286e-05 0)
(-0.267464 1.52525e-05 0)
(-0.232573 -7.82501e-06 0)
(-0.253705 5.65784e-05 0)
(-0.216661 -4.62749e-05 0)
(-0.239741 0.000114046 0)
(-0.199516 -0.000102785 0)
(-0.224066 0.000189244 0)
(-0.179178 -0.000182321 0)
(-0.204113 0.000281872 0)
(-0.152528 -0.000287935 0)
(-0.176348 0.000394988 0)
(-0.115024 -0.000421396 0)
(-0.137006 0.000547074 0)
(-0.0610428 -0.000593265 0)
(-0.0822084 0.000748183 0)
(0.0129524 -0.00478585 0)
(-27.6965 4.49736 0)
(0.0855123 -0.00109665 0)
(0.0459309 0.00165733 0)
(0.162098 -0.00114233 0)
(0.188551 0.00159356 0)
(0.292578 -0.00163398 0)
(0.11649 0.00200603 0)
(0.880216 0.00351919 0)
(2.40945 -0.0022639 0)
(0.238817 -0.00927792 0)
(-3.0531 -0.0177453 0)
(-0.462264 0.0142447 0)
(3.56061 0.0162513 0)
(2.6901 0.0127209 0)
(1.75851 -0.00595077 0)
(2.42855 0.00919912 0)
(2.2267 0.0303669 0)
(-0.58114 -0.00997371 0)
(-6.1311 -0.0263044 0)
(-8.04944 -0.00511304 0)
(-1.88482 0.0697705 0)
(4.80179 0.0495398 0)
(4.80128 -0.000354706 0)
(3.44645 -0.00750748 0)
(2.64806 0.010484 0)
(1.68778 0.00940211 0)
(0.512321 -0.0022936 0)
(-1.12555 -0.00911981 0)
(-2.51894 -0.0179559 0)
(-3.52972 -0.00990072 0)
(-4.02458 -0.00331135 0)
(-4.42329 -0.00798497 0)
(-5.50472 -0.0176203 0)
(-6.74846 -0.0198078 0)
(-7.31577 -0.0145511 0)
(-6.76993 0.0368058 0)
(-2.63845 0.104948 0)
(1.49506 0.0767358 3.31582e-18)
(3.20304 0.0216267 0)
(4.07768 0.0219303 -3.30145e-18)
(4.53742 0.00491247 3.30131e-18)
(4.57545 0.0110292 0)
(4.3115 -0.00225346 3.31688e-18)
(3.95334 0.00741712 0)
(3.22757 -0.0111035 0)
(2.50549 0.0041752 0)
(2.00645 -0.00676672 0)
(0.792409 0.0649211 -3.36865e-18)
(0.936058 -0.00874708 0)
(-0.0473168 0.0306852 3.37969e-18)
(-0.396696 -0.0050105 0)
(-0.874083 0.0102403 3.37825e-18)
(-1.2588 -0.0044869 -3.37531e-18)
(-1.62186 0.0050593 0)
(-1.82061 -0.00518803 -3.37006e-18)
(-2.0495 0.00833796 0)
(-1.91186 -0.00635596 3.36612e-18)
(-1.85477 0.0125325 0)
(-1.24751 -0.0065557 0)
(-0.494329 0.0341115 0)
(0.653493 0.0311414 0)
(1.08997 0.104866 0)
(-0.140012 0.0471817 0)
(-1.77903 0.0221405 0)
(-2.51638 0.00882949 -3.36226e-18)
(-2.89622 0.019136 3.35562e-18)
(-3.17502 -0.0145221 -3.34847e-18)
(-3.08633 0.00512136 3.35641e-18)
(-3.23795 -0.00892 0)
(-2.13365 0.0491784 3.34706e-18)
(-0.452358 0.0143241 0)
(0.463838 0.0374667 3.32496e-18)
(1.25906 -0.0115953 0)
(1.09734 0.0351259 0)
(0.210548 -0.0791984 3.32261e-18)
(-2.4998 0.015727 0)
(-6.12812 -0.0523911 3.27184e-18)
(-9.96114 -0.00821977 0)
(-11.4821 0.0459407 3.18324e-18)
(-7.43147 0.0612299 0)
(-5.47441 0.0054418 3.20003e-18)
(-0.659803 0.150636 0)
(5.40688 0.0728129 0)
(0.105834 0.00832763 3.19947e-18)
(-3.48612 -0.022852 0)
(-5.36386 0.00304469 3.18465e-18)
(-4.64076 0.0465269 0)
(-1.51261 0.329333 3.16913e-18)
(8.94528 0.192653 0)
(17.1285 0.0792657 3.13601e-18)
(17.6629 -0.042626 0)
(11.6301 -0.0497625 0)
(2.06845 -0.134822 3.27798e-18)
(-13.3975 -0.0934934 0)
(-22.7667 -0.0962852 3.11633e-18)
(-24.3779 0.0495171 0)
(-20.0059 0.179697 2.95351e-18)
(-5.88424 0.227712 0)
(6.88915 -0.00619284 0)
(-0.779819 -0.196751 3.12294e-18)
(-1.24685 -0.0223483 3.13294e-18)
(-4.95243 -0.0925775 0)
(-16.3047 -0.162383 3.05225e-18)
(-24.1993 -0.0273575 0)
(-23.2471 0.101012 2.86377e-18)
(-13.9683 0.202631 0)
(-1.51792 0.142034 2.87294e-18)
(5.85773 0.0328546 0)
(3.25149 -0.0430703 2.92423e-18)
(2.39607 0.0866914 2.93424e-18)
(3.83213 0.0266152 0)
(1.21841 0.0789588 2.9555e-18)
(0.136393 -0.02662 0)
(-3.50481 -0.0296004 2.96293e-18)
(-4.9275 -0.0150083 0)
(-5.63918 -0.00494028 0)
(-5.48005 0.00442635 2.93327e-18)
(-4.8924 0.035404 -2.93037e-18)
(-3.85573 0.0300123 2.91988e-18)
(-2.92112 0.0658209 -2.91728e-18)
(-0.169791 -0.0524169 0)
(-0.587171 0.0470204 0)
(0.508259 0.0162998 0)
(1.07488 0.038349 -2.87865e-18)
(1.86494 0.0131654 0)
(2.32318 0.0298273 0)
(2.92615 0.0110756 0)
(3.24413 0.0226558 0)
(3.6105 0.00896256 0)
(3.77046 0.014611 0)
(3.83024 0.0063454 0)
(3.74305 0.0062038 2.84444e-18)
(3.4491 -0.00159091 -2.84437e-18)
(2.66801 -0.00197669 0)
(1.91436 -0.00630288 0)
(1.08203 0.00335064 7.52928e-19)
(0.432879 -0.0100258 -6.5621e-19)
(-0.936434 0.00420186 -1.14344e-18)
(-1.97949 -0.0323723 -9.92911e-19)
(-4.3655 -0.031852 -1.72043e-18)
(-6.40009 -0.03414 -1.4852e-18)
(-11.465 -0.0320947 -1.27044e-18)
(-12.677 -0.0145164 0)
(-16.0598 0.0461262 -1.82939e-18)
(-1.71447 0.0843502 0)
(16.5021 0.024682 2.79407e-18)
(13.5891 -0.0433655 0)
(-1.11392 -0.0203391 0)
(-9.06636 -0.0615587 0)
(-9.81458 -0.03744 0)
(-11.0219 -0.0110064 0)
(-15.174 -0.0401708 0)
(-16.5899 -0.0369957 -6.69926e-18)
(-9.57525 -0.0238061 0)
(4.43132 0.00146293 8.74963e-18)
(14.4522 0.0640501 -7.52634e-18)
(18.937 0.153976 7.47646e-18)
(18.1696 0.23027 0)
(7.50536 0.1277 1.7693e-17)
(-15.5323 -0.375937 0)
(-28.3441 -0.725911 0)
(-20.7884 -0.480327 0)
(-12.415 -0.221892 0)
(-10.1681 -0.227518 0)
(-11.2813 -0.448212 0)
(-12.8255 -0.817695 -6.80955e-18)
(-14.631 -1.36599 0)
)
;
    }
    lowerWall
    {
        type            calculated;
        value           nonuniform List<vector> 
266
(
(-3.62961 -0.0160987 0)
(-1.48619 -0.000356095 0)
(-1.12458 -7.88866e-05 0)
(-0.947838 -3.96442e-05 0)
(-0.842331 -2.86791e-05 0)
(-0.76915 -1.82292e-05 0)
(-0.713947 -1.77179e-05 0)
(-0.670107 -1.21216e-05 0)
(-0.633071 -1.31269e-05 0)
(-0.602754 -8.99383e-06 0)
(-0.574901 -1.04506e-05 0)
(-0.55161 -7.26136e-06 0)
(-0.528993 -8.63033e-06 0)
(-0.509952 -6.09986e-06 0)
(-0.490686 -7.19787e-06 0)
(-0.474302 -5.13216e-06 0)
(-0.457267 -5.89106e-06 0)
(-0.442581 -4.1249e-06 0)
(-0.427132 -4.55579e-06 0)
(-0.413594 -3.00336e-06 0)
(-0.399359 -3.1764e-06 0)
(-0.386673 -1.8102e-06 0)
(-0.373446 -1.79194e-06 0)
(-0.361472 -5.86033e-07 0)
(-0.349165 -4.02721e-07 0)
(-0.337906 6.37194e-07 0)
(-0.326555 8.68217e-07 0)
(-0.316124 1.58424e-06 0)
(-0.305836 1.58354e-06 0)
(-0.29639 1.76286e-06 0)
(-0.287294 1.34647e-06 0)
(-0.278973 9.15575e-07 0)
(-0.271032 9.00211e-08 0)
(-0.263659 -7.71734e-07 0)
(-0.256678 -1.63416e-06 0)
(-0.250239 -2.52865e-06 0)
(-0.244365 -3.21862e-06 0)
(-0.239147 -4.00297e-06 0)
(-0.234723 -4.54856e-06 0)
(-0.231145 -5.06899e-06 0)
(-0.228608 -5.26444e-06 0)
(-0.227149 -4.9921e-06 0)
(-0.227016 -4.16295e-06 0)
(-0.228281 -2.21902e-06 0)
(-0.231269 4.68476e-07 0)
(-0.236147 4.81475e-06 0)
(-0.243369 9.76465e-06 0)
(-0.253268 1.65673e-05 0)
(-0.266448 2.36238e-05 0)
(-0.283329 3.25654e-05 0)
(-0.304002 4.17029e-05 0)
(-0.327601 5.85959e-05 0)
(-0.35441 7.48879e-05 0)
(-0.380845 0.000130982 0)
(-0.412194 0.000146107 0)
(-0.444721 0.00027961 0)
(-0.489086 0.000231922 0)
(-0.541665 0.000419955 0)
(-0.612928 0.000255049 0)
(-0.69321 0.000449488 0)
(-0.793557 0.000194174 0)
(-0.902513 0.000446419 0)
(-1.03051 0.000193469 0)
(-1.11548 0.000972826 0)
(-1.18739 0.000112729 0)
(-1.27341 0.00143441 0)
(-1.3762 0.000495021 0)
(-1.47535 0.00242382 0)
(-1.55869 0.00142397 0)
(-1.65902 0.00363359 0)
(-1.74811 0.00267627 0)
(-1.86721 0.00378894 0)
(-1.99235 0.00289501 0)
(-2.12727 0.00274854 0)
(-2.27131 0.00203416 0)
(-2.4097 0.00220015 0)
(-2.54962 0.00192787 0)
(-2.6964 0.00291145 0)
(-2.8592 0.00298979 0)
(-3.04704 0.00428955 0)
(-3.28303 0.00421218 0)
(-3.54914 0.00576404 0)
(-3.89823 0.00562148 0)
(-4.26426 0.00775106 0)
(-4.80863 0.0085335 0)
(-5.28003 0.0143012 0)
(-6.57271 0.0104512 0)
(-5.4658 0.162604 0)
(-0.3139 -11.3276 0)
(-0.174154 -1.84915 0)
(-0.2153 -0.952574 -4.469e-20)
(-0.301455 -0.187371 4.96071e-20)
(-0.278366 0.33131 0)
(-0.245606 0.49087 0)
(-0.200116 0.454959 0)
(-0.148336 0.366879 0)
(-0.112533 0.240024 0)
(-0.113642 0.1746 1.03626e-18)
(-0.110626 0.196828 -8.74575e-19)
(-0.0639728 0.27732 1.51195e-18)
(0.0465902 0.343631 -1.33139e-18)
(0.157143 0.308567 0)
(0.255915 0.234528 -2.4462e-18)
(0.33125 0.162825 3.84256e-18)
(0.429341 0.0560927 0)
(0.462268 -0.111953 0)
(0.546313 -0.335669 0)
(0.812431 -0.885966 -4.55582e-18)
(0.928079 -1.67063 4.71334e-18)
(0.872433 -2.60367 -9.30967e-18)
(0.643191 -3.55 9.31929e-18)
(0.23418 -4.21045 0)
(-0.209046 -4.1363 -1.90753e-17)
(-0.519822 -3.50551 1.85767e-17)
(-0.67678 -2.68157 0)
(-0.708826 -1.89654 0)
(-0.656582 -1.24518 0)
(-0.55385 -0.750389 0)
(-0.427385 -0.403209 0)
(-0.300398 -0.180514 0)
(-0.236542 -0.0681376 2.73036e-17)
(-0.217452 0.054441 1.87551e-20)
(-0.105164 0.366233 -9.86201e-17)
(0.227253 0.384944 0)
(0.285677 0.0746516 0)
(0.251201 0.0111873 0)
(0.280415 0.0177226 0)
(0.279769 0.00329332 0)
(0.278554 -0.00250208 -7.76135e-17)
(0.273545 0.0445098 9.54026e-17)
(0.294838 -0.102886 0)
(0.257517 -0.469382 0)
(0.143982 -1.00717 0)
(-0.0787702 -1.82584 2.33505e-17)
(-0.358747 -3.00977 -1.42682e-17)
(-0.677656 -3.75916 -0)
(-2.69352 -0.165732 -0)
(-4.66649 0.00152091 2.5189e-20)
(-2.91007 -0.00730232 0)
(-3.99365 0.0238026 2.51459e-20)
(-3.18034 -0.00494958 0)
(2.94885 -0.049531 0)
(9.16821 -0.0507609 0)
(12.8891 -0.0328958 0)
(14.4626 -0.0222098 -0)
(14.1507 -0.01095 2.53321e-20)
(12.3563 -0.000197769 0)
(9.86706 0.00641987 0)
(5.81851 0.0195963 0)
(-0.54668 0.0506183 0)
(-7.19142 0.0575727 0)
(-11.1349 0.0365085 0)
(-11.7564 0.0113158 0)
(-9.95518 -0.0183868 0)
(-5.52996 -0.0263607 0)
(-3.3886 -0.020827 0)
(-7.60788 0.050965 -2.56699e-20)
(-6.6538 0.0089707 0)
(-0.433592 -0.0669814 -2.54896e-20)
(1.25343 -0.0652162 0)
(2.36972 -0.00193059 -2.55036e-20)
(1.60489 0.0295495 0)
(-3.12107 0.0394571 -2.56154e-20)
(-7.95717 0.0707212 0)
(-8.11158 0.0173003 0)
(-1.47263 -0.0599337 0)
(4.85959 -0.06868 -2.50348e-20)
(7.46486 -0.0219996 -2.50146e-20)
(8.17225 -0.011964 -2.50927e-20)
(7.81373 -0.00282384 -2.52025e-20)
(6.86102 -2.63754e-05 -2.5327e-20)
(5.69822 0.00274578 -0)
(4.49349 0.00222277 0)
(3.38205 0.00466231 -2.55996e-20)
(2.41046 0.00332617 -2.56522e-20)
(1.57325 0.00416122 -2.56828e-20)
(0.7781 0.00213565 -2.57061e-20)
(-0.00258102 0.00549506 -3.86865e-22)
(-0.622928 0.00223657 -2.57093e-20)
(-1.19825 0.0055546 -0)
(-1.72106 0.00305478 -2.56721e-20)
(-2.16729 0.00550129 -2.56425e-20)
(-2.56498 0.00308204 -2.56171e-20)
(-2.91207 0.00533124 -2.55809e-20)
(-3.21729 0.00300352 -2.55503e-20)
(-3.48599 0.00529511 -2.55097e-20)
(-3.71557 0.00304189 0)
(-3.92159 0.00544681 -2.54327e-20)
(-4.09057 0.0033011 -2.53969e-20)
(-4.25521 0.00532522 -2.5352e-20)
(-4.39123 0.00338176 -2.53132e-20)
(-4.53089 0.00428641 -2.52673e-20)
(-4.65292 0.002755 -2.52246e-20)
(-4.76509 0.00292396 0)
(-4.86333 0.00181615 -2.51321e-20)
(-4.9455 0.00219077 0)
(-5.01479 0.00128921 0)
(-5.07666 0.00196166 0)
(-5.12871 0.00107537 2.49447e-20)
(-5.17902 0.00182828 0)
(-5.22075 0.000897181 0)
(-5.26133 0.00170192 0)
(-5.29309 0.000719424 0)
(-5.32457 0.00157526 0)
(-5.34759 0.00053138 0)
(-5.37292 0.00143326 2.46198e-20)
(-5.38825 0.000314762 0)
(-5.40836 0.0012796 0)
(-5.41485 3.56581e-05 -0)
(-5.42726 0.00132057 2.44402e-20)
(-5.42252 -0.000193692 0)
(-5.43399 0.00196686 0)
(-5.42165 -2.91144e-05 -0)
(-5.44392 0.00299508 0)
(-5.43325 0.000491865 0)
(-5.45477 0.00383436 0)
(-5.43401 0.000973585 2.41506e-20)
(-5.43703 0.00445929 0)
(-5.40417 0.00135212 0)
(-5.41488 0.00407274 2.4009e-20)
(-5.4218 0.000792072 0)
(-5.47084 0.00221283 2.39066e-20)
(-5.50813 -0.000825221 0)
(-5.53942 0.00106031 0)
(-5.5205 -0.0013715 -2.37386e-20)
(-5.46622 0.00189237 0)
(-5.38897 -0.00117184 2.36244e-20)
(-5.34735 0.00327039 0)
(-5.25406 -0.00263103 -0)
(-5.28728 0.00303772 0)
(-5.44686 -0.00320533 0)
(-5.77482 0.000738251 -0)
(-5.68703 -0.0103878 2.32057e-20)
(-6.09803 -0.00718012 0)
(-7.47933 -0.0119866 -0)
(-9.57935 -0.000264302 2.70007e-18)
(-12.198 0.011399 4.67954e-18)
(-15.3967 0.0254402 0)
(-18.6451 0.0364334 0)
(-22.2874 0.0324887 0)
(-17.8843 -0.0177389 0)
(-3.13769 -0.0639227 0)
(6.04992 -0.0379996 -7.29189e-18)
(4.86013 -0.00623821 0)
(0.373655 0.0108892 -1.13982e-17)
(-2.76648 0.0105503 9.94131e-18)
(-4.5947 0.0110251 0)
(-5.47542 0.0117835 0)
(-5.61458 0.0122086 0)
(-5.3299 0.0130946 2.17698e-17)
(-4.00819 0.00967822 -1.86517e-17)
(-3.45333 0.0114369 0)
(-2.00176 0.0102903 2.79114e-17)
(-2.54149 0.0074183 0)
(-1.27661 0.0338469 4.0108e-17)
(8.83473 -0.0284858 0)
(13.4624 -0.119091 0)
(6.69315 -0.100582 -0)
(0.998572 -0.00812625 0)
(-15.9219 0.272301 0)
(-24.608 0.382781 8.55234e-17)
(-16.645 0.151786 -4.52366e-17)
(-11.3402 0.0450322 0)
(-13.8966 0.106125 5.64315e-17)
(-13.9631 0.132075 0)
(-14.4617 0.163203 0)
)
;
    }
    front
    {
        type            empty;
    }
    back
    {
        type            empty;
    }
}


// ************************************************************************* //
