/*--------------------------------*- C++ -*----------------------------------*\
| =========                 |                                                 |
| \\      /  F ield         | OpenFOAM: The Open Source CFD Toolbox           |
|  \\    /   O peration     | Version:  2306                                  |
|   \\  /    A nd           | Website:  www.openfoam.com                      |
|    \\/     M anipulation  |                                                 |
\*---------------------------------------------------------------------------*/
FoamFile
{
    version     2.0;
    format      ascii;
    arch        "LSB;label=32;scalar=64";
    class       volScalarField;
    location    "0.1";
    object      p;
}
// * * * * * * * * * * * * * * * * * * * * * * * * * * * * * * * * * * * * * //

dimensions      [0 2 -2 0 0 0 0];

internalField   nonuniform List<scalar> 
400
(
7.52854e-08
-0.00871979
-0.0194523
-0.0276791
-0.0307298
-0.0274138
-0.0176419
-0.00210676
0.0179606
0.0409635
0.065072
0.0883421
0.108845
0.124822
0.134878
0.138221
0.134954
0.126406
0.115456
0.106754
0.00863021
-0.000338217
-0.00874578
-0.0143992
-0.0160044
-0.0127291
-0.00446357
0.00829733
0.0246251
0.0432814
0.0628228
0.0817066
0.0984068
0.111549
0.120065
0.123375
0.121594
0.115664
0.107067
0.0981446
0.0199717
0.00756067
-0.00152274
-0.00671961
-0.00801494
-0.00496565
0.00242233
0.0136756
0.0279919
0.0443214
0.0614384
0.0780246
0.0927651
0.104462
0.112156
0.115272
0.113795
0.108276
0.0989449
0.0865668
0.0302822
0.0131508
0.00187838
-0.00403585
-0.00563221
-0.00281354
0.00424458
0.0149911
0.0286351
0.0441956
0.0605415
0.0764486
0.0906744
0.10205
0.109579
0.112562
0.110787
0.104462
0.0928097
0.075621
0.0370724
0.0149775
0.00109194
-0.00586235
-0.00783048
-0.0050187
0.00221722
0.0132093
0.0271245
0.04299
0.0597037
0.0760655
0.0908295
0.102775
0.110789
0.113978
0.111899
0.104445
0.0899811
0.0676254
0.0385272
0.0114081
-0.00518959
-0.0131689
-0.015297
-0.012061
-0.00400554
0.00805833
0.0232192
0.0404714
0.0586968
0.0766704
0.093088
0.106616
0.115956
0.11996
0.117909
0.109382
0.0919437
0.0642021
0.0330763
0.000836803
-0.0184136
-0.0271578
-0.0289885
-0.0246866
-0.0150065
-0.000927609
0.0165353
0.0363191
0.0572651
0.0780947
0.0974094
0.113715
0.125469
0.131198
0.129837
0.120595
0.100191
0.0667582
0.019075
-0.0184634
-0.0401703
-0.0491651
-0.049972
-0.0437255
-0.0314317
-0.0142654
0.00664105
0.0301633
0.0551016
0.0801221
0.103721
0.124216
0.139766
0.148486
0.148863
0.139612
0.116422
0.0768668
-0.00544523
-0.0485499
-0.0723483
-0.0807673
-0.0794911
-0.0701286
-0.0540047
-0.0325212
-0.0069281
0.0216084
0.0518781
0.0825235
0.111957
0.138306
0.159388
0.172815
0.176471
0.168367
0.142813
0.0965901
-0.0430098
-0.092016
-0.117258
-0.123812
-0.118927
-0.104884
-0.0834228
-0.0562034
-0.0245742
0.0103088
0.0472947
0.0850768
0.122051
0.156193
0.184965
0.205378
0.214523
0.209378
0.182294
0.128809
-0.0970172
-0.152262
-0.177767
-0.180416
-0.169695
-0.148855
-0.120173
-0.0855816
-0.0464752
-0.00390198
0.0411675
0.0876097
0.133933
0.178066
0.217159
0.247551
0.265316
0.265946
0.238914
0.177668
-0.172291
-0.233918
-0.257471
-0.252914
-0.233057
-0.202528
-0.164257
-0.120427
-0.0723572
-0.0208261
0.0335636
0.0900757
0.147543
0.204051
0.256584
0.300828
0.331631
0.342411
0.318371
0.249295
-0.276174
-0.343533
-0.360882
-0.343699
-0.30978
-0.265609
-0.214809
-0.159669
-0.101207
-0.0396757
0.0249607
0.0926408
0.162837
0.23413
0.303658
0.366657
0.416681
0.444425
0.42882
0.353119
-0.420842
-0.490714
-0.493523
-0.454779
-0.399519
-0.336414
-0.269565
-0.200982
-0.130969
-0.058863
0.0163703
0.0957148
0.179705
0.267922
0.358247
0.44602
0.523802
0.579128
0.582139
0.50452
-0.628169
-0.689841
-0.661515
-0.586634
-0.499621
-0.410898
-0.324187
-0.240366
-0.15832
-0.0759214
0.00930306
0.0998053
0.197682
0.304193
0.418895
0.538398
0.655402
0.75477
0.795692
0.73007
-0.938322
-0.961754
-0.870152
-0.736309
-0.603552
-0.481627
-0.371752
-0.272025
-0.178792
-0.087766
0.00543144
0.105116
0.21544
0.340132
0.481749
0.640241
0.811096
0.979178
1.09365
1.07602
-1.42518
-1.33403
-1.12123
-0.89594
-0.700368
-0.537945
-0.403425
-0.289288
-0.18775
-0.0915961
0.00582395
0.110928
0.230282
0.370857
0.539911
0.743953
0.985893
1.25674
1.50665
1.6226
-2.25657
-1.84027
-1.39835
-1.042
-0.768768
-0.563275
-0.407718
-0.284945
-0.181255
-0.0860201
0.00962633
0.114002
0.235995
0.38624
0.578442
0.82987
1.15774
1.57302
2.07279
2.54606
-3.87826
-2.49739
-1.59609
-1.0788
-0.742093
-0.515088
-0.359142
-0.24492
-0.152909
-0.0702379
0.0127903
0.104961
0.216016
0.358915
0.553405
0.830033
1.23006
1.8241
2.81446
4.29832
-6.63783
-3.137
-1.50307
-0.865915
-0.5425
-0.354146
-0.239213
-0.161516
-0.100821
-0.0458281
0.0110482
0.0764162
0.15782
0.266388
0.422066
0.662509
1.05682
1.79111
3.53917
7.15528
)
;

boundaryField
{
    movingWall
    {
        type            zeroGradient;
    }
    fixedWalls
    {
        type            zeroGradient;
    }
    frontAndBack
    {
        type            empty;
    }
}


// ************************************************************************* //
