/*--------------------------------*- C++ -*----------------------------------*\
| =========                 |                                                 |
| \\      /  F ield         | OpenFOAM: The Open Source CFD Toolbox           |
|  \\    /   O peration     | Version:  2306                                  |
|   \\  /    A nd           | Website:  www.openfoam.com                      |
|    \\/     M anipulation  |                                                 |
\*---------------------------------------------------------------------------*/
FoamFile
{
    version     2.0;
    format      ascii;
    arch        "LSB;label=32;scalar=64";
    class       surfaceScalarField;
    location    "0.1";
    object      phi;
}
// * * * * * * * * * * * * * * * * * * * * * * * * * * * * * * * * * * * * * //

dimensions      [0 3 -1 0 0 0 0];

oriented        oriented;

internalField   nonuniform List<scalar> 
760
(
1.44165e-08
-1.44169e-08
-2.16151e-08
3.60312e-08
-1.13401e-07
9.17857e-08
-2.44633e-07
1.31231e-07
-3.95446e-07
1.50814e-07
-5.46914e-07
1.51468e-07
-6.82717e-07
1.35803e-07
-7.89834e-07
1.07117e-07
-8.58733e-07
6.88994e-08
-8.83415e-07
2.46814e-08
-8.61492e-07
-2.1923e-08
-7.94351e-07
-6.71404e-08
-6.87362e-07
-1.06989e-07
-5.50047e-07
-1.37315e-07
-3.96076e-07
-1.53971e-07
-2.42862e-07
-1.53213e-07
-1.10419e-07
-1.32444e-07
-1.91066e-08
-9.13123e-08
1.53753e-08
-3.44825e-08
1.53748e-08
-3.36262e-08
1.92095e-08
-1.78839e-07
1.81244e-07
-4.31753e-07
3.44701e-07
-7.61995e-07
4.61474e-07
-1.12991e-06
5.18726e-07
-1.49504e-06
5.166e-07
-1.82084e-06
4.61603e-07
-2.07718e-06
3.6346e-07
-2.2416e-06
2.33323e-07
-2.29994e-06
8.30184e-08
-2.24674e-06
-7.51281e-08
-2.08561e-06
-2.28261e-07
-1.82958e-06
-3.63021e-07
-1.50105e-06
-4.65843e-07
-1.13131e-06
-5.23717e-07
-7.58856e-07
-5.25665e-07
-4.26125e-07
-4.65175e-07
-1.73766e-07
-3.43671e-07
-3.136e-08
-1.76888e-07
-1.59853e-08
-9.12815e-08
1.10491e-07
-3.54659e-07
4.44621e-07
-7.61267e-07
7.51309e-07
-1.2649e-06
9.65108e-07
-1.8112e-06
1.06503e-06
-2.34552e-06
1.05092e-06
-2.81832e-06
9.34398e-07
-3.18848e-06
7.33625e-07
-3.42522e-06
4.70061e-07
-3.50908e-06
1.66878e-07
-3.4326e-06
-1.51603e-07
-3.20083e-06
-4.6003e-07
-2.83163e-06
-7.32227e-07
-2.35559e-06
-9.4188e-07
-1.81518e-06
-1.06413e-06
-1.26244e-06
-1.0784e-06
-7.54729e-07
-9.7289e-07
-3.48059e-07
-7.50342e-07
-8.80461e-08
-4.369e-07
-1.04032e-07
-1.4397e-07
2.54461e-07
-5.22671e-07
8.23323e-07
-1.07805e-06
1.30669e-06
-1.74399e-06
1.63105e-06
-2.45122e-06
1.77226e-06
-3.1333e-06
1.733e-06
-3.73132e-06
1.53242e-06
-4.19692e-06
1.19922e-06
-4.49404e-06
7.67179e-07
-4.59991e-06
2.72752e-07
-4.50569e-06
-2.4582e-07
-4.21699e-06
-7.48733e-07
-3.7543e-06
-1.19492e-06
-3.15311e-06
-1.54307e-06
-2.46322e-06
-1.75402e-06
-1.74663e-06
-1.79499e-06
-1.07351e-06
-1.64602e-06
-5.15909e-07
-1.30794e-06
-1.40079e-07
-8.12729e-07
-2.44111e-07
-1.92279e-07
4.4674e-07
-6.82516e-07
1.31356e-06
-1.38325e-06
2.00742e-06
-2.20602e-06
2.45382e-06
-3.06553e-06
2.63177e-06
-3.88421e-06
2.55168e-06
-4.59565e-06
2.24386e-06
-5.1466e-06
1.75017e-06
-5.49789e-06
1.11847e-06
-5.62484e-06
3.99699e-07
-5.51754e-06
-3.53124e-07
-5.18133e-06
-1.08494e-06
-4.63751e-06
-1.73874e-06
-3.92398e-06
-2.2566e-06
-3.09535e-06
-2.58265e-06
-2.22182e-06
-2.66851e-06
-1.38616e-06
-2.48168e-06
-6.78324e-07
-2.01577e-06
-1.88436e-07
-1.30262e-06
-4.32547e-07
-2.38896e-07
6.85636e-07
-8.39425e-07
1.91409e-06
-1.68446e-06
2.85246e-06
-2.66148e-06
3.43084e-06
-3.6681e-06
3.63839e-06
-4.61598e-06
3.49956e-06
-5.43266e-06
3.06054e-06
-6.06197e-06
2.37948e-06
-6.46349e-06
1.51999e-06
-6.61182e-06
5.48029e-07
-6.49623e-06
-4.68715e-07
-6.12097e-06
-1.4602e-06
-5.50636e-06
-2.35335e-06
-4.69036e-06
-3.0726e-06
-3.73014e-06
-3.54287e-06
-2.7027e-06
-3.69596e-06
-1.70352e-06
-3.48086e-06
-8.42445e-07
-2.87685e-06
-2.36444e-07
-1.90862e-06
-6.68991e-07
-2.86551e-07
9.72187e-07
-9.99515e-07
2.62705e-06
-1.99001e-06
3.84295e-06
-3.1194e-06
4.56023e-06
-4.26754e-06
4.78653e-06
-5.33608e-06
4.5681e-06
-6.24845e-06
3.97291e-06
-6.94796e-06
3.07898e-06
-7.39508e-06
1.96711e-06
-7.56515e-06
7.18095e-07
-7.44694e-06
-5.86928e-07
-7.04272e-06
-1.86442e-06
-6.3698e-06
-3.02626e-06
-5.46345e-06
-3.97895e-06
-4.38048e-06
-4.62584e-06
-3.20254e-06
-4.87389e-06
-2.03743e-06
-4.64598e-06
-1.0166e-06
-3.89767e-06
-2.87626e-07
-2.6376e-06
-9.56616e-07
-3.37756e-07
1.30994e-06
-1.16848e-06
3.45777e-06
-2.30668e-06
4.98115e-06
-3.58473e-06
5.83828e-06
-4.86441e-06
6.06621e-06
-6.03924e-06
5.74292e-06
-7.03169e-06
4.96537e-06
-7.788e-06
3.83529e-06
-8.27258e-06
2.4517e-06
-8.46348e-06
9.08994e-07
-8.34961e-06
-7.00801e-07
-7.93032e-06
-2.28371e-06
-7.21747e-06
-3.73911e-06
-6.2399e-06
-4.95651e-06
-5.04984e-06
-5.8159e-06
-3.72982e-06
-6.19392e-06
-2.39799e-06
-5.97781e-06
-1.20879e-06
-5.08687e-06
-3.45377e-07
-3.50101e-06
-1.30199e-06
-3.94976e-07
1.70492e-06
-1.35146e-06
4.41426e-06
-2.6389e-06
6.26859e-06
-4.05662e-06
7.25601e-06
-5.44882e-06
7.4584e-06
-6.70453e-06
6.99864e-06
-7.75037e-06
6.0112e-06
-8.54065e-06
4.62557e-06
-9.048e-06
2.95905e-06
-9.25602e-06
1.11702e-06
-9.15485e-06
-8.01975e-07
-8.74003e-06
-2.69854e-06
-8.01501e-06
-4.46413e-06
-6.99736e-06
-5.97416e-06
-5.72843e-06
-7.08482e-06
-4.28528e-06
-7.63706e-06
-2.79208e-06
-7.47101e-06
-1.42626e-06
-6.45269e-06
-4.13085e-07
-4.51418e-06
-1.71508e-06
-4.61226e-07
2.16615e-06
-1.55381e-06
5.50683e-06
-2.98869e-06
7.70348e-06
-4.52698e-06
8.79429e-06
-5.99753e-06
8.92895e-06
-7.29143e-06
8.29254e-06
-8.34725e-06
7.06702e-06
-9.13467e-06
5.413e-06
-9.64029e-06
3.46467e-06
-9.85708e-06
1.3338e-06
-9.77804e-06
-8.81011e-07
-9.39428e-06
-3.0823e-06
-8.69759e-06
-5.16083e-06
-7.6882e-06
-6.98356e-06
-6.38801e-06
-8.38501e-06
-4.85872e-06
-9.16635e-06
-3.22203e-06
-9.1077e-06
-1.67573e-06
-7.999e-06
-4.9464e-07
-5.69527e-06
-2.20972e-06
-5.41151e-07
2.7073e-06
-1.78235e-06
6.74803e-06
-3.35549e-06
9.27662e-06
-4.97804e-06
1.04168e-05
-6.46949e-06
1.04204e-05
-7.73396e-06
9.55701e-06
-8.73341e-06
8.06647e-06
-9.46253e-06
6.14211e-06
-9.92889e-06
3.93103e-06
-1.01394e-05
1.5443e-06
-1.00922e-05
-9.28208e-07
-9.77381e-06
-3.40068e-06
-9.16136e-06
-5.77327e-06
-8.2311e-06
-7.91382e-06
-6.97462e-06
-9.64149e-06
-5.42396e-06
-1.0717e-05
-3.6838e-06
-1.08479e-05
-1.9639e-06
-9.7189e-06
-5.95357e-07
-7.06382e-06
-2.80508e-06
-6.42828e-07
3.35012e-06
-2.04697e-06
8.15218e-06
-3.73474e-06
1.09644e-05
-5.3772e-06
1.20593e-05
-6.79787e-06
1.18411e-05
-7.93158e-06
1.06907e-05
-8.7794e-06
8.91429e-06
-9.37238e-06
6.73509e-06
-9.74657e-06
4.30523e-06
-9.92733e-06
1.72506e-06
-9.92056e-06
-9.34987e-07
-9.70892e-06
-3.61231e-06
-9.25311e-06
-6.22908e-06
-8.49948e-06
-8.66746e-06
-7.39741e-06
-1.07436e-05
-5.93042e-06
-1.2184e-05
-4.16291e-06
-1.26154e-05
-2.2977e-06
-1.15841e-05
-7.23526e-07
-8.63799e-06
-3.5286e-06
-7.80686e-07
4.13081e-06
-2.36136e-06
9.73285e-06
-4.11225e-06
1.27153e-05
-5.6653e-06
1.36124e-05
-6.8752e-06
1.3051e-05
-7.73455e-06
1.15501e-05
-8.30284e-06
9.48258e-06
-8.65888e-06
7.09113e-06
-8.8729e-06
4.51924e-06
-8.99167e-06
1.84383e-06
-9.0309e-06
-8.95757e-07
-8.97146e-06
-3.67176e-06
-8.75861e-06
-6.44193e-06
-8.30628e-06
-9.11979e-06
-7.51157e-06
-1.15383e-05
-6.28782e-06
-1.34077e-05
-4.6253e-06
-1.42779e-05
-2.68294e-06
-1.35265e-05
-8.92882e-07
-1.04281e-05
-4.42148e-06
-9.79726e-07
5.11054e-06
-2.73977e-06
1.14929e-05
-4.44787e-06
1.44234e-05
-5.73132e-06
1.48958e-05
-6.5264e-06
1.3846e-05
-6.92078e-06
1.19445e-05
-7.05215e-06
9.61394e-06
-7.05381e-06
7.09279e-06
-7.03032e-06
4.49576e-06
-7.04854e-06
1.86205e-06
-7.13437e-06
-8.09928e-07
-7.27023e-06
-3.53589e-06
-7.39167e-06
-6.3205e-06
-7.38497e-06
-9.12648e-06
-7.09253e-06
-1.18307e-05
-6.33876e-06
-1.41615e-05
-4.99684e-06
-1.56198e-05
-3.11762e-06
-1.54057e-05
-1.12582e-06
-1.24199e-05
-5.5473e-06
-1.27853e-06
6.38907e-06
-3.17874e-06
1.33931e-05
-4.63317e-06
1.58778e-05
-5.36025e-06
1.56229e-05
-5.46134e-06
1.39471e-05
-5.16133e-06
1.16444e-05
-4.68668e-06
9.13929e-06
-4.21919e-06
6.6253e-06
-3.88672e-06
4.16329e-06
-3.76725e-06
1.74258e-06
-3.8938e-06
-6.83381e-07
-4.25475e-06
-3.17493e-06
-4.7878e-06
-5.78745e-06
-5.36836e-06
-8.54592e-06
-5.79824e-06
-1.14008e-05
-5.80984e-06
-1.41499e-05
-5.11774e-06
-1.63119e-05
-3.56789e-06
-1.69555e-05
-1.45371e-06
-1.4534e-05
-7.00101e-06
-1.71621e-06
8.10528e-06
-3.59053e-06
1.52674e-05
-4.38971e-06
1.6677e-05
-4.13301e-06
1.53662e-05
-3.19934e-06
1.30135e-05
-1.9756e-06
1.04207e-05
-7.59205e-07
7.9229e-06
2.50034e-07
5.61606e-06
9.28756e-07
3.48457e-06
1.20676e-06
1.46457e-06
1.05182e-06
-5.28446e-07
4.65302e-07
-2.58841e-06
-5.10415e-07
-4.81173e-06
-1.7714e-06
-7.28493e-06
-3.11962e-06
-1.00526e-05
-4.22896e-06
-1.30406e-05
-4.64462e-06
-1.58962e-05
-3.89383e-06
-1.77063e-05
-1.89702e-06
-1.65308e-05
-8.89803e-06
-2.25826e-06
1.03635e-05
-3.60837e-06
1.66175e-05
-3.0465e-06
1.61151e-05
-1.25223e-06
1.35719e-05
1.0345e-06
1.07267e-05
3.31127e-06
8.14394e-06
5.28466e-06
5.9495e-06
6.80133e-06
4.0994e-06
7.78721e-06
2.49869e-06
8.20664e-06
1.04514e-06
8.04006e-06
-3.61866e-07
7.27635e-06
-1.8247e-06
5.91889e-06
-3.45428e-06
4.00891e-06
-5.37495e-06
1.67335e-06
-7.71705e-06
-7.9761e-07
-1.05696e-05
-2.85683e-06
-1.3837e-05
-3.65684e-06
-1.69063e-05
-2.37884e-06
-1.78088e-05
-1.12769e-05
-2.54927e-06
1.29128e-05
-2.08918e-06
1.61574e-05
9.0179e-07
1.31241e-05
4.7218e-06
9.75192e-06
8.41505e-06
7.03348e-06
1.15738e-05
4.9852e-06
1.40611e-05
3.46223e-06
1.5859e-05
2.30144e-06
1.69891e-05
1.36862e-06
1.74726e-05
5.61651e-07
1.73128e-05
-2.02127e-07
1.64886e-05
-1.00043e-06
1.49551e-05
-1.92077e-06
1.26575e-05
-3.07734e-06
9.56967e-06
-4.62925e-06
5.78506e-06
-6.78501e-06
1.69876e-06
-9.75072e-06
-1.67307e-06
-1.35345e-05
-2.47195e-06
-1.701e-05
-1.37488e-05
-6.98124e-07
1.36109e-05
4.30203e-06
1.11573e-05
1.06061e-05
6.82012e-06
1.61363e-05
4.22171e-06
2.04884e-05
2.68132e-06
2.37448e-05
1.72881e-06
2.6087e-05
1.12001e-06
2.76802e-05
7.08261e-07
2.86435e-05
4.05322e-07
2.90473e-05
1.57851e-07
2.89155e-05
-7.0278e-08
2.8225e-05
-3.09985e-07
2.69016e-05
-5.97385e-07
2.4811e-05
-9.86724e-07
2.17533e-05
-1.57159e-06
1.7487e-05
-2.51866e-06
1.18582e-05
-4.12198e-06
5.23433e-06
-6.91057e-06
-2.61691e-07
-1.15139e-05
-1.40105e-05
1.36109e-05
2.47682e-05
3.15883e-05
3.581e-05
3.84914e-05
4.02202e-05
4.13402e-05
4.20485e-05
4.24538e-05
4.26116e-05
4.25413e-05
4.22314e-05
4.1634e-05
4.06473e-05
3.90757e-05
3.6557e-05
3.2435e-05
2.55245e-05
1.40105e-05
)
;

boundaryField
{
    movingWall
    {
        type            calculated;
        value           uniform 0;
    }
    fixedWalls
    {
        type            calculated;
        value           uniform 0;
    }
    frontAndBack
    {
        type            empty;
        value           nonuniform List<scalar> 0();
    }
}


// ************************************************************************* //
