/*--------------------------------*- C++ -*----------------------------------*\
| =========                 |                                                 |
| \\      /  F ield         | OpenFOAM: The Open Source CFD Toolbox           |
|  \\    /   O peration     | Version:  2306                                  |
|   \\  /    A nd           | Website:  www.openfoam.com                      |
|    \\/     M anipulation  |                                                 |
\*---------------------------------------------------------------------------*/
FoamFile
{
    version     2.0;
    format      ascii;
    arch        "LSB;label=32;scalar=64";
    class       volVectorField;
    location    "0.1";
    object      U;
}
// * * * * * * * * * * * * * * * * * * * * * * * * * * * * * * * * * * * * * //

dimensions      [0 1 -1 0 0 0 0];

internalField   nonuniform List<vector> 
400
(
(0.000254637 -0.00025127 0)
(0.000148457 0.000108687 0)
(-0.00116194 0.000563259 0)
(-0.00346298 0.000886287 0)
(-0.006362 0.00104887 0)
(-0.00945883 0.00106478 0)
(-0.0123947 0.000958754 0)
(-0.014873 0.000758097 0)
(-0.0166672 0.000489301 0)
(-0.0176212 0.000177715 0)
(-0.0176506 -0.000151403 0)
(-0.0167448 -0.000471662 0)
(-0.0149707 -0.000754632 0)
(-0.0124773 -0.00096961 0)
(-0.00949815 -0.00108439 0)
(-0.00634834 -0.00106781 0)
(-0.00341041 -0.000895209 0)
(-0.0011022 -0.000557969 0)
(0.00018499 -9.47399e-05 0)
(0.000264333 0.000259342 0)
(-7.27422e-05 -0.000176694 0)
(-0.00159107 0.00162948 0)
(-0.00565376 0.00360675 0)
(-0.0116703 0.00503415 0)
(-0.0188442 0.00574949 0)
(-0.0263566 0.00576596 0)
(-0.0334243 0.00516946 0)
(-0.0393706 0.00407851 0)
(-0.0436651 0.00262341 0)
(-0.045939 0.000938957 0)
(-0.0459944 -0.000835779 0)
(-0.0438115 -0.00255568 0)
(-0.0395559 -0.00406867 0)
(-0.0335829 -0.005218 0)
(-0.026435 -0.0058501 0)
(-0.0188222 -0.00583089 0)
(-0.0115713 -0.0050748 0)
(-0.0055355 -0.00358899 0)
(-0.00151252 -0.00157284 0)
(-4.94167e-05 0.00021562 0)
(-0.000520436 0.00106851 0)
(-0.0036791 0.00569631 0)
(-0.0105305 0.0101954 0)
(-0.0199208 0.0133996 0)
(-0.0306938 0.0149525 0)
(-0.0417541 0.0148435 0)
(-0.052047 0.0132435 0)
(-0.0606522 0.0104198 0)
(-0.0668433 0.0066856 0)
(-0.0701144 0.0023771 0)
(-0.0701938 -0.00215363 0)
(-0.0670556 -0.00653946 0)
(-0.0609279 -0.0104003 0)
(-0.0522973 -0.0133528 0)
(-0.0419023 -0.0150331 0)
(-0.0307045 -0.0151395 0)
(-0.0198161 -0.0135002 0)
(-0.0103827 -0.0101671 0)
(-0.00357148 -0.00557429 0)
(-0.000486034 -0.000973572 0)
(-0.000916958 0.00343399 0)
(-0.00565096 0.0121491 0)
(-0.015235 0.0198722 0)
(-0.0278436 0.0251845 0)
(-0.04192 0.0276059 0)
(-0.0561214 0.027141 0)
(-0.0691878 0.0240818 0)
(-0.0800322 0.018885 0)
(-0.0878036 0.0120931 0)
(-0.0919106 0.00429442 0)
(-0.0920347 -0.00389264 0)
(-0.0881412 -0.0118237 0)
(-0.0804896 -0.0188344 0)
(-0.0696407 -0.0242584 0)
(-0.0564543 -0.0274675 0)
(-0.0420655 -0.0279438 0)
(-0.0278083 -0.0253873 0)
(-0.0150995 -0.0198559 0)
(-0.00552811 -0.0119567 0)
(-0.000872796 -0.00326486 0)
(-0.00126589 0.00680492 0)
(-0.00749566 0.0208518 0)
(-0.0197517 0.0324497 0)
(-0.0354972 0.0400979 0)
(-0.0527352 0.043313 0)
(-0.0698713 0.0421991 0)
(-0.0854694 0.0372293 0)
(-0.0983221 0.0290951 0)
(-0.107501 0.0186041 0)
(-0.112368 0.00662536 0)
(-0.112575 -0.00593064 0)
(-0.108074 -0.0181171 0)
(-0.099128 -0.0289564 0)
(-0.086326 -0.0374635 0)
(-0.070596 -0.0427002 0)
(-0.0531995 -0.0438741 0)
(-0.0356691 -0.0404858 0)
(-0.0197091 -0.0325099 0)
(-0.00738719 -0.0206143 0)
(-0.00121612 -0.00655362 0)
(-0.00159543 0.011117 0)
(-0.00929241 0.0317575 0)
(-0.0242053 0.0479073 0)
(-0.043058 0.0581052 0)
(-0.0633809 0.0619975 0)
(-0.0833205 0.0598993 0)
(-0.101285 0.0525493 0)
(-0.115984 0.040931 0)
(-0.126453 0.0261507 0)
(-0.13204 0.00937597 0)
(-0.132382 -0.00818367 0)
(-0.127413 -0.0252736 0)
(-0.11737 -0.0405914 0)
(-0.10283 -0.0528065 0)
(-0.0847369 -0.060622 0)
(-0.0644389 -0.0628952 0)
(-0.0436515 -0.0588239 0)
(-0.0243879 -0.0481762 0)
(-0.00925187 -0.0315526 0)
(-0.00154941 -0.0107952 0)
(-0.00193322 0.0163632 0)
(-0.011132 0.044878 0)
(-0.0287452 0.0662572 0)
(-0.0507055 0.079184 0)
(-0.074038 0.0835826 0)
(-0.0966322 0.0801177 0)
(-0.11677 0.0698991 0)
(-0.133126 0.0542697 0)
(-0.144748 0.0346668 0)
(-0.151007 0.0125606 0)
(-0.151546 -0.0105522 0)
(-0.146273 -0.0331254 0)
(-0.135373 -0.0535394 0)
(-0.119355 -0.0701033 0)
(-0.0991219 -0.0811108 0)
(-0.0760528 -0.0849762 0)
(-0.0520159 -0.0804597 0)
(-0.0293444 -0.0669616 0)
(-0.011242 -0.044863 0)
(-0.00190712 -0.0160169 0)
(-0.00230469 0.0225898 0)
(-0.0131011 0.0602898 0)
(-0.033508 0.0875395 0)
(-0.0585706 0.103291 0)
(-0.0847714 0.10793 0)
(-0.109763 0.102646 0)
(-0.131758 0.0890476 0)
(-0.149463 0.0689133 0)
(-0.16201 0.0440371 0)
(-0.168843 0.0161797 0)
(-0.169641 -0.0129113 0)
(-0.164281 -0.0414419 0)
(-0.152861 -0.0675083 0)
(-0.13576 -0.0890626 0)
(-0.113757 -0.103945 0)
(-0.0881734 -0.110021 0)
(-0.0609658 -0.105441 0)
(-0.0347744 -0.089026 0)
(-0.0134762 -0.0607314 0)
(-0.00232278 -0.0223165 0)
(-0.00273611 0.0298921 0)
(-0.0152856 0.0781292 0)
(-0.0386092 0.111803 0)
(-0.0667101 0.130318 0)
(-0.0954878 0.134775 0)
(-0.12241 0.127112 0)
(-0.145713 0.109596 0)
(-0.164249 0.0845196 0)
(-0.177328 0.0540476 0)
(-0.184542 0.0201945 0)
(-0.185643 -0.0151082 0)
(-0.180485 -0.0498973 0)
(-0.169038 -0.0820535 0)
(-0.151471 -0.109207 0)
(-0.128323 -0.128717 0)
(-0.100726 -0.137786 0)
(-0.0706027 -0.133749 0)
(-0.0408434 -0.114554 0)
(-0.0160729 -0.0794311 0)
(-0.00283203 -0.0298593 0)
(-0.00326254 0.038418 0)
(-0.0177877 0.0985828 0)
(-0.044153 0.13906 0)
(-0.0750927 0.160011 0)
(-0.105891 0.16362 0)
(-0.133937 0.152869 0)
(-0.157651 0.130872 0)
(-0.176183 0.100514 0)
(-0.189156 0.0643219 0)
(-0.196408 0.0244932 0)
(-0.197821 -0.0169631 0)
(-0.193234 -0.0580369 0)
(-0.182453 -0.0965089 0)
(-0.165345 -0.129768 0)
(-0.142058 -0.154704 0)
(-0.113341 -0.167754 0)
(-0.080882 -0.165188 0)
(-0.0476806 -0.143691 0)
(-0.0191625 -0.101305 0)
(-0.00348036 -0.038882 0)
(-0.00394212 0.0483886 0)
(-0.020757 0.121884 0)
(-0.0502502 0.169229 0)
(-0.0835744 0.191858 0)
(-0.115412 0.193591 0)
(-0.143273 0.178853 0)
(-0.166005 0.151809 0)
(-0.183274 0.115996 0)
(-0.195183 0.0742537 0)
(-0.201932 0.0288506 0)
(-0.203597 -0.0182801 0)
(-0.200028 -0.065253 0)
(-0.190838 -0.109922 0)
(-0.175498 -0.14958 0)
(-0.153593 -0.180722 0)
(-0.125228 -0.198962 0)
(-0.0915427 -0.199236 0)
(-0.055371 -0.176449 0)
(-0.022912 -0.126743 0)
(-0.00433709 -0.049711 0)
(-0.00488173 0.0601479 0)
(-0.0244378 0.148311 0)
(-0.0570259 0.202024 0)
(-0.0918302 0.224915 0)
(-0.123065 0.223257 0)
(-0.148728 0.203416 0)
(-0.168445 0.170814 0)
(-0.182676 0.129644 0)
(-0.192187 0.0829455 0)
(-0.197651 0.0328885 0)
(-0.199412 -0.0188681 0)
(-0.197362 -0.070781 0)
(-0.190915 -0.121007 0)
(-0.179084 -0.166972 0)
(-0.160716 -0.204955 0)
(-0.134966 -0.229778 0)
(-0.101977 -0.234812 0)
(-0.0639236 -0.212542 0)
(-0.0275589 -0.156149 0)
(-0.00552018 -0.0628063 0)
(-0.00628238 0.0742629 0)
(-0.0292313 0.178177 0)
(-0.0645785 0.236781 0)
(-0.0991702 0.25754 0)
(-0.127172 0.250371 0)
(-0.147685 0.224143 0)
(-0.161602 0.185663 0)
(-0.17047 0.139663 0)
(-0.175875 0.0891779 0)
(-0.179042 0.036048 0)
(-0.180622 -0.0185735 0)
(-0.180592 -0.0737287 0)
(-0.178207 -0.128151 0)
(-0.172018 -0.17971 0)
(-0.160035 -0.224782 0)
(-0.14016 -0.257622 0)
(-0.110965 -0.269941 0)
(-0.0731692 -0.25112 0)
(-0.0334513 -0.189865 0)
(-0.00723953 -0.0788502 0)
(-0.00851232 0.0916984 0)
(-0.0357473 0.211736 0)
(-0.0727814 0.272085 0)
(-0.104091 0.286974 0)
(-0.124801 0.271557 0)
(-0.136084 0.237691 0)
(-0.140663 0.193459 0)
(-0.14141 0.143816 0)
(-0.14077 0.0914534 0)
(-0.140486 0.0376026 0)
(-0.141497 -0.0173197 0)
(-0.1439 -0.0731627 0)
(-0.146892 -0.129506 0)
(-0.148687 -0.18503 0)
(-0.146518 -0.236688 0)
(-0.136873 -0.278666 0)
(-0.116158 -0.301274 0)
(-0.0824722 -0.290283 0)
(-0.0410537 -0.22798 0)
(-0.00986222 -0.0988947 0)
(-0.0121818 0.114061 0)
(-0.0447037 0.248848 0)
(-0.0806381 0.305071 0)
(-0.103255 0.308735 0)
(-0.110721 0.282013 0)
(-0.107578 0.239777 0)
(-0.0988387 0.19081 0)
(-0.0886753 0.139654 0)
(-0.080181 0.0881909 0)
(-0.075391 0.0367508 0)
(-0.0754012 -0.0151471 0)
(-0.0804381 -0.0682812 0)
(-0.0898045 -0.123258 0)
(-0.101689 -0.179912 0)
(-0.112904 -0.23638 0)
(-0.118721 -0.287647 0)
(-0.113042 -0.323502 0)
(-0.0899686 -0.326271 0)
(-0.0507451 -0.269821 0)
(-0.0139573 -0.124538 0)
(-0.0180203 0.143962 0)
(-0.0561381 0.288025 0)
(-0.0844553 0.330116 0)
(-0.0893296 0.315852 0)
(-0.0755849 0.275417 0)
(-0.052338 0.225557 0)
(-0.0267652 0.174394 0)
(-0.00375525 0.12508 0)
(0.0135783 0.0781476 0)
(0.0233895 0.0328356 0)
(0.024701 -0.0122327 0)
(0.0171989 -0.0586862 0)
(0.00125794 -0.108128 0)
(-0.021781 -0.161721 0)
(-0.049073 -0.219366 0)
(-0.0755239 -0.278033 0)
(-0.093004 -0.328767 0)
(-0.0906648 -0.352133 0)
(-0.061823 -0.312816 0)
(-0.0200764 -0.158175 0)
(-0.0258039 0.185837 0)
(-0.0664906 0.324072 0)
(-0.0733082 0.336279 0)
(-0.0467946 0.297815 0)
(-0.00315207 0.244234 0)
(0.0443135 0.190581 0)
(0.087824 0.142044 0)
(0.123238 0.0992624 0)
(0.148514 0.061071 0)
(0.162697 0.0256894 0)
(0.165301 -0.00886958 0)
(0.156027 -0.0447152 0)
(0.134736 -0.0840828 0)
(0.101717 -0.129254 0)
(0.058368 -0.182116 0)
(0.00844457 -0.24277 0)
(-0.0399745 -0.306164 0)
(-0.0722252 -0.355519 0)
(-0.0693513 -0.350006 0)
(-0.0274438 -0.203615 0)
(-0.0293434 0.243528 0)
(-0.0598233 0.341333 0)
(-0.0191314 0.303936 0)
(0.0551001 0.241077 0)
(0.133132 0.18206 0)
(0.202729 0.133405 0)
(0.259509 0.0948747 0)
(0.302363 0.0641271 0)
(0.331555 0.0386103 0)
(0.347639 0.0160828 0)
(0.350918 -0.00543657 0)
(0.341226 -0.0278821 0)
(0.317874 -0.0533984 0)
(0.279758 -0.0846042 0)
(0.225822 -0.124736 0)
(0.156248 -0.177184 0)
(0.0746979 -0.243295 0)
(-0.00662589 -0.316406 0)
(-0.0556985 -0.36328 0)
(-0.0285396 -0.262489 0)
(0.0101283 0.284552 0)
(0.0235441 0.297955 0)
(0.144564 0.212235 0)
(0.271216 0.143156 0)
(0.371283 0.0960393 0)
(0.446644 0.0643691 0)
(0.501926 0.0428448 0)
(0.540742 0.0276099 0)
(0.56593 0.0160555 0)
(0.579406 0.00644895 0)
(0.58212 -0.00247099 0)
(0.574092 -0.0118275 0)
(0.554368 -0.0229108 0)
(0.520874 -0.0375531 0)
(0.470294 -0.0586551 0)
(0.398121 -0.0908058 0)
(0.298417 -0.140657 0)
(0.167496 -0.215866 0)
(0.0378338 -0.309106 0)
(0.0170506 -0.29665 0)
(0.301473 0.146541 0)
(0.399861 0.127647 0)
(0.56192 0.0756526 0)
(0.678873 0.0430534 0)
(0.747575 0.0249355 0)
(0.790025 0.0147439 0)
(0.817576 0.00885475 0)
(0.835357 0.00526098 0)
(0.846204 0.00285503 0)
(0.851694 0.00102575 0)
(0.852551 -0.000599687 0)
(0.848852 -0.00231862 0)
(0.840032 -0.00448114 0)
(0.824662 -0.00765707 0)
(0.799973 -0.0129246 0)
(0.76075 -0.0223854 0)
(0.695328 -0.0400795 0)
(0.57964 -0.073365 0)
(0.412914 -0.127898 0)
(0.307628 -0.148805 0)
)
;

boundaryField
{
    movingWall
    {
        type            fixedValue;
        value           uniform (1 0 0);
    }
    fixedWalls
    {
        type            noSlip;
    }
    frontAndBack
    {
        type            empty;
    }
}


// ************************************************************************* //
