/*--------------------------------*- C++ -*----------------------------------*\
| =========                 |                                                 |
| \\      /  F ield         | OpenFOAM: The Open Source CFD Toolbox           |
|  \\    /   O peration     | Version:  2306                                  |
|   \\  /    A nd           | Website:  www.openfoam.com                      |
|    \\/     M anipulation  |                                                 |
\*---------------------------------------------------------------------------*/
FoamFile
{
    version     2.0;
    format      ascii;
    arch        "LSB;label=32;scalar=64";
    class       volScalarField;
    location    "1800";
    object      cp;
}
// * * * * * * * * * * * * * * * * * * * * * * * * * * * * * * * * * * * * * //

dimensions      [0 0 0 0 0 0 0];

internalField   nonuniform List<scalar> 
20540
(
2.94839
2.95047
2.94839
2.95047
2.94839
2.95046
2.94839
2.95046
2.94839
2.95046
2.94839
2.95046
2.94839
2.95045
2.94839
2.95045
2.94839
2.95044
2.94839
2.95043
2.94839
2.95042
2.94839
2.95041
2.94839
2.9504
2.94838
2.95039
2.94838
2.95037
2.94838
2.95035
2.94837
2.95032
2.94837
2.95029
2.94836
2.95025
2.94836
2.95021
2.94835
2.95016
2.94834
2.95009
2.94833
2.95002
2.94832
2.94994
2.94831
2.94985
2.94829
2.94974
2.94828
2.94963
2.94826
2.94951
2.94825
2.94938
2.94823
2.94927
2.94822
2.94919
2.94821
2.94915
2.94821
2.94916
2.94821
2.9492
2.94822
2.94928
2.94824
2.94939
2.94825
2.94951
2.94826
2.94963
2.94828
2.94974
2.94829
2.94985
2.9483
2.94994
2.94831
2.95002
2.94832
2.95009
2.94833
2.95016
2.94834
2.95021
2.94835
2.95026
2.94835
2.95029
2.94836
2.95033
2.94836
2.95035
2.94836
2.95038
2.94836
2.9504
2.94837
2.95041
2.94837
2.95043
2.94837
2.95044
2.94837
2.95045
2.94837
2.95046
2.94837
2.95046
2.94838
2.95047
2.94838
2.95047
2.94838
2.95048
2.94838
2.95048
2.94838
2.95048
2.94838
2.95048
2.94838
2.95049
2.94838
2.95049
2.94835
2.94026
2.9358
2.93323
2.93061
2.9277
2.92452
2.92148
2.9182
2.91497
2.9114
2.90782
2.90388
2.89989
2.89551
2.89105
2.8862
2.88124
2.87591
2.87045
2.86464
2.85869
2.85243
2.84602
2.83936
2.83254
2.82552
2.81836
2.81104
2.80361
2.79605
2.78841
2.78069
2.7729
2.76506
2.75717
2.74926
2.74132
2.73338
2.72546
2.71758
2.70975
2.70201
2.69439
2.68692
2.67964
2.6726
2.66584
2.65941
2.65342
2.64772
2.64272
2.63782
2.63331
2.62928
2.62502
2.62215
2.61619
2.61696
2.60478
2.61764
2.60869
2.45565
2.46427
2.64514
2.77636
2.79584
2.79575
2.79192
2.82511
2.94407
3.01661
2.95134
2.81178
2.62276
2.46244
2.41551
2.45304
2.53476
2.6206
2.69978
2.76776
2.83485
2.88311
2.90191
2.89319
2.8782
2.93257
2.94835
2.94026
2.9358
2.93323
2.93061
2.9277
2.92452
2.92148
2.9182
2.91497
2.9114
2.90782
2.90388
2.89989
2.89551
2.89105
2.8862
2.88124
2.87591
2.87045
2.86464
2.85869
2.85243
2.84602
2.83936
2.83254
2.82552
2.81836
2.81104
2.80361
2.79605
2.78841
2.78069
2.7729
2.76506
2.75717
2.74926
2.74132
2.73338
2.72546
2.71758
2.70975
2.70201
2.69439
2.68692
2.67964
2.6726
2.66584
2.65941
2.65342
2.64772
2.64272
2.63782
2.63331
2.62928
2.62502
2.62215
2.61619
2.61696
2.60478
2.61764
2.60869
2.45566
2.46428
2.64513
2.77635
2.79584
2.79576
2.79192
2.82511
2.94405
3.01657
2.95131
2.81177
2.62278
2.46245
2.4155
2.45302
2.53476
2.6206
2.69978
2.76776
2.83484
2.88308
2.90186
2.8932
2.87834
2.93086
2.94835
2.94027
2.9358
2.93323
2.93061
2.9277
2.92452
2.92148
2.9182
2.91497
2.9114
2.90782
2.90388
2.89989
2.89551
2.89105
2.8862
2.88124
2.87591
2.87045
2.86464
2.85869
2.85243
2.84602
2.83936
2.83254
2.82552
2.81836
2.81104
2.80361
2.79605
2.78841
2.78069
2.7729
2.76506
2.75717
2.74926
2.74132
2.73338
2.72546
2.71758
2.70975
2.70201
2.69439
2.68692
2.67964
2.6726
2.66584
2.65941
2.65342
2.64772
2.64272
2.63782
2.63331
2.62928
2.62502
2.62215
2.61619
2.61697
2.60478
2.61764
2.60869
2.45567
2.46427
2.64511
2.77634
2.79584
2.79576
2.79192
2.8251
2.94402
3.01653
2.95126
2.81173
2.62271
2.46235
2.4154
2.45297
2.53474
2.62059
2.69978
2.76776
2.83482
2.88303
2.9018
2.89319
2.87878
2.92901
2.94835
2.94027
2.9358
2.93323
2.93061
2.9277
2.92452
2.92148
2.9182
2.91497
2.9114
2.90782
2.90388
2.89989
2.89551
2.89105
2.8862
2.88124
2.87591
2.87045
2.86464
2.85869
2.85243
2.84602
2.83936
2.83254
2.82552
2.81836
2.81104
2.80361
2.79605
2.78841
2.78069
2.7729
2.76506
2.75717
2.74926
2.74132
2.73338
2.72546
2.71758
2.70975
2.70201
2.69439
2.68692
2.67964
2.6726
2.66584
2.65941
2.65342
2.64772
2.64272
2.63782
2.63331
2.62928
2.62502
2.62215
2.61619
2.61697
2.60478
2.61763
2.60869
2.45566
2.46424
2.64506
2.77633
2.79585
2.79576
2.79191
2.8251
2.94394
3.01642
2.95111
2.81157
2.62242
2.46194
2.41504
2.45286
2.53472
2.62058
2.69978
2.76776
2.83478
2.88293
2.90166
2.89309
2.87958
2.92578
2.94835
2.94027
2.9358
2.93323
2.93061
2.9277
2.92452
2.92148
2.9182
2.91497
2.9114
2.90782
2.90388
2.89989
2.89551
2.89105
2.8862
2.88124
2.87591
2.87045
2.86464
2.85869
2.85243
2.84602
2.83936
2.83254
2.82552
2.81836
2.81104
2.80361
2.79605
2.78841
2.78069
2.7729
2.76506
2.75717
2.74926
2.74132
2.73338
2.72546
2.71758
2.70975
2.70201
2.69439
2.68692
2.67964
2.6726
2.66584
2.65941
2.65342
2.64772
2.64272
2.63782
2.63331
2.62928
2.62502
2.62216
2.61619
2.61697
2.60478
2.61762
2.60869
2.4556
2.46415
2.64498
2.77632
2.79588
2.79575
2.79189
2.82507
2.94376
3.01614
2.95074
2.81108
2.62154
2.46079
2.41429
2.45269
2.53467
2.62057
2.69977
2.76774
2.83467
2.88274
2.90143
2.8928
2.88019
2.91968
2.94834
2.94027
2.9358
2.93323
2.93061
2.9277
2.92452
2.92148
2.9182
2.91497
2.9114
2.90782
2.90388
2.89989
2.89551
2.89105
2.8862
2.88124
2.87591
2.87045
2.86464
2.85869
2.85243
2.84602
2.83936
2.83254
2.82552
2.81836
2.81104
2.80361
2.79605
2.78841
2.78069
2.7729
2.76506
2.75717
2.74926
2.74132
2.73338
2.72546
2.71758
2.70975
2.70201
2.69439
2.68692
2.67964
2.6726
2.66584
2.65941
2.65342
2.64772
2.64272
2.63782
2.63331
2.62928
2.62502
2.62216
2.61619
2.61697
2.60478
2.61761
2.60869
2.45548
2.464
2.64485
2.77632
2.7959
2.79574
2.79187
2.825
2.94339
3.01551
2.94997
2.81011
2.61967
2.45834
2.41312
2.45246
2.5346
2.62055
2.69973
2.76765
2.83444
2.88236
2.90106
2.89217
2.87997
2.91194
2.94834
2.94027
2.9358
2.93323
2.93061
2.9277
2.92452
2.92148
2.9182
2.91497
2.9114
2.90782
2.90388
2.89989
2.89551
2.89105
2.8862
2.88124
2.87591
2.87045
2.86464
2.85869
2.85243
2.84602
2.83936
2.83254
2.82552
2.81836
2.81104
2.80361
2.79605
2.78841
2.78069
2.7729
2.76506
2.75717
2.74926
2.74132
2.73338
2.72546
2.71758
2.70975
2.70201
2.69439
2.68692
2.67964
2.6726
2.66584
2.65941
2.65342
2.64772
2.64272
2.63782
2.63331
2.62928
2.62502
2.62216
2.61619
2.61697
2.60477
2.61758
2.60867
2.45523
2.46376
2.64465
2.77631
2.79591
2.79572
2.79187
2.82487
2.94274
3.01437
2.94874
2.80856
2.61627
2.45439
2.4116
2.45215
2.53448
2.62048
2.69961
2.76742
2.83404
2.88172
2.90052
2.89101
2.87899
2.9044
2.94833
2.94027
2.9358
2.93323
2.93061
2.9277
2.92452
2.92148
2.9182
2.91497
2.9114
2.90782
2.90388
2.89989
2.89551
2.89105
2.8862
2.88124
2.87591
2.87045
2.86464
2.85869
2.85243
2.84602
2.83936
2.83254
2.82552
2.81836
2.81104
2.80361
2.79605
2.78841
2.78069
2.7729
2.76506
2.75717
2.74926
2.74132
2.73338
2.72546
2.71758
2.70975
2.70201
2.69439
2.68692
2.67964
2.6726
2.66584
2.65941
2.65342
2.64772
2.64272
2.63782
2.63331
2.62928
2.62502
2.62216
2.61619
2.61696
2.60478
2.61755
2.60864
2.45471
2.46342
2.64433
2.77625
2.7959
2.79569
2.79192
2.82468
2.94157
3.01275
2.94703
2.80623
2.61086
2.44909
2.40978
2.45167
2.53429
2.62032
2.69935
2.76703
2.83337
2.88062
2.89975
2.88932
2.87735
2.89564
2.94833
2.94028
2.9358
2.93323
2.93061
2.9277
2.92452
2.92148
2.9182
2.91497
2.9114
2.90782
2.90388
2.89989
2.89551
2.89105
2.8862
2.88125
2.87591
2.87045
2.86464
2.85869
2.85243
2.84602
2.83936
2.83254
2.82552
2.81836
2.81104
2.80361
2.79605
2.78841
2.78069
2.7729
2.76506
2.75717
2.74926
2.74132
2.73338
2.72546
2.71758
2.70975
2.70201
2.69439
2.68692
2.67964
2.6726
2.66584
2.65941
2.65342
2.64772
2.64272
2.63782
2.63331
2.62928
2.62502
2.62216
2.61619
2.61696
2.60478
2.61754
2.60861
2.45386
2.46297
2.64375
2.77613
2.79582
2.79562
2.79209
2.82454
2.93969
3.01087
2.94502
2.80279
2.60311
2.44268
2.40758
2.45093
2.53397
2.62004
2.69894
2.76641
2.83231
2.8789
2.89866
2.88732
2.87464
2.8842
2.94833
2.94028
2.9358
2.93323
2.93061
2.9277
2.92452
2.92148
2.91821
2.91497
2.9114
2.90782
2.90388
2.89989
2.89551
2.89105
2.8862
2.88125
2.87591
2.87045
2.86464
2.85869
2.85243
2.84602
2.83936
2.83254
2.82552
2.81836
2.81104
2.80361
2.79605
2.78841
2.78069
2.7729
2.76506
2.75717
2.74926
2.74132
2.73338
2.72546
2.71758
2.70975
2.70201
2.69439
2.68692
2.67964
2.6726
2.66584
2.65941
2.65342
2.64772
2.64272
2.63782
2.63331
2.62928
2.62502
2.62216
2.61618
2.61696
2.60479
2.61757
2.60862
2.45273
2.46257
2.64278
2.77585
2.79561
2.79551
2.79246
2.8246
2.93703
3.00935
2.94317
2.79762
2.59283
2.43528
2.40483
2.44977
2.53344
2.61955
2.69831
2.76551
2.83078
2.8765
2.89725
2.88521
2.87055
2.87145
2.94832
2.94029
2.9358
2.93323
2.93061
2.9277
2.92452
2.92148
2.91821
2.91497
2.9114
2.90782
2.90388
2.89989
2.89551
2.89105
2.8862
2.88125
2.87591
2.87045
2.86464
2.85869
2.85243
2.84602
2.83936
2.83254
2.82552
2.81836
2.81104
2.80361
2.79605
2.78841
2.78069
2.7729
2.76506
2.75717
2.74926
2.74132
2.73338
2.72546
2.71758
2.70975
2.70201
2.69439
2.68692
2.67964
2.6726
2.66584
2.65941
2.65342
2.64772
2.64272
2.63782
2.63331
2.62928
2.62502
2.62215
2.61618
2.61696
2.6048
2.61768
2.60866
2.45154
2.46239
2.64158
2.77525
2.79517
2.7953
2.7931
2.82488
2.93407
3.00829
2.94195
2.78991
2.58008
2.4269
2.40125
2.44792
2.53255
2.61877
2.69738
2.76431
2.82866
2.87356
2.89554
2.88297
2.86524
2.85915
2.94832
2.9403
2.93581
2.93324
2.93061
2.9277
2.92452
2.92148
2.91821
2.91497
2.9114
2.90782
2.90388
2.89989
2.89551
2.89105
2.8862
2.88125
2.87591
2.87045
2.86464
2.85869
2.85243
2.84602
2.83936
2.83254
2.82552
2.81836
2.81104
2.80361
2.79605
2.78841
2.78069
2.7729
2.76506
2.75717
2.74926
2.74132
2.73338
2.72546
2.71758
2.70975
2.70201
2.69439
2.68692
2.67964
2.6726
2.66584
2.65941
2.65341
2.64772
2.64271
2.63781
2.6333
2.62927
2.62502
2.62215
2.61617
2.61696
2.6048
2.61781
2.60875
2.45055
2.46225
2.64101
2.77415
2.79438
2.79495
2.79411
2.82548
2.93175
3.00738
2.94121
2.77899
2.56529
2.41745
2.39658
2.44509
2.53114
2.61757
2.69609
2.76283
2.82595
2.87044
2.89368
2.88045
2.85994
2.85002
2.94831
2.94031
2.93581
2.93324
2.93061
2.9277
2.92453
2.92148
2.91821
2.91497
2.9114
2.90782
2.90388
2.89989
2.89551
2.89105
2.8862
2.88125
2.87591
2.87045
2.86464
2.85869
2.85243
2.84602
2.83936
2.83254
2.82552
2.81836
2.81104
2.80361
2.79605
2.78841
2.78069
2.7729
2.76506
2.75717
2.74926
2.74132
2.73338
2.72546
2.71758
2.70975
2.70201
2.69439
2.68692
2.67963
2.67259
2.66583
2.6594
2.6534
2.64771
2.6427
2.6378
2.63328
2.62926
2.625
2.62213
2.61616
2.61698
2.60477
2.61789
2.60882
2.44987
2.46152
2.64127
2.7723
2.79305
2.79438
2.79561
2.82664
2.93099
3.00622
2.94055
2.76438
2.54889
2.40678
2.39059
2.44093
2.52897
2.61585
2.69445
2.76121
2.82286
2.86769
2.8921
2.87735
2.85451
2.84704
2.9483
2.94033
2.93582
2.93324
2.93061
2.9277
2.92453
2.92148
2.91821
2.91497
2.9114
2.90782
2.90388
2.89989
2.89551
2.89105
2.8862
2.88125
2.87591
2.87045
2.86464
2.85869
2.85243
2.84602
2.83936
2.83254
2.82552
2.81836
2.81104
2.80361
2.79605
2.78841
2.78069
2.7729
2.76506
2.75717
2.74925
2.74132
2.73338
2.72546
2.71758
2.70975
2.70201
2.69438
2.68691
2.67963
2.67259
2.66582
2.65939
2.65339
2.64769
2.64267
2.63777
2.63325
2.62922
2.62496
2.62208
2.61615
2.61699
2.60469
2.61795
2.60851
2.44939
2.45811
2.64117
2.76923
2.79092
2.79345
2.79769
2.82857
2.93243
3.00421
2.9383
2.74638
2.53206
2.39521
2.38324
2.43522
2.52587
2.61363
2.69263
2.75977
2.81997
2.86625
2.89135
2.87595
2.8505
2.8487
2.94829
2.94034
2.93582
2.93324
2.93061
2.9277
2.92453
2.92148
2.91821
2.91497
2.9114
2.90783
2.90388
2.89989
2.89551
2.89105
2.8862
2.88125
2.87591
2.87045
2.86464
2.85869
2.85243
2.84602
2.83936
2.83254
2.82552
2.81836
2.81104
2.80361
2.79605
2.78841
2.78069
2.7729
2.76506
2.75717
2.74925
2.74132
2.73338
2.72546
2.71757
2.70975
2.70201
2.69438
2.68691
2.67962
2.67258
2.66581
2.65937
2.65336
2.64765
2.64262
2.63771
2.63318
2.62915
2.62488
2.62197
2.6161
2.6169
2.60458
2.61793
2.60743
2.4502
2.45326
2.63998
2.76444
2.78766
2.79202
2.80029
2.83147
2.93524
3.00161
2.93162
2.72603
2.51508
2.38243
2.37505
2.42838
2.52203
2.61126
2.69107
2.759
2.81818
2.86726
2.89279
2.87904
2.85323
2.85944
2.94828
2.94036
2.93583
2.93325
2.93062
2.92771
2.92453
2.92148
2.91821
2.91497
2.9114
2.90783
2.90388
2.89989
2.89551
2.89105
2.8862
2.88125
2.87591
2.87045
2.86464
2.85869
2.85243
2.84602
2.83936
2.83255
2.82552
2.81836
2.81104
2.80361
2.79605
2.78841
2.78069
2.7729
2.76506
2.75717
2.74925
2.74132
2.73338
2.72546
2.71757
2.70974
2.702
2.69437
2.6869
2.67961
2.67256
2.66578
2.65933
2.65331
2.64759
2.64254
2.63761
2.63306
2.62901
2.62471
2.62176
2.61596
2.61662
2.60451
2.61734
2.60466
2.45476
2.45562
2.63867
2.7578
2.78305
2.78996
2.80296
2.83538
2.9374
2.99805
2.91894
2.70317
2.4984
2.37131
2.36866
2.42161
2.51828
2.60944
2.69049
2.75959
2.81863
2.87125
2.89672
2.88634
2.864
2.87616
2.94827
2.94039
2.93584
2.93325
2.93062
2.92771
2.92453
2.92148
2.91821
2.91497
2.9114
2.90783
2.90388
2.89989
2.89551
2.89105
2.8862
2.88125
2.87591
2.87045
2.86464
2.85869
2.85243
2.84602
2.83936
2.83255
2.82552
2.81836
2.81104
2.80361
2.79605
2.78841
2.78069
2.7729
2.76506
2.75717
2.74925
2.74132
2.73338
2.72545
2.71757
2.70974
2.70199
2.69436
2.68688
2.67959
2.67253
2.66575
2.65928
2.65325
2.6475
2.64241
2.63746
2.63286
2.62878
2.62443
2.62142
2.61568
2.6161
2.60451
2.6155
2.6014
2.46544
2.46748
2.63711
2.74924
2.77695
2.78702
2.80498
2.83928
2.93629
2.99116
2.89965
2.67837
2.48247
2.36402
2.3645
2.4172
2.51608
2.60937
2.69172
2.7622
2.82178
2.87768
2.90255
2.89623
2.87842
2.8949
2.94826
2.94042
2.93585
2.93325
2.93062
2.92771
2.92453
2.92149
2.91821
2.91497
2.9114
2.90783
2.90388
2.89989
2.89551
2.89105
2.88621
2.88125
2.87591
2.87045
2.86464
2.85869
2.85243
2.84602
2.83936
2.83255
2.82552
2.81836
2.81104
2.80361
2.79605
2.78841
2.78069
2.7729
2.76506
2.75717
2.74925
2.74131
2.73337
2.72545
2.71756
2.70973
2.70198
2.69435
2.68686
2.67956
2.67249
2.6657
2.65921
2.65315
2.64738
2.64223
2.63725
2.63259
2.62847
2.62404
2.62095
2.61523
2.61535
2.6045
2.61248
2.59882
2.48141
2.48584
2.63541
2.73915
2.7694
2.78299
2.80523
2.8415
2.92911
2.97733
2.8737
2.65154
2.46621
2.35811
2.3628
2.41933
2.51833
2.61235
2.69539
2.76686
2.82711
2.88328
2.90907
2.9075
2.88874
2.90707
2.94824
2.94045
2.93586
2.93326
2.93063
2.92771
2.92453
2.92149
2.91821
2.91498
2.9114
2.90783
2.90388
2.89989
2.89551
2.89106
2.88621
2.88125
2.87591
2.87045
2.86464
2.85869
2.85243
2.84602
2.83936
2.83255
2.82552
2.81836
2.81104
2.80361
2.79605
2.78841
2.78069
2.7729
2.76506
2.75717
2.74925
2.74131
2.73337
2.72544
2.71755
2.70972
2.70197
2.69433
2.68684
2.67952
2.67244
2.66563
2.65912
2.65303
2.64722
2.64201
2.63698
2.63224
2.62806
2.62352
2.62034
2.61465
2.61436
2.60439
2.60888
2.59703
2.50053
2.50728
2.63369
2.72794
2.76047
2.77745
2.80261
2.83943
2.91415
2.95324
2.842
2.62619
2.45229
2.35895
2.36552
2.42723
2.52539
2.61872
2.70118
2.7724
2.83172
2.88514
2.91221
2.91693
2.88538
2.89043
2.94822
2.94049
2.93587
2.93327
2.93063
2.92772
2.92454
2.92149
2.91821
2.91498
2.91141
2.90783
2.90388
2.89989
2.89551
2.89106
2.88621
2.88125
2.87591
2.87045
2.86464
2.85869
2.85243
2.84602
2.83936
2.83255
2.82552
2.81836
2.81104
2.80361
2.79605
2.78841
2.78069
2.7729
2.76506
2.75717
2.74925
2.74131
2.73336
2.72544
2.71754
2.7097
2.70195
2.6943
2.6868
2.67948
2.67238
2.66555
2.65901
2.65287
2.64702
2.64173
2.63665
2.63181
2.62755
2.62289
2.61958
2.61394
2.61313
2.60413
2.60526
2.59579
2.52048
2.52918
2.63222
2.71597
2.75016
2.7698
2.79609
2.83088
2.88976
2.91728
2.80678
2.60912
2.45177
2.375
2.38359
2.44634
2.53879
2.62781
2.70694
2.77539
2.83166
2.88035
2.90236
2.90895
2.86066
2.83584
2.94819
2.94054
2.93589
2.93327
2.93064
2.92772
2.92454
2.92149
2.91822
2.91498
2.91141
2.90783
2.90388
2.89989
2.89551
2.89106
2.88621
2.88125
2.87591
2.87045
2.86464
2.85869
2.85243
2.84602
2.83936
2.83255
2.82552
2.81836
2.81104
2.80361
2.79605
2.78841
2.78069
2.7729
2.76505
2.75716
2.74924
2.7413
2.73336
2.72543
2.71753
2.70969
2.70193
2.69427
2.68676
2.67942
2.6723
2.66544
2.65887
2.65268
2.64677
2.64138
2.63623
2.63127
2.62691
2.62212
2.61864
2.61308
2.61163
2.60365
2.602
2.59493
2.5396
2.54989
2.63109
2.70349
2.73822
2.75932
2.78495
2.81481
2.85556
2.87071
2.77141
2.6051
2.4727
2.41212
2.42179
2.47829
2.55808
2.63694
2.70811
2.77015
2.82112
2.86269
2.87566
2.87106
2.82066
2.75611
2.94816
2.9406
2.93591
2.93328
2.93064
2.92772
2.92454
2.92149
2.91822
2.91498
2.91141
2.90783
2.90389
2.8999
2.89552
2.89106
2.88621
2.88125
2.87591
2.87045
2.86464
2.85869
2.85243
2.84602
2.83936
2.83254
2.82552
2.81836
2.81103
2.8036
2.79605
2.78841
2.78069
2.7729
2.76505
2.75716
2.74924
2.74129
2.73335
2.72541
2.71751
2.70966
2.7019
2.69423
2.6867
2.67935
2.6722
2.6653
2.65868
2.65243
2.64646
2.64095
2.63571
2.63061
2.62612
2.62119
2.61748
2.61202
2.60985
2.60289
2.59925
2.59434
2.55678
2.56822
2.63019
2.69057
2.72428
2.74536
2.76842
2.79188
2.81483
2.81857
2.7389
2.61349
2.51298
2.46721
2.47428
2.51745
2.57836
2.64093
2.69883
2.74953
2.79049
2.82121
2.82942
2.81537
2.78039
2.70421
2.94813
2.94066
2.93593
2.93329
2.93065
2.92773
2.92455
2.9215
2.91822
2.91498
2.91141
2.90783
2.90389
2.8999
2.89552
2.89106
2.88621
2.88125
2.87591
2.87045
2.86464
2.85869
2.85243
2.84602
2.83935
2.83254
2.82551
2.81836
2.81103
2.8036
2.79605
2.78841
2.78068
2.7729
2.76505
2.75716
2.74923
2.74129
2.73334
2.7254
2.71749
2.70964
2.70186
2.69418
2.68663
2.67925
2.67207
2.66513
2.65845
2.65212
2.64606
2.64041
2.63505
2.62979
2.62512
2.62005
2.61605
2.6107
2.60779
2.60178
2.59702
2.59395
2.57111
2.58312
2.62894
2.67712
2.70786
2.72739
2.7462
2.76252
2.77191
2.76667
2.7083
2.62231
2.55298
2.51958
2.52147
2.54862
2.58899
2.63212
2.67251
2.70692
2.73327
2.74889
2.75043
2.7315
2.70335
2.63904
2.94808
2.94074
2.93596
2.9333
2.93066
2.92774
2.92455
2.9215
2.91822
2.91499
2.91141
2.90784
2.90389
2.8999
2.89552
2.89106
2.88621
2.88125
2.87591
2.87045
2.86464
2.85869
2.85243
2.84602
2.83935
2.83254
2.82551
2.81836
2.81103
2.8036
2.79604
2.78841
2.78068
2.77289
2.76504
2.75715
2.74922
2.74127
2.73332
2.72538
2.71746
2.7096
2.7018
2.69411
2.68654
2.67912
2.6719
2.6649
2.65815
2.65172
2.64556
2.63973
2.63423
2.62877
2.62388
2.61865
2.6143
2.60905
2.60543
2.60022
2.59517
2.59353
2.5819
2.59369
2.62643
2.66283
2.68856
2.70502
2.71854
2.72746
2.72798
2.71667
2.67569
2.61921
2.57303
2.54861
2.54588
2.55921
2.58128
2.60537
2.62739
2.64388
2.65331
2.65205
2.64015
2.61052
2.57083
2.50586
2.94803
2.94082
2.93599
2.93332
2.93067
2.92774
2.92455
2.9215
2.91823
2.91499
2.91142
2.90784
2.90389
2.8999
2.89552
2.89106
2.88621
2.88125
2.87591
2.87045
2.86464
2.85869
2.85243
2.84602
2.83935
2.83254
2.82551
2.81836
2.81103
2.8036
2.79604
2.7884
2.78068
2.77289
2.76503
2.75714
2.74921
2.74126
2.7333
2.72535
2.71743
2.70955
2.70174
2.69402
2.68642
2.67896
2.67168
2.66461
2.65777
2.65121
2.64491
2.63889
2.63318
2.62751
2.62233
2.61691
2.61216
2.60694
2.60272
2.59808
2.59333
2.59265
2.58856
2.59917
2.6215
2.64697
2.66624
2.6783
2.68623
2.68871
2.68368
2.6696
2.64057
2.6038
2.57255
2.5533
2.5462
2.54808
2.55471
2.5619
2.56671
2.56638
2.5596
2.54374
2.51884
2.4813
2.4341
2.3734
2.94798
2.94092
2.93602
2.93333
2.93068
2.92775
2.92456
2.92151
2.91823
2.91499
2.91142
2.90784
2.90389
2.8999
2.89552
2.89106
2.88621
2.88125
2.87591
2.87045
2.86464
2.85869
2.85242
2.84602
2.83935
2.83254
2.82551
2.81835
2.81102
2.8036
2.79604
2.7884
2.78067
2.77288
2.76502
2.75713
2.74919
2.74124
2.73327
2.72531
2.71738
2.70948
2.70165
2.6939
2.68625
2.67875
2.6714
2.66423
2.65728
2.65056
2.64409
2.63784
2.63187
2.62593
2.6204
2.61474
2.60955
2.60424
2.59953
2.59518
2.59096
2.59062
2.59059
2.59897
2.61291
2.62873
2.64092
2.64783
2.65046
2.64806
2.63981
2.62538
2.60368
2.57835
2.55538
2.53796
2.52624
2.51856
2.51259
2.5059
2.4966
2.48299
2.46409
2.43873
2.40676
2.36742
2.3214
2.26863
2.94792
2.94102
2.93606
2.93335
2.93069
2.92776
2.92457
2.92151
2.91823
2.915
2.91142
2.90784
2.90389
2.8999
2.89552
2.89106
2.88621
2.88125
2.87591
2.87045
2.86463
2.85869
2.85242
2.84602
2.83934
2.83254
2.8255
2.81835
2.81102
2.80359
2.79603
2.78839
2.78066
2.77287
2.76501
2.75711
2.74917
2.74121
2.73323
2.72526
2.71731
2.70939
2.70153
2.69374
2.68604
2.67847
2.67102
2.66374
2.65664
2.64974
2.64304
2.63651
2.63022
2.62397
2.618
2.61202
2.60634
2.60078
2.59562
2.59121
2.58731
2.58659
2.58758
2.59272
2.59979
2.60744
2.61278
2.61442
2.61237
2.60632
2.59605
2.58178
2.56376
2.54373
2.52414
2.50632
2.49034
2.47539
2.46029
2.44384
2.425
2.40296
2.37718
2.34734
2.31332
2.27525
2.23332
2.18811
2.94785
2.94113
2.93611
2.93336
2.9307
2.92777
2.92457
2.92152
2.91824
2.915
2.91142
2.90785
2.90389
2.89991
2.89552
2.89106
2.8862
2.88125
2.87591
2.87045
2.86463
2.85868
2.85241
2.84602
2.83933
2.83253
2.82549
2.81835
2.81101
2.80359
2.79602
2.78839
2.78065
2.77286
2.765
2.75709
2.74915
2.74118
2.73319
2.7252
2.71723
2.70928
2.70138
2.69354
2.68577
2.6781
2.67054
2.66311
2.65583
2.64868
2.64171
2.63484
2.62815
2.6215
2.61502
2.60859
2.60234
2.59633
2.59064
2.58575
2.58157
2.57964
2.57931
2.58045
2.58176
2.58268
2.58198
2.57872
2.57263
2.56357
2.55159
2.53695
2.52004
2.50163
2.48263
2.46354
2.44438
2.42483
2.40439
2.38258
2.35897
2.33329
2.30535
2.27517
2.24277
2.20841
2.17224
2.13478
2.94778
2.94124
2.93615
2.93337
2.93072
2.92778
2.92458
2.92153
2.91824
2.915
2.91142
2.90785
2.90389
2.89991
2.89551
2.89107
2.8862
2.88125
2.8759
2.87045
2.86462
2.85868
2.8524
2.84601
2.83933
2.83253
2.82548
2.81834
2.811
2.80358
2.79601
2.78838
2.78064
2.77285
2.76498
2.75707
2.74911
2.74113
2.73313
2.72512
2.71712
2.70913
2.70118
2.69327
2.68541
2.67763
2.66992
2.6623
2.65478
2.64735
2.64002
2.63275
2.62557
2.61841
2.61132
2.60428
2.59734
2.59061
2.58413
2.57825
2.573
2.569
2.5658
2.56258
2.55899
2.55449
2.54874
2.54121
2.53162
2.51992
2.50617
2.49056
2.47336
2.45489
2.43549
2.41535
2.39452
2.37293
2.35044
2.32694
2.30234
2.2766
2.24974
2.22185
2.19302
2.16343
2.13323
2.10273
2.94771
2.94134
2.9362
2.93339
2.93073
2.92779
2.92458
2.92153
2.91824
2.91501
2.91142
2.90785
2.90389
2.89991
2.89551
2.89107
2.8862
2.88126
2.8759
2.87046
2.86461
2.85869
2.8524
2.84602
2.83932
2.83253
2.82548
2.81834
2.81099
2.80358
2.79601
2.78838
2.78063
2.77284
2.76496
2.75705
2.74907
2.74108
2.73306
2.72502
2.71698
2.70895
2.70092
2.69293
2.68496
2.67702
2.66913
2.66127
2.65346
2.64567
2.63791
2.63015
2.62238
2.61458
2.60675
2.5989
2.59104
2.58327
2.5756
2.5682
2.56106
2.55426
2.54733
2.53975
2.53201
2.52318
2.51337
2.50231
2.48979
2.4758
2.46038
2.44366
2.4258
2.40694
2.38726
2.36685
2.3458
2.32415
2.3019
2.27908
2.25573
2.2319
2.20764
2.18305
2.1582
2.13319
2.10813
2.0832
2.94767
2.94141
2.93623
2.9334
2.93074
2.9278
2.92459
2.92154
2.91824
2.91502
2.91142
2.90786
2.90389
2.89992
2.89551
2.89108
2.88619
2.88127
2.87589
2.87047
2.86461
2.8587
2.85239
2.84603
2.83932
2.83255
2.82547
2.81836
2.81099
2.80359
2.796
2.78839
2.78062
2.77284
2.76494
2.75703
2.74904
2.74103
2.73298
2.72492
2.71683
2.70874
2.70064
2.69255
2.68445
2.67635
2.66825
2.66014
2.65201
2.64385
2.63563
2.62733
2.61894
2.61044
2.6018
2.59303
2.58412
2.57511
2.56599
2.55678
2.54744
2.5378
2.52737
2.51622
2.50538
2.49348
2.48081
2.46723
2.45261
2.43695
2.4203
2.40275
2.3844
2.36537
2.34574
2.32561
2.30505
2.28413
2.2629
2.24142
2.21976
2.19795
2.17607
2.15418
2.13232
2.11056
2.08896
2.06762
2.94765
2.94145
2.93625
2.9334
2.93074
2.9278
2.92459
2.92155
2.91824
2.91502
2.91142
2.90787
2.90389
2.89993
2.89551
2.89109
2.88619
2.88129
2.87589
2.87049
2.86461
2.85872
2.85239
2.84605
2.83931
2.83257
2.82547
2.81838
2.81099
2.80361
2.796
2.7884
2.78062
2.77284
2.76493
2.75702
2.749
2.74099
2.7329
2.72482
2.71668
2.70854
2.70036
2.69217
2.68394
2.67569
2.66739
2.65904
2.65061
2.64208
2.63342
2.62462
2.61563
2.60644
2.59701
2.58733
2.57737
2.56713
2.55657
2.54562
2.53422
2.52211
2.50883
2.49497
2.4819
2.46783
2.45319
2.43788
2.42181
2.40498
2.38747
2.36934
2.35068
2.33156
2.31207
2.29228
2.27226
2.25207
2.23177
2.21141
2.19105
2.17073
2.15049
2.13038
2.11042
2.09065
2.07111
2.05188
2.94765
2.94145
2.93625
2.9334
2.93075
2.9278
2.92459
2.92155
2.91824
2.91503
2.91142
2.90788
2.90389
2.89995
2.89551
2.89111
2.88619
2.8813
2.87589
2.87051
2.86461
2.85874
2.85239
2.84608
2.83931
2.83259
2.82547
2.8184
2.81099
2.80364
2.796
2.78842
2.78061
2.77286
2.76491
2.75701
2.74897
2.74095
2.73283
2.72472
2.71653
2.70834
2.70008
2.69181
2.68345
2.67505
2.66656
2.65797
2.64924
2.64037
2.63129
2.622
2.61244
2.60258
2.59239
2.58182
2.57084
2.55941
2.54746
2.53489
2.52162
2.50738
2.49174
2.47575
2.46098
2.44532
2.42923
2.41265
2.3955
2.37782
2.35965
2.34107
2.32215
2.30295
2.28354
2.26399
2.24434
2.22465
2.20496
2.18534
2.1658
2.14639
2.12713
2.10805
2.08917
2.07051
2.0521
2.034
2.94768
2.94142
2.93623
2.9334
2.93074
2.9278
2.92458
2.92155
2.91824
2.91504
2.91142
2.90789
2.90388
2.89996
2.8955
2.89113
2.88619
2.88133
2.87589
2.87053
2.86461
2.85877
2.85239
2.84611
2.83931
2.83263
2.82547
2.81844
2.81099
2.80367
2.796
2.78845
2.78061
2.77288
2.7649
2.75702
2.74894
2.74093
2.73276
2.72464
2.71639
2.70816
2.69981
2.69146
2.68298
2.67445
2.66576
2.65696
2.64795
2.63876
2.62929
2.61955
2.60945
2.59897
2.58805
2.57665
2.56471
2.55216
2.53894
2.52492
2.51002
2.49398
2.47641
2.45875
2.44267
2.42577
2.40856
2.39098
2.37298
2.35459
2.33586
2.31686
2.29765
2.27829
2.25883
2.23932
2.2198
2.20033
2.18093
2.16165
2.14251
2.12353
2.10474
2.08615
2.06777
2.04963
2.03173
2.01414
2.94773
2.94135
2.9362
2.93339
2.93073
2.9278
2.92458
2.92156
2.91824
2.91505
2.91141
2.9079
2.90388
2.89997
2.8955
2.89115
2.88618
2.88135
2.87588
2.87056
2.8646
2.85881
2.85239
2.84615
2.83931
2.83267
2.82547
2.81848
2.81099
2.80372
2.796
2.7885
2.7806
2.77291
2.76489
2.75704
2.7489
2.74092
2.73268
2.72457
2.71624
2.708
2.69956
2.69115
2.68253
2.67389
2.66501
2.65603
2.64676
2.63728
2.62745
2.6173
2.6067
2.59566
2.58408
2.57192
2.55911
2.54555
2.5312
2.51591
2.49961
2.48206
2.46291
2.4439
2.42675
2.40885
2.39071
2.37231
2.35358
2.33456
2.31531
2.29587
2.27632
2.2567
2.23704
2.2174
2.19782
2.17832
2.15894
2.1397
2.12063
2.10174
2.08305
2.06456
2.0463
2.02827
2.01048
1.993
2.94779
2.94126
2.93616
2.93338
2.93072
2.9278
2.92457
2.92156
2.91823
2.91505
2.91141
2.90791
2.90387
2.89999
2.8955
2.89117
2.88618
2.88138
2.87588
2.8706
2.8646
2.85885
2.85239
2.8462
2.83931
2.83272
2.82547
2.81854
2.81099
2.80377
2.79599
2.78855
2.7806
2.77296
2.76487
2.75708
2.74887
2.74093
2.73262
2.72454
2.71612
2.70788
2.69933
2.6909
2.68215
2.67344
2.66439
2.65528
2.64578
2.63609
2.62595
2.61548
2.60448
2.593
2.58088
2.56812
2.5546
2.54025
2.52501
2.50873
2.49138
2.4727
2.45238
2.43235
2.41439
2.39572
2.37687
2.35781
2.33848
2.31892
2.29919
2.27933
2.25941
2.23947
2.21954
2.19967
2.17987
2.16019
2.14064
2.12126
2.10205
2.08303
2.06421
2.04561
2.02722
2.00907
1.99115
1.97353
2.94786
2.94116
2.93612
2.93337
2.93071
2.92779
2.92457
2.92156
2.91823
2.91506
2.9114
2.90792
2.90387
2.90001
2.89549
2.89119
2.88618
2.88141
2.87588
2.87063
2.8646
2.85889
2.85239
2.84624
2.83931
2.83277
2.82547
2.81859
2.81098
2.80383
2.79599
2.7886
2.78058
2.77301
2.76485
2.75712
2.74884
2.74095
2.73256
2.72452
2.71602
2.70781
2.69916
2.69073
2.68186
2.67313
2.66392
2.65475
2.64505
2.63524
2.62485
2.61419
2.60287
2.59109
2.57857
2.56539
2.55136
2.53646
2.52059
2.50363
2.48555
2.4661
2.44497
2.42424
2.40571
2.38648
2.3671
2.34753
2.32774
2.30775
2.28762
2.26741
2.24717
2.22693
2.20673
2.1866
2.16657
2.14667
2.12692
2.10733
2.08793
2.06872
2.04972
2.03093
2.01236
1.99401
1.97591
1.9581
2.94793
2.94106
2.93608
2.93336
2.9307
2.92779
2.92456
2.92156
2.91822
2.91506
2.9114
2.90793
2.90387
2.90002
2.89549
2.89121
2.88618
2.88143
2.87588
2.87066
2.8646
2.85892
2.85239
2.84627
2.83931
2.83281
2.82546
2.81863
2.81098
2.80387
2.79598
2.78865
2.78057
2.77306
2.76483
2.75716
2.74881
2.74098
2.73251
2.72452
2.71593
2.70777
2.69901
2.69063
2.68163
2.67292
2.66357
2.65438
2.6445
2.63464
2.62404
2.61327
2.60169
2.58974
2.5769
2.56345
2.54904
2.53375
2.51744
2.50001
2.48143
2.46145
2.43977
2.41854
2.39959
2.37994
2.36016
2.3402
2.32004
2.29971
2.27926
2.25875
2.23823
2.21773
2.19729
2.17693
2.15669
2.13658
2.11662
2.09683
2.07723
2.05783
2.03863
2.01965
2.00089
1.98236
1.96406
1.94606
2.94799
2.94096
2.93604
2.93335
2.93069
2.92778
2.92455
2.92156
2.91822
2.91507
2.9114
2.90794
2.90386
2.90003
2.89549
2.89122
2.88617
2.88145
2.87588
2.87068
2.8646
2.85894
2.85238
2.8463
2.8393
2.83284
2.82546
2.81867
2.81097
2.80391
2.79597
2.78869
2.78056
2.7731
2.76482
2.75719
2.74878
2.741
2.73247
2.72454
2.71586
2.70775
2.6989
2.69056
2.68145
2.67277
2.66329
2.65412
2.64409
2.63423
2.62344
2.61263
2.60083
2.5888
2.5757
2.56209
2.54738
2.53184
2.5152
2.49744
2.47853
2.45818
2.43613
2.41454
2.39528
2.37532
2.35522
2.33496
2.3145
2.2939
2.27319
2.25243
2.23168
2.21096
2.19031
2.16976
2.14934
2.12905
2.10892
2.08896
2.06918
2.04961
2.03024
2.01108
1.99215
1.97344
1.95498
1.93681
2.94805
2.94087
2.93601
2.93334
2.93068
2.92777
2.92455
2.92156
2.91821
2.91507
2.91139
2.90794
2.90386
2.90004
2.89548
2.89123
2.88617
2.88146
2.87587
2.8707
2.8646
2.85896
2.85238
2.84633
2.8393
2.83287
2.82546
2.8187
2.81096
2.80394
2.79596
2.78872
2.78055
2.77313
2.7648
2.75723
2.74876
2.74103
2.73243
2.72455
2.7158
2.70774
2.6988
2.69052
2.6813
2.67268
2.66307
2.65395
2.64377
2.63394
2.62298
2.61219
2.60019
2.58815
2.57481
2.56115
2.54618
2.5305
2.51361
2.49562
2.47648
2.45589
2.4336
2.41175
2.39226
2.37205
2.35169
2.33119
2.3105
2.28968
2.26876
2.2478
2.22685
2.20596
2.18514
2.16443
2.14386
2.12342
2.10315
2.08304
2.06312
2.0434
2.02389
2.00459
1.98551
1.96665
1.94804
1.92972
2.9481
2.94078
2.93598
2.93332
2.93067
2.92777
2.92454
2.92156
2.91821
2.91507
2.91139
2.90795
2.90386
2.90004
2.89548
2.89124
2.88617
2.88147
2.87587
2.87071
2.86459
2.85898
2.85238
2.84634
2.8393
2.83289
2.82545
2.81872
2.81096
2.80397
2.79595
2.78875
2.78053
2.77316
2.76479
2.75725
2.74874
2.74105