/*--------------------------------*- C++ -*----------------------------------*\
| =========                 |                                                 |
| \\      /  F ield         | OpenFOAM: The Open Source CFD Toolbox           |
|  \\    /   O peration     | Version:  2306                                  |
|   \\  /    A nd           | Website:  www.openfoam.com                      |
|    \\/     M anipulation  |                                                 |
\*---------------------------------------------------------------------------*/
FoamFile
{
    version     2.0;
    format      ascii;
    arch        "LSB;label=32;scalar=64";
    class       volScalarField;
    location    "1800";
    object      nut;
}
// * * * * * * * * * * * * * * * * * * * * * * * * * * * * * * * * * * * * * //

dimensions      [0 2 -1 0 0 0 0];

internalField   uniform 0;

boundaryField
{
    inlet
    {
        type            calculated;
        value           uniform 0;
    }
    outlet
    {
        type            calculated;
        value           uniform 0;
    }
    lowerWallStartup
    {
        type            symmetryPlane;
    }
    upperWallStartup
    {
        type            symmetryPlane;
    }
    upperWall
    {
        type            nutUBlendedWallFunction;
        value           nonuniform List<scalar> 
218
(
1.17792e-08
3.96134e-09
2.91539e-09
2.457e-09
2.19318e-09
2.01214e-09
1.88292e-09
1.77447e-09
1.69613e-09
1.62306e-09
1.5726e-09
1.51908e-09
1.48537e-09
1.4438e-09
1.42163e-09
1.38784e-09
1.37436e-09
1.34579e-09
1.33936e-09
1.3142e-09
1.31381e-09
1.29064e-09
1.29564e-09
1.27331e-09
1.28332e-09
1.26078e-09
1.27555e-09
1.25182e-09
1.27128e-09
1.24556e-09
1.26987e-09
1.24167e-09
1.27124e-09
1.24031e-09
1.27571e-09
1.24181e-09
1.28373e-09
1.24667e-09
1.29603e-09
1.25585e-09
1.31398e-09
1.2712e-09
1.33992e-09
1.29567e-09
1.37746e-09
1.33358e-09
1.43184e-09
1.39084e-09
1.50974e-09
1.4746e-09
1.6181e-09
1.59275e-09
1.76255e-09
1.75567e-09
1.94815e-09
1.97912e-09
2.18859e-09
2.27336e-09
2.48482e-09
2.6414e-09
2.84105e-09
3.08613e-09
3.36325e-09
3.74946e-09
4.04528e-09
4.31555e-09
4.53184e-09
4.69915e-09
4.98229e-09
5.08786e-09
5.43221e-09
5.54933e-09
5.88709e-09
6.04817e-09
6.28305e-09
6.53917e-09
6.66372e-09
7.03802e-09
7.15926e-09
7.56293e-09
7.69238e-09
8.06168e-09
8.15634e-09
8.54267e-09
8.62039e-09
9.08213e-09
9.14435e-09
9.61946e-09
9.5691e-09
9.89796e-09
9.75803e-09
1.00695e-08
9.93722e-09
1.02193e-08
1.0083e-08
1.03342e-08
1.02088e-08
1.04478e-08
1.0358e-08
1.06068e-08
1.05657e-08
1.08314e-08
1.08306e-08
1.1104e-08
1.11211e-08
1.13854e-08
1.1408e-08
1.16563e-08
1.16976e-08
1.19397e-08
1.2018e-08
1.2263e-08
1.23733e-08
1.26165e-08
1.27369e-08
1.2971e-08
1.30965e-08
1.33265e-08
1.34773e-08
1.3716e-08
1.39081e-08
1.41599e-08
1.43822e-08
1.46396e-08
1.48693e-08
1.51259e-08
1.53591e-08
1.56161e-08
1.58649e-08
1.61213e-08
1.63767e-08
1.66218e-08
1.68538e-08
1.70823e-08
1.72854e-08
1.75076e-08
1.77116e-08
1.79377e-08
1.81586e-08
1.83838e-08
1.86058e-08
1.88205e-08
1.90328e-08
1.92299e-08
1.94277e-08
1.95931e-08
1.97547e-08
1.98724e-08
1.99782e-08
2.00401e-08
2.00874e-08
2.00917e-08
2.00899e-08
2.0039e-08
2.00081e-08
1.99003e-08
1.98486e-08
1.96701e-08
1.95882e-08
1.93271e-08
1.92194e-08
1.88754e-08
1.8767e-08
1.83385e-08
1.82547e-08
1.77422e-08
1.77099e-08
1.71394e-08
1.72024e-08
1.6621e-08
1.6829e-08
1.62699e-08
1.66527e-08
1.61476e-08
1.67188e-08
1.63728e-08
1.71415e-08
1.71353e-08
1.80597e-08
1.84269e-08
1.95664e-08
2.02381e-08
2.16409e-08
2.26546e-08
2.32688e-08
2.38205e-08
2.57957e-08
2.96421e-08
3.47629e-08
3.98649e-08
4.48907e-08
4.94338e-08
5.3118e-08
5.54985e-08
5.55492e-08
5.23166e-08
4.52851e-08
3.28927e-08
2.20007e-08
2.09752e-08
3.1916e-09
3.19179e-08
2.678e-08
2.18166e-08
6.09276e-08
1.2576e-08
2.06601e-08
8.52105e-09
7.44453e-09
4.26781e-09
4.9739e-09
0
8.75798e-10
8.52669e-10
0
0
0
0
)
;
    }
    lowerWall
    {
        type            nutUBlendedWallFunction;
        value           nonuniform List<scalar> 
266
(
1.27391e-08
4.2437e-09
3.10998e-09
2.61546e-09
2.32875e-09
2.13624e-09
1.99366e-09
1.88094e-09
1.79212e-09
1.71865e-09
1.65901e-09
1.6076e-09
1.56506e-09
1.52759e-09
1.49639e-09
1.46853e-09
1.4454e-09
1.42461e-09
1.40751e-09
1.39211e-09
1.37964e-09
1.36841e-09
1.35954e-09
1.35159e-09
1.34551e-09
1.34011e-09
1.33613e-09
1.33262e-09
1.33016e-09
1.32802e-09
1.32668e-09
1.32564e-09
1.32521e-09
1.32505e-09
1.32524e-09
1.32552e-09
1.32572e-09
1.32563e-09
1.32489e-09
1.32329e-09
1.32033e-09
1.31572e-09
1.30874e-09
1.299e-09
1.28547e-09
1.26758e-09
1.24407e-09
1.21445e-09
1.1753e-09
1.1331e-09
1.07001e-09
1.01589e-09
9.38474e-10
3.3655e-05
8.07256e-10
0.00403052
7.22296e-10
6.10072e-10
0.0197568
6.57047e-10
0
6.44321e-09
0
1.53174e-08
1.39822e-08
5.99306e-09
1.02248e-09
1.28116e-09
4.32706e-09
8.69036e-09
2.74134e-09
9.08281e-09
2.96816e-08
4.80808e-08
4.36709e-08
6.00691e-09
1.21403e-08
1.74957e-08
1.76391e-08
1.60634e-08
1.40931e-08
1.18649e-08
7.86333e-09
3.31445e-09
2.82917e-09
7.08537e-09
0
0
6.22537e-05
0
0
0
0
0
0
0
0
0
0
0
0
0
0
0
0
4.43188e-06
1.54127e-05
2.89199e-05
4.46985e-05
6.23736e-05
8.00265e-05
9.36308e-05
9.87104e-05
9.69984e-05
9.17361e-05
8.33204e-05
7.30276e-05
6.06944e-05
4.67536e-05
3.13357e-05
1.54764e-05
1.09112e-06
0
0
0
0
0
1.10138e-06
6.38611e-06
1.13786e-05
1.59801e-05
2.03228e-05
2.42815e-05
2.79893e-05
3.11863e-05
3.4088e-05
0
0
1.87283e-09
3.81164e-09
0.0113795
0
3.4885e-09
7.7154e-09
7.72187e-09
2.9438e-09
8.27592e-10
3.77973e-09
1.62439e-09
0
0
1.60507e-09
2.01234e-09
0
1.91521e-09
6.61956e-10
0
0
8.56687e-10
5.48305e-10
8.31221e-10
1.13404e-09
1.45347e-09
1.84567e-09
2.28539e-09
2.77584e-09
3.35621e-09
3.98247e-09
4.66764e-09
5.2957e-09
5.82044e-09
6.1122e-09
6.17781e-09
6.03359e-09
5.79189e-09
5.49587e-09
5.18757e-09
4.86442e-09
4.52088e-09
4.15533e-09
3.78193e-09
3.45984e-09
3.21476e-09
3.0576e-09
2.94924e-09
2.94568e-09
3.12088e-09
3.57907e-09
4.1569e-09
4.49575e-09
4.06187e-09
2.93557e-09
1.59464e-09
1.23554e-08
1.66076e-09
3.67074e-09
6.20183e-09
9.27484e-09
1.28126e-08
1.63439e-08
1.93728e-08
2.12278e-08
2.16153e-08
2.01504e-08
1.67923e-08
1.09566e-08
2.01913e-09
5.31443e-09
1.17656e-08
1.2232e-08
1.32882e-08
1.90083e-08
2.52178e-08
1.84854e-08
2.05859e-09
2.71793e-08
5.01519e-08
1.25815e-08
0
4.11429e-09
0
7.4651e-09
2.28981e-08
1.30608e-08
1.11907e-09
8.15257e-09
1.30833e-08
1.49002e-08
1.15213e-08
4.71335e-09
1.92765e-09
1.29277e-08
2.0754e-08
1.4846e-08
1.86622e-08
6.14689e-08
4.52439e-08
1.46864e-08
8.98229e-09
3.87149e-09
1.08835e-08
1.76638e-08
3.3574e-08
2.54972e-08
3.64336e-09
3.9094e-09
1.19184e-08
2.67268e-08
3.90952e-08
4.79406e-08
4.86734e-08
4.03135e-08
2.91058e-08
1.7202e-08
5.05652e-09
2.41327e-09
1.08798e-08
1.43988e-08
1.22702e-08
1.63555e-09
9.61485e-09
1.12701e-08
4.66195e-08
8.81323e-08
1.1889e-07
2.09122e-07
)
;
    }
    front
    {
        type            empty;
    }
    back
    {
        type            empty;
    }
}


// ************************************************************************* //
