/*--------------------------------*- C++ -*----------------------------------*\
| =========                 |                                                 |
| \\      /  F ield         | OpenFOAM: The Open Source CFD Toolbox           |
|  \\    /   O peration     | Version:  2306                                  |
|   \\  /    A nd           | Website:  www.openfoam.com                      |
|    \\/     M anipulation  |                                                 |
\*---------------------------------------------------------------------------*/
FoamFile
{
    version     2.0;
    format      ascii;
    arch        "LSB;label=32;scalar=64";
    class       volScalarField;
    location    "1800";
    object      p;
}
// * * * * * * * * * * * * * * * * * * * * * * * * * * * * * * * * * * * * * //

dimensions      [0 2 -2 0 0 0 0];

internalField   nonuniform List<scalar> 
20540
(
2880.05
2882.07
2880.05
2882.07
2880.05
2882.07
2880.05
2882.07
2880.05
2882.07
2880.05
2882.06
2880.05
2882.06
2880.05
2882.06
2880.05
2882.05
2880.05
2882.04
2880.04
2882.03
2880.04
2882.02
2880.04
2882.01
2880.04
2882
2880.04
2881.98
2880.03
2881.96
2880.03
2881.93
2880.03
2881.9
2880.02
2881.87
2880.02
2881.82
2880.01
2881.77
2880
2881.71
2879.99
2881.64
2879.98
2881.56
2879.97
2881.47
2879.95
2881.37
2879.94
2881.25
2879.92
2881.14
2879.91
2881.02
2879.89
2880.91
2879.88
2880.83
2879.87
2880.79
2879.87
2880.79
2879.87
2880.83
2879.88
2880.91
2879.9
2881.02
2879.91
2881.14
2879.92
2881.26
2879.94
2881.37
2879.95
2881.47
2879.96
2881.56
2879.97
2881.64
2879.98
2881.71
2879.99
2881.77
2880
2881.82
2880
2881.87
2880.01
2881.91
2880.01
2881.94
2880.02
2881.97
2880.02
2881.99
2880.02
2882.01
2880.02
2882.02
2880.03
2882.04
2880.03
2882.05
2880.03
2882.06
2880.03
2882.06
2880.03
2882.07
2880.03
2882.08
2880.03
2882.08
2880.03
2882.09
2880.03
2882.09
2880.03
2882.09
2880.03
2882.09
2880.03
2882.09
2880.03
2882.09
2880.01
2872.11
2867.75
2865.24
2862.67
2859.84
2856.73
2853.76
2850.56
2847.4
2843.91
2840.42
2836.57
2832.67
2828.39
2824.04
2819.3
2814.46
2809.25
2803.91
2798.24
2792.42
2786.31
2780.05
2773.54
2766.89
2760.02
2753.03
2745.88
2738.62
2731.24
2723.78
2716.23
2708.63
2700.97
2693.26
2685.53
2677.78
2670.02
2662.29
2654.58
2646.94
2639.38
2631.93
2624.64
2617.52
2610.65
2604.05
2597.77
2591.91
2586.35
2581.46
2576.68
2572.27
2568.33
2564.18
2561.37
2555.54
2556.3
2544.4
2556.97
2548.22
2398.73
2407.15
2583.83
2712.01
2731.03
2730.95
2727.2
2759.62
2875.83
2946.68
2882.93
2746.6
2561.97
2405.36
2359.52
2396.18
2476.01
2559.85
2637.2
2703.6
2769.14
2816.28
2834.64
2826.12
2811.48
2864.6
2880.01
2872.11
2867.75
2865.24
2862.67
2859.84
2856.73
2853.76
2850.56
2847.4
2843.91
2840.42
2836.57
2832.67
2828.39
2824.04
2819.3
2814.46
2809.25
2803.91
2798.24
2792.42
2786.31
2780.05
2773.54
2766.89
2760.02
2753.03
2745.88
2738.62
2731.24
2723.78
2716.23
2708.63
2700.97
2693.26
2685.53
2677.78
2670.02
2662.29
2654.58
2646.94
2639.38
2631.93
2624.64
2617.52
2610.65
2604.05
2597.77
2591.91
2586.35
2581.46
2576.68
2572.27
2568.33
2564.18
2561.37
2555.54
2556.3
2544.4
2556.96
2548.22
2398.74
2407.16
2583.82
2711.99
2731.03
2730.95
2727.2
2759.63
2875.81
2946.65
2882.9
2746.59
2561.98
2405.37
2359.51
2396.16
2476
2559.85
2637.2
2703.61
2769.13
2816.25
2834.6
2826.14
2811.62
2862.92
2880.01
2872.11
2867.75
2865.24
2862.67
2859.84
2856.73
2853.76
2850.56
2847.4
2843.91
2840.42
2836.57
2832.67
2828.39
2824.04
2819.3
2814.46
2809.25
2803.91
2798.24
2792.42
2786.31
2780.05
2773.54
2766.89
2760.02
2753.03
2745.88
2738.62
2731.24
2723.78
2716.23
2708.63
2700.97
2693.26
2685.53
2677.78
2670.02
2662.29
2654.58
2646.94
2639.38
2631.93
2624.64
2617.52
2610.65
2604.05
2597.77
2591.91
2586.35
2581.46
2576.68
2572.27
2568.33
2564.18
2561.37
2555.54
2556.3
2544.4
2556.96
2548.22
2398.75
2407.15
2583.8
2711.98
2731.03
2730.95
2727.2
2759.62
2875.77
2946.6
2882.85
2746.55
2561.92
2405.27
2359.41
2396.11
2475.99
2559.85
2637.2
2703.6
2769.11
2816.2
2834.53
2826.13
2812.05
2861.12
2880.01
2872.11
2867.75
2865.24
2862.67
2859.84
2856.73
2853.76
2850.56
2847.4
2843.91
2840.42
2836.57
2832.67
2828.39
2824.04
2819.3
2814.46
2809.25
2803.91
2798.24
2792.42
2786.31
2780.05
2773.54
2766.89
2760.02
2753.03
2745.88
2738.62
2731.24
2723.78
2716.23
2708.63
2700.97
2693.26
2685.53
2677.78
2670.02
2662.29
2654.58
2646.94
2639.38
2631.93
2624.64
2617.52
2610.65
2604.05
2597.77
2591.91
2586.35
2581.46
2576.68
2572.27
2568.33
2564.18
2561.37
2555.54
2556.31
2544.4
2556.96
2548.22
2398.73
2407.12
2583.75
2711.97
2731.05
2730.95
2727.19
2759.61
2875.7
2946.5
2882.71
2746.4
2561.63
2404.87
2359.06
2396
2475.96
2559.84
2637.2
2703.6
2769.07
2816.11
2834.4
2826.03
2812.84
2857.96
2880
2872.11
2867.75
2865.24
2862.67
2859.84
2856.73
2853.76
2850.56
2847.4
2843.91
2840.42
2836.57
2832.67
2828.39
2824.04
2819.3
2814.46
2809.25
2803.91
2798.24
2792.42
2786.31
2780.05
2773.54
2766.89
2760.02
2753.03
2745.88
2738.62
2731.24
2723.78
2716.23
2708.63
2700.97
2693.26
2685.53
2677.78
2670.02
2662.29
2654.58
2646.94
2639.38
2631.93
2624.64
2617.52
2610.65
2604.05
2597.77
2591.91
2586.35
2581.46
2576.68
2572.27
2568.33
2564.18
2561.37
2555.54
2556.31
2544.4
2556.95
2548.22
2398.68
2407.04
2583.67
2711.97
2731.07
2730.95
2727.18
2759.59
2875.52
2946.22
2882.34
2745.92
2560.78
2403.75
2358.33
2395.84
2475.92
2559.83
2637.19
2703.59
2768.96
2815.91
2834.17
2825.74
2813.43
2852
2880
2872.11
2867.75
2865.24
2862.67
2859.84
2856.73
2853.76
2850.56
2847.4
2843.91
2840.42
2836.57
2832.67
2828.39
2824.04
2819.3
2814.46
2809.25
2803.91
2798.24
2792.42
2786.31
2780.05
2773.54
2766.89
2760.02
2753.03
2745.88
2738.62
2731.24
2723.78
2716.23
2708.63
2700.97
2693.26
2685.53
2677.78
2670.02
2662.29
2654.58
2646.94
2639.38
2631.93
2624.64
2617.52
2610.65
2604.05
2597.77
2591.91
2586.35
2581.46
2576.68
2572.27
2568.33
2564.18
2561.37
2555.54
2556.31
2544.4
2556.93
2548.22
2398.56
2406.89
2583.54
2711.97
2731.09
2730.94
2727.16
2759.52
2875.16
2945.61
2881.59
2744.97
2558.95
2401.35
2357.19
2395.62
2475.85
2559.8
2637.15
2703.5
2768.74
2815.55
2833.82
2825.13
2813.21
2844.44
2880
2872.12
2867.75
2865.24
2862.67
2859.84
2856.73
2853.76
2850.56
2847.4
2843.91
2840.42
2836.57
2832.67
2828.39
2824.04
2819.3
2814.46
2809.25
2803.91
2798.24
2792.42
2786.31
2780.05
2773.54
2766.89
2760.02
2753.03
2745.88
2738.62
2731.24
2723.78
2716.23
2708.63
2700.97
2693.26
2685.53
2677.78
2670.02
2662.29
2654.58
2646.94
2639.38
2631.93
2624.64
2617.52
2610.65
2604.05
2597.77
2591.91
2586.35
2581.46
2576.68
2572.27
2568.33
2564.18
2561.37
2555.54
2556.3
2544.4
2556.91
2548.2
2398.32
2406.65
2583.35
2711.95
2731.11
2730.91
2727.15
2759.39
2874.52
2944.49
2880.39
2743.46
2555.62
2397.49
2355.7
2395.3
2475.73
2559.74
2637.03
2703.27
2768.35
2814.92
2833.28
2824
2812.26
2837.08
2879.99
2872.12
2867.75
2865.24
2862.68
2859.84
2856.73
2853.76
2850.56
2847.4
2843.91
2840.42
2836.57
2832.67
2828.39
2824.04
2819.3
2814.46
2809.25
2803.91
2798.24
2792.42
2786.31
2780.05
2773.54
2766.89
2760.02
2753.03
2745.88
2738.62
2731.24
2723.78
2716.23
2708.63
2700.97
2693.26
2685.53
2677.78
2670.02
2662.29
2654.58
2646.94
2639.38
2631.93
2624.64
2617.52
2610.65
2604.05
2597.77
2591.91
2586.35
2581.46
2576.68
2572.27
2568.33
2564.18
2561.37
2555.54
2556.3
2544.4
2556.87
2548.17
2397.81
2406.32
2583.04
2711.9
2731.09
2730.88
2727.2
2759.2
2873.38
2942.91
2878.72
2741.18
2550.34
2392.32
2353.92
2394.84
2475.55
2559.59
2636.78
2702.89
2767.69
2813.84
2832.53
2822.35
2810.65
2828.52
2879.99
2872.12
2867.75
2865.24
2862.68
2859.84
2856.73
2853.76
2850.56
2847.4
2843.91
2840.42
2836.57
2832.67
2828.39
2824.04
2819.3
2814.46
2809.25
2803.91
2798.24
2792.42
2786.31
2780.05
2773.54
2766.89
2760.02
2753.03
2745.88
2738.62
2731.24
2723.78
2716.23
2708.63
2700.97
2693.26
2685.53
2677.78
2670.02
2662.29
2654.58
2646.94
2639.38
2631.93
2624.64
2617.52
2610.65
2604.05
2597.77
2591.91
2586.35
2581.46
2576.68
2572.27
2568.33
2564.18
2561.37
2555.54
2556.3
2544.4
2556.86
2548.15
2396.98
2405.88
2582.47
2711.78
2731.01
2730.82
2727.37
2759.07
2871.55
2941.08
2876.75
2737.82
2542.77
2386.05
2351.77
2394.12
2475.24
2559.31
2636.38
2702.28
2766.66
2812.17
2831.47
2820.39
2808.01
2817.34
2879.98
2872.13
2867.75
2865.24
2862.68
2859.84
2856.73
2853.76
2850.56
2847.4
2843.91
2840.42
2836.57
2832.67
2828.39
2824.04
2819.3
2814.46
2809.25
2803.91
2798.24
2792.42
2786.31
2780.05
2773.54
2766.89
2760.02
2753.03
2745.88
2738.62
2731.24
2723.78
2716.23
2708.63
2700.97
2693.26
2685.53
2677.78
2670.02
2662.29
2654.58
2646.94
2639.38
2631.93
2624.64
2617.52
2610.65
2604.05
2597.77
2591.91
2586.35
2581.46
2576.68
2572.27
2568.33
2564.18
2561.37
2555.54
2556.3
2544.41
2556.89
2548.15
2395.88
2405.49
2581.52
2711.51
2730.81
2730.71
2727.73
2759.12
2868.95
2939.6
2874.95
2732.77
2532.73
2378.83
2349.08
2392.98
2474.71
2558.83
2635.76
2701.4
2765.16
2809.83
2830.09
2818.33
2804.01
2804.89
2879.98
2872.14
2867.75
2865.24
2862.68
2859.84
2856.73
2853.76
2850.56
2847.4
2843.91
2840.42
2836.57
2832.67
2828.39
2824.04
2819.3
2814.46
2809.25
2803.91
2798.24
2792.42
2786.31
2780.05
2773.54
2766.89
2760.02
2753.03
2745.88
2738.62
2731.24
2723.78
2716.23
2708.63
2700.97
2693.26
2685.53
2677.78
2670.02
2662.29
2654.58
2646.94
2639.38
2631.93
2624.64
2617.52
2610.65
2604.04
2597.77
2591.91
2586.35
2581.46
2576.68
2572.27
2568.33
2564.17
2561.37
2555.54
2556.3
2544.42
2557
2548.19
2394.72
2405.31
2580.35
2710.92
2730.38
2730.51
2728.35
2759.4
2866.06
2938.56
2873.76
2725.24
2520.27
2370.65
2345.59
2391.17
2473.85
2558.07
2634.85
2700.23
2763.1
2806.95
2828.43
2816.14
2798.82
2792.88
2879.97
2872.15
2867.76
2865.24
2862.68
2859.84
2856.73
2853.76
2850.56
2847.4
2843.91
2840.42
2836.57
2832.67
2828.39
2824.04
2819.3
2814.46
2809.25
2803.91
2798.24
2792.42
2786.31
2780.05
2773.54
2766.89
2760.02
2753.03
2745.88
2738.62
2731.24
2723.78
2716.23
2708.63
2700.97
2693.26
2685.53
2677.78
2670.02
2662.29
2654.58
2646.94
2639.38
2631.93
2624.64
2617.52
2610.65
2604.04
2597.76
2591.91
2586.34
2581.45
2576.67
2572.26
2568.32
2564.17
2561.37
2555.53
2556.3
2544.42
2557.13
2548.28
2393.75
2405.18
2579.79
2709.84
2729.61
2730.16
2729.34
2759.99
2863.79
2937.67
2873.04
2714.57
2505.83
2361.41
2341.03
2388.41
2472.46
2556.89
2633.59
2698.79
2760.44
2803.9
2826.6
2813.68
2793.64
2783.95
2879.97
2872.16
2867.76
2865.25
2862.68
2859.84
2856.73
2853.76
2850.56
2847.4
2843.91
2840.42
2836.57
2832.67
2828.39
2824.04
2819.3
2814.46
2809.25
2803.91
2798.24
2792.42
2786.31
2780.05
2773.54
2766.89
2760.02
2753.03
2745.88
2738.62
2731.24
2723.78
2716.23
2708.63
2700.97
2693.26
2685.53
2677.78
2670.02
2662.29
2654.58
2646.94
2639.38
2631.93
2624.63
2617.52
2610.64
2604.04
2597.76
2591.9
2586.33
2581.44
2576.65
2572.24
2568.31
2564.15
2561.35
2555.52
2556.32
2544.39
2557.21
2548.34
2393.09
2404.46
2580.04
2708.04
2728.31
2729.6
2730.81
2761.12
2863.05
2936.53
2872.39
2700.3
2489.81
2350.99
2335.18
2384.35
2470.35
2555.21
2631.99
2697.21
2757.42
2801.21
2825.06
2810.66
2788.34
2781.04
2879.96
2872.17
2867.76
2865.25
2862.68
2859.84
2856.74
2853.76
2850.56
2847.4
2843.91
2840.42
2836.57
2832.67
2828.39
2824.04
2819.3
2814.46
2809.25
2803.91
2798.24
2792.42
2786.31
2780.05
2773.54
2766.89
2760.02
2753.03
2745.88
2738.62
2731.24
2723.78
2716.23
2708.63
2700.97
2693.26
2685.53
2677.78
2670.02
2662.28
2654.58
2646.94
2639.38
2631.93
2624.63
2617.52
2610.64
2604.03
2597.75
2591.88
2586.31
2581.41
2576.62
2572.21
2568.28
2564.12
2561.3
2555.51
2556.32
2544.32
2557.26
2548.05
2392.62
2401.13
2579.95
2705.04
2726.22
2728.7
2732.84
2763
2864.46
2934.57
2870.19
2682.71
2473.36
2339.69
2328
2378.78
2467.32
2553.05
2630.21
2695.8
2754.61
2799.81
2824.33
2809.29
2784.42
2782.67
2879.95
2872.19
2867.77
2865.25
2862.68
2859.84
2856.74
2853.76
2850.56
2847.4
2843.91
2840.42
2836.57
2832.67
2828.39
2824.04
2819.3
2814.46
2809.25
2803.91
2798.24
2792.42
2786.31
2780.05
2773.54
2766.89
2760.02
2753.03
2745.88
2738.62
2731.24
2723.78
2716.23
2708.63
2700.96
2693.26
2685.53
2677.78
2670.02
2662.28
2654.58
2646.93
2639.37
2631.92
2624.62
2617.51
2610.63
2604.01
2597.73
2591.86
2586.28
2581.36
2576.57
2572.14
2568.2
2564.03
2561.19
2555.46
2556.24
2544.2
2557.24
2546.99
2393.41
2396.39
2578.78
2700.36
2723.04
2727.3
2735.38
2765.83
2867.2
2932.03
2863.67
2662.84
2456.78
2327.2
2319.99
2372.09
2463.57
2550.73
2628.69
2695.05
2752.86
2800.8
2825.74
2812.31
2787.09
2793.15
2879.94
2872.21
2867.77
2865.25
2862.68
2859.84
2856.74
2853.76
2850.56
2847.4
2843.92
2840.42
2836.57
2832.67
2828.39
2824.04
2819.3
2814.46
2809.25
2803.91
2798.24
2792.42
2786.31
2780.05
2773.54
2766.89
2760.02
2753.03
2745.88
2738.62
2731.24
2723.78
2716.23
2708.63
2700.96
2693.26
2685.53
2677.77
2670.02
2662.28
2654.58
2646.93
2639.37
2631.92
2624.61
2617.49
2610.61
2603.99
2597.69
2591.81
2586.22
2581.28
2576.47
2572.02
2568.07
2563.87
2560.99
2555.32
2555.96
2544.14
2556.67
2544.29
2397.86
2398.7
2577.5
2693.87
2718.54
2725.29
2737.98
2769.65
2869.32
2928.56
2851.28
2640.51
2440.49
2316.35
2313.76
2365.47
2459.91
2548.95
2628.12
2695.63
2753.29
2804.7
2829.58
2819.43
2797.61
2809.49
2879.93
2872.23
2867.78
2865.26
2862.69
2859.84
2856.74
2853.76
2850.56
2847.4
2843.92
2840.42
2836.57
2832.67
2828.39
2824.04
2819.3
2814.46
2809.25
2803.91
2798.24
2792.42
2786.31
2780.05
2773.54
2766.89
2760.02
2753.03
2745.88
2738.62
2731.24
2723.78
2716.23
2708.63
2700.96
2693.26
2685.52
2677.77
2670.02
2662.28
2654.57
2646.92
2639.36
2631.91
2624.6
2617.47
2610.58
2603.95
2597.64
2591.74
2586.13
2581.16
2576.32
2571.83
2567.85
2563.6
2560.66
2555.04
2555.46
2544.14
2554.87
2541.1
2408.29
2410.29
2575.98
2685.51
2712.58
2722.42
2739.96
2773.47
2868.22
2921.82
2832.44
2616.28
2424.92
2309.23
2309.69
2361.17
2457.75
2548.89
2629.32
2698.17
2756.37
2810.98
2835.27
2829.1
2811.69
2827.8
2879.92
2872.26
2867.79
2865.26
2862.69
2859.85
2856.74
2853.77
2850.57
2847.41
2843.92
2840.42
2836.57
2832.67
2828.39
2824.04
2819.3
2814.46
2809.25
2803.91
2798.24
2792.42
2786.31
2780.05
2773.54
2766.89
2760.02
2753.03
2745.88
2738.62
2731.24
2723.78
2716.23
2708.63
2700.96
2693.26
2685.52
2677.77
2670.01
2662.27
2654.57
2646.92
2639.35
2631.89
2624.58
2617.45
2610.54
2603.9
2597.57
2591.65
2586.01
2580.99
2576.12
2571.57
2567.54
2563.21
2560.2
2554.61
2554.72
2544.13
2551.92
2538.58
2423.89
2428.21
2574.33
2675.66
2705.2
2718.48
2740.21
2775.63
2861.22
2908.32
2807.09
2590.08
2409.04
2303.45
2308.03
2363.25
2459.96
2551.8
2632.91
2702.72
2761.57
2816.45
2841.64
2840.11
2821.78
2839.68
2879.9
2872.29
2867.8
2865.27
2862.69
2859.85
2856.74
2853.77
2850.57
2847.41
2843.92
2840.42
2836.57
2832.67
2828.4
2824.04
2819.3
2814.46
2809.25
2803.91
2798.24
2792.42
2786.31
2780.05
2773.54
2766.89
2760.02
2753.03
2745.88
2738.62
2731.24
2723.78
2716.23
2708.63
2700.96
2693.26
2685.52
2677.77
2670.01
2662.27
2654.56
2646.91
2639.34
2631.87
2624.55
2617.41
2610.5
2603.84
2597.48
2591.53
2585.86
2580.77
2575.85
2571.23
2567.15
2562.71
2559.6
2554.04
2553.76
2544.03
2548.4
2536.83
2442.57
2449.16
2572.64
2664.71
2696.49
2713.07
2737.65
2773.61
2846.6
2884.78
2776.12
2565.32
2395.45
2304.27
2310.69
2370.97
2466.85
2558.02
2638.57
2708.14
2766.08
2818.27
2844.71
2849.31
2818.49
2823.43
2879.88
2872.33
2867.82
2865.27
2862.7
2859.85
2856.74
2853.77
2850.57
2847.41
2843.92
2840.43
2836.57
2832.67
2828.4
2824.04
2819.3
2814.46
2809.25
2803.91
2798.24
2792.42
2786.31
2780.05
2773.54
2766.89
2760.02
2753.03
2745.88
2738.62
2731.24
2723.78
2716.23
2708.63
2700.96
2693.26
2685.52
2677.76
2670.01
2662.26
2654.55
2646.89
2639.32
2631.85
2624.52
2617.37
2610.43
2603.76
2597.37
2591.38
2585.67
2580.49
2575.53
2570.8
2566.65
2562.09
2558.86
2553.35
2552.55
2543.76
2544.87
2535.62
2462.05
2470.55
2571.2
2653.02
2686.41
2705.6
2731.28
2765.26
2822.77
2849.66
2741.72
2548.64
2394.94
2319.95
2328.34
2389.64
2479.94
2566.9
2644.2
2711.05
2766.03
2813.58
2835.08
2841.52
2794.35
2770.11
2879.85
2872.38
2867.83
2865.28
2862.7
2859.86
2856.75
2853.77
2850.57
2847.41
2843.92
2840.43
2836.57
2832.67
2828.4
2824.04
2819.3
2814.46
2809.25
2803.91
2798.24
2792.42
2786.31
2780.05
2773.54
2766.89
2760.02
2753.03
2745.88
2738.62
2731.24
2723.78
2716.23
2708.62
2700.96
2693.25
2685.51
2677.76
2670
2662.25
2654.54
2646.88
2639.3
2631.82
2624.48
2617.31
2610.36
2603.66
2597.23
2591.19
2585.42
2580.15
2575.12
2570.28
2566.02
2561.34
2557.94
2552.5
2551.09
2543.29
2541.69
2534.78
2480.73
2490.78
2570.1
2640.83
2674.75
2695.36
2720.39
2749.56
2789.37
2804.17
2707.17
2544.71
2415.38
2356.2
2365.65
2420.84
2498.78
2575.82
2645.33
2705.94
2755.72
2796.33
2809
2804.51
2755.27
2692.22
2879.82
2872.43
2867.85
2865.29
2862.71
2859.86
2856.75
2853.77
2850.57
2847.41
2843.92
2840.43
2836.57
2832.68
2828.4
2824.04
2819.31
2814.46
2809.25
2803.91
2798.24
2792.42
2786.31
2780.05
2773.54
2766.89
2760.02
2753.03
2745.87
2738.62
2731.24
2723.78
2716.23
2708.62
2700.96
2693.25
2685.51
2677.75
2669.99
2662.24
2654.52
2646.85
2639.27
2631.78
2624.43
2617.24
2610.26
2603.52
2597.05
2590.95
2585.12
2579.73
2574.61
2569.63
2565.24
2560.43
2556.8
2551.47
2549.36
2542.55
2539
2534.2
2497.51
2508.69
2569.22
2628.2
2661.13
2681.72
2704.25
2727.17
2749.58
2753.23
2675.41
2552.91
2454.73
2410.02
2416.92
2459.09
2518.59
2579.72
2636.27
2685.8
2725.8
2755.81
2763.83
2750.11
2715.94
2641.53
2879.79
2872.5
2867.87
2865.3
2862.72
2859.87
2856.75
2853.78
2850.58
2847.41
2843.92
2840.43
2836.57
2832.68
2828.4
2824.04
2819.31
2814.46
2809.25
2803.91
2798.24
2792.42
2786.31
2780.05
2773.54
2766.89
2760.02
2753.03
2745.87
2738.62
2731.23
2723.77
2716.23
2708.62
2700.95
2693.24
2685.5
2677.74
2669.98
2662.22
2654.5
2646.83
2639.23
2631.73
2624.36
2617.14
2610.13
2603.35
2596.83
2590.64
2584.73
2579.2
2573.97
2568.83
2564.27
2559.32
2555.41
2550.19
2547.35
2541.47
2536.82
2533.82
2511.52
2523.25
2568
2615.07
2645.09
2664.17
2682.54
2698.48
2707.66
2702.54
2645.52
2561.52
2493.8
2461.17
2463.02
2489.54
2528.98
2571.1
2610.57
2644.17
2669.91
2685.17
2686.67
2668.18
2640.68
2577.87
2879.75
2872.57
2867.9
2865.31
2862.73
2859.87
2856.76
2853.78
2850.58
2847.42
2843.93
2840.43
2836.58
2832.68
2828.4
2824.04
2819.31
2814.46
2809.25
2803.91
2798.24
2792.42
2786.31
2780.05
2773.54
2766.88
2760.02
2753.03
2745.87
2738.61
2731.23
2723.77
2716.22
2708.62
2700.95
2693.24
2685.49
2677.73
2669.96
2662.2
2654.47
2646.79
2639.18
2631.66
2624.26
2617.02
2609.96
2603.13
2596.54
2590.25
2584.23
2578.54
2573.16
2567.84
2563.06
2557.94
2553.7
2548.57
2545.04
2539.94
2535.01
2533.41
2522.05
2533.57
2565.55
2601.1
2626.24
2642.32
2655.53
2664.24
2664.75
2653.7
2613.67
2558.5
2513.39
2489.53
2486.86
2499.88
2521.45
2544.98
2566.49
2582.6
2591.81
2590.58
2578.95
2550.01
2511.24
2447.77
2879.7
2872.65
2867.93
2865.32
2862.74
2859.88
2856.76
2853.78
2850.58
2847.42
2843.93
2840.43
2836.58
2832.68
2828.4
2824.05
2819.31
2814.46
2809.25
2803.91
2798.24
2792.42
2786.31
2780.05
2773.53
2766.88
2760.01
2753.03
2745.87
2738.61
2731.23
2723.77
2716.22
2708.61
2700.94
2693.23
2685.48
2677.72
2669.94
2662.18
2654.44
2646.74
2639.11
2631.57
2624.14
2616.86
2609.75
2602.85
2596.17
2589.76
2583.61
2577.72
2572.15
2566.6
2561.54
2556.25
2551.61
2546.51
2542.39
2537.86
2533.22
2532.55
2528.56
2538.93
2560.73
2585.62
2604.44
2616.22
2623.96
2626.38
2621.47
2607.72
2579.36
2543.44
2512.92
2494.12
2487.18
2489.01
2495.49
2502.52
2507.21
2506.9
2500.27
2484.77
2460.45
2423.79
2377.68
2318.38
2879.65
2872.75
2867.97
2865.34
2862.75
2859.89
2856.77
2853.79
2850.59
2847.42
2843.93
2840.44
2836.58
2832.68
2828.4
2824.05
2819.31
2814.46
2809.25
2803.91
2798.23
2792.42
2786.3
2780.05
2773.53
2766.88
2760.01
2753.02
2745.86
2738.61
2731.22
2723.76
2716.21
2708.6
2700.93
2693.22
2685.47
2677.69
2669.91
2662.14
2654.39
2646.68
2639.02
2631.45
2623.99
2616.65
2609.47
2602.48
2595.68
2589.12
2582.8
2576.69
2570.87
2565.07
2559.66
2554.13
2549.06
2543.88
2539.27
2535.02
2530.9
2530.57
2530.54
2538.72
2552.34
2567.8
2579.71
2586.46
2589.02
2586.68
2578.62
2564.53
2543.33
2518.58
2496.14
2479.13
2467.68
2460.18
2454.35
2447.82
2438.73
2425.44
2406.97
2382.2
2350.97
2312.54
2267.59
2216.04
2879.58
2872.85
2868.01
2865.35
2862.76
2859.89
2856.77
2853.79
2850.59
2847.43
2843.93
2840.44
2836.58
2832.68
2828.4
2824.05
2819.3
2814.46
2809.25
2803.91
2798.23
2792.42
2786.3
2780.05
2773.53
2766.88
2760
2753.02
2745.86
2738.6
2731.22
2723.76
2716.21
2708.6
2700.92
2693.2
2685.45
2677.67
2669.88
2662.09
2654.32
2646.59
2638.91
2631.3
2623.78
2616.38
2609.11
2602
2595.06
2588.32
2581.78
2575.4
2569.25
2563.14
2557.31
2551.47
2545.92
2540.5
2535.46
2531.15
2527.33
2526.64
2527.6
2532.62
2539.53
2546.99
2552.22
2553.82
2551.82
2545.9
2535.87
2521.93
2504.33
2484.77
2465.63
2448.23
2432.62
2418.01
2403.26
2387.19
2368.79
2347.26
2322.08
2292.93
2259.7
2222.51
2181.55
2137.39
2879.52
2872.95
2868.05
2865.37
2862.77
2859.9
2856.78
2853.8
2850.59
2847.43
2843.93
2840.44
2836.58
2832.69
2828.4
2824.05
2819.3
2814.47
2809.24
2803.91
2798.23
2792.42
2786.29
2780.05
2773.52
2766.87
2760
2753.02
2745.85
2738.6
2731.21
2723.75
2716.2
2708.58
2700.9
2693.18
2685.42
2677.64
2669.83
2662.03
2654.24
2646.48
2638.76
2631.1
2623.51
2616.02
2608.64
2601.38
2594.26
2587.29
2580.47
2573.77
2567.23
2560.73
2554.4
2548.12
2542.02
2536.15
2530.59
2525.81
2521.73
2519.84
2519.52
2520.63
2521.92
2522.82
2522.13
2518.95
2513
2504.15
2492.45
2478.15
2461.63
2443.65
2425.08
2406.44
2387.72
2368.62
2348.65
2327.35
2304.29
2279.2
2251.91
2222.43
2190.79
2157.22
2121.89
2085.29
2879.45
2873.06
2868.09
2865.38
2862.78
2859.91
2856.78
2853.8
2850.6
2847.43
2843.94
2840.45
2836.58
2832.69
2828.4
2824.05
2819.3
2814.47
2809.24
2803.91
2798.22
2792.42
2786.29
2780.04
2773.51
2766.87
2759.99
2753.01
2745.84
2738.6
2731.2
2723.75
2716.18
2708.57
2700.89
2693.16
2685.39
2677.59
2669.77
2661.95
2654.14
2646.34
2638.57
2630.84
2623.17
2615.56
2608.03
2600.59
2593.24
2585.98
2578.82
2571.72
2564.71
2557.72
2550.79
2543.92
2537.13
2530.56
2524.23
2518.49
2513.36
2509.45
2506.32
2503.18
2499.68
2495.28
2489.66
2482.3
2472.94
2461.5
2448.07
2432.83
2416.03
2397.99
2379.03
2359.36
2339.02
2317.92
2295.96
2273
2248.97
2223.83
2197.59
2170.35
2142.18
2113.28
2083.78
2053.99
2879.39
2873.16
2868.14
2865.39
2862.8
2859.92
2856.79
2853.81
2850.6
2847.44
2843.94
2840.45
2836.58
2832.69
2828.39
2824.06
2819.29
2814.47
2809.23
2803.92
2798.21
2792.42
2786.28
2780.05
2773.5
2766.88
2759.98
2753.02
2745.84
2738.6
2731.19
2723.74
2716.17
2708.56
2700.87
2693.14
2685.35
2677.54
2669.7
2661.86
2654
2646.15
2638.32
2630.5
2622.72
2614.97
2607.26
2599.58
2591.95
2584.35
2576.77
2569.18
2561.6
2553.97
2546.32
2538.66
2530.98
2523.39
2515.9
2508.67
2501.69
2495.05
2488.28
2480.88
2473.32
2464.69
2455.11
2444.3
2432.08
2418.41
2403.35
2387.02
2369.57
2351.15
2331.92
2311.99
2291.43
2270.27
2248.54
2226.25
2203.44
2180.17
2156.47
2132.45
2108.17
2083.74
2059.27
2034.91
2879.34
2873.23
2868.17
2865.4
2862.8
2859.93
2856.79
2853.82
2850.6
2847.45
2843.94
2840.46
2836.58
2832.7
2828.39
2824.07
2819.29
2814.48
2809.23
2803.93
2798.21
2792.44
2786.28
2780.06
2773.5
2766.89
2759.98
2753.03
2745.83
2738.61
2731.19
2723.75
2716.17
2708.56
2700.85
2693.12
2685.31
2677.5
2669.63
2661.75
2653.85
2645.95
2638.04
2630.13
2622.22
2614.31
2606.4
2598.48
2590.54
2582.56
2574.54
2566.43
2558.24
2549.93
2541.49
2532.92
2524.22
2515.42
2506.51
2497.52
2488.39
2478.97
2468.79
2457.9
2447.31
2435.68
2423.3
2410.04
2395.76
2380.46
2364.2
2347.05
2329.13
2310.54
2291.36
2271.7
2251.62
2231.18
2210.44
2189.47
2168.3
2147
2125.63
2104.24
2082.9
2061.63
2040.53
2019.69
2879.32
2873.26
2868.18
2865.41
2862.81
2859.94
2856.79
2853.82
2850.6
2847.45
2843.94
2840.47
2836.58
2832.71
2828.39
2824.08
2819.29
2814.5
2809.23
2803.95
2798.21
2792.46
2786.27
2780.08
2773.5
2766.91
2759.98
2753.05
2745.83
2738.62
2731.19
2723.76
2716.16
2708.57
2700.84
2693.11
2685.28
2677.45
2669.55
2661.65
2653.7
2645.75
2637.76
2629.77
2621.73
2613.67
2605.56
2597.4
2589.16
2580.83
2572.38
2563.78
2555
2546.02
2536.81
2527.35
2517.63
2507.62
2497.31
2486.62
2475.48
2463.65
2450.68
2437.14
2424.37
2410.63
2396.33
2381.37
2365.67
2349.24
2332.13
2314.42
2296.19
2277.52
2258.48
2239.15
2219.59
2199.87
2180.04
2160.15
2140.26
2120.41
2100.64
2080.99
2061.5
2042.19
2023.1
2004.31
2879.32
2873.27
2868.19
2865.41
2862.81
2859.94
2856.79
2853.83
2850.6
2847.46
2843.93
2840.48
2836.57
2832.72
2828.39
2824.09
2819.29
2814.52
2809.23
2803.97
2798.21
2792.48
2786.27
2780.11
2773.5
2766.93
2759.98
2753.07
2745.83
2738.65
2731.19
2723.79
2716.16
2708.58
2700.82
2693.11
2685.25
2677.42
2669.48
2661.56
2653.56
2645.56
2637.49
2629.41
2621.25
2613.05
2604.74
2596.36
2587.83
2579.16
2570.3
2561.22
2551.89
2542.26
2532.3
2521.98
2511.25
2500.08
2488.41
2476.13
2463.17
2449.26
2433.98
2418.36
2403.94
2388.64
2372.92
2356.72
2339.97
2322.7
2304.95
2286.81
2268.32
2249.57
2230.61
2211.51
2192.31
2173.08
2153.85
2134.68
2115.59
2096.63
2077.82
2059.18
2040.75
2022.52
2004.53
1986.85
2879.35
2873.23
2868.17
2865.41
2862.81
2859.94
2856.79
2853.83
2850.6
2847.47
2843.93
2840.49
2836.57
2832.74
2828.38
2824.11
2819.28
2814.54
2809.22
2803.99
2798.2
2792.51
2786.27
2780.14
2773.5
2766.97
2759.98
2753.11
2745.83
2738.68
2731.19
2723.82
2716.16
2708.6
2700.81
2693.11
2685.22
2677.39
2669.41
2661.48
2653.42
2645.39
2637.23
2629.07
2620.79
2612.45
2603.97
2595.37
2586.57
2577.59
2568.35
2558.82
2548.96
2538.73
2528.06
2516.93
2505.26
2493.01
2480.09
2466.39
2451.84
2436.17
2419.01
2401.76
2386.04
2369.54
2352.72
2335.55
2317.97
2300.01
2281.71
2263.16
2244.39
2225.48
2206.47
2187.41
2168.35
2149.32
2130.38
2111.54
2092.84
2074.31
2055.95
2037.79
2019.84
2002.12
1984.64
1967.45
2879.4
2873.17
2868.14
2865.4
2862.8
2859.94
2856.79
2853.84
2850.59
2847.47
2843.93
2840.5
2836.57
2832.75
2828.38
2824.13
2819.28
2814.56
2809.22
2804.02
2798.2
2792.54
2786.27
2780.18
2773.5
2767.01
2759.98
2753.15
2745.83
2738.73
2731.19
2723.86
2716.15
2708.64
2700.8
2693.13
2685.18
2677.38
2669.34
2661.42
2653.28
2645.23
2636.98
2628.77
2620.35
2611.91
2603.24
2594.46
2585.41
2576.15
2566.55
2556.63
2546.28
2535.5
2524.18
2512.3
2499.79
2486.55
2472.52
2457.59
2441.67
2424.53
2405.82
2387.25
2370.49
2353.01
2335.3
2317.32
2299.02
2280.44
2261.64
2242.66
2223.56
2204.39
2185.19
2166.01
2146.87
2127.83
2108.9
2090.1
2071.47
2053.02
2034.76
2016.71
1998.87
1981.25
1963.88
1946.8
2879.46
2873.08
2868.1
2865.39
2862.79
2859.93
2856.78
2853.84
2850.59
2847.48
2843.92
2840.51
2836.56
2832.77
2828.38
2824.15
2819.28
2814.59
2809.22
2804.06
2798.2
2792.58
2786.27
2780.22
2773.5
2767.06
2759.98
2753.2
2745.83
2738.78
2731.18
2723.91
2716.14
2708.69
2700.78
2693.17
2685.15
2677.39
2669.28
2661.38
2653.16
2645.11
2636.76
2628.53
2619.98
2611.47
2602.63
2593.73
2584.45
2574.99
2565.08
2554.86
2544.11
2532.89
2521.06
2508.59
2495.38
2481.37
2466.48
2450.58
2433.63
2415.39
2395.53
2375.97
2358.43
2340.19
2321.78
2303.15
2284.27
2265.17
2245.89
2226.5
2207.04
2187.56
2168.09
2148.68
2129.34
2110.12
2091.02
2072.09
2053.32
2034.74
2016.36
1998.19
1980.23
1962.5
1945
1927.79
2879.53
2872.98
2868.06
2865.38
2862.78
2859.93
2856.77
2853.84
2850.58
2847.49
2843.92
2840.52
2836.56
2832.79
2828.37
2824.17
2819.28
2814.62
2809.22
2804.09
2798.2
2792.62
2786.27
2780.26
2773.5
2767.1
2759.97
2753.25
2745.83
2738.83
2731.18
2723.96
2716.13
2708.73
2700.76
2693.21
2685.12
2677.41
2669.22
2661.37
2653.06
2645.04
2636.59
2628.36
2619.69
2611.17
2602.17
2593.21
2583.74
2574.16
2564.01
2553.59
2542.53
2531.03
2518.8
2505.92
2492.22
2477.66
2462.16
2445.6
2427.93
2408.94
2388.3
2368.04
2349.94
2331.16
2312.23
2293.12
2273.78
2254.25
2234.59
2214.85
2195.08
2175.31
2155.57
2135.91
2116.35
2096.91
2077.62
2058.48
2039.53
2020.77
2002.2
1983.85
1965.71
1947.79
1930.11
1912.71
2879.6
2872.88
2868.02
2865.36
2862.77
2859.92
2856.77
2853.84
2850.58
2847.49
2843.91
2840.53
2836.55
2832.8
2828.37
2824.19
2819.27
2814.64
2809.22
2804.12
2798.2
2792.65
2786.27
2780.3
2773.49
2767.14
2759.97
2753.3
2745.82
2738.88
2731.17
2724.01
2716.12
2708.78
2700.75
2693.25
2685.09
2677.44
2669.17
2661.37
2652.97
2645.01
2636.45
2628.26
2619.47
2610.96
2601.82
2592.85
2583.2
2573.57
2563.22
2552.7
2541.39
2529.71
2517.17
2504.03
2489.96
2475.02
2459.09
2442.06
2423.91
2404.39
2383.22
2362.47
2343.97
2324.78
2305.45
2285.96
2266.26
2246.4
2226.43
2206.39
2186.35
2166.32
2146.35
2126.47
2106.69
2087.05
2067.56
2048.23
2029.08
2010.13
1991.38
1972.84
1954.51
1936.4
1918.54
1900.95
2879.66
2872.79
2867.98
2865.35
2862.75
2859.91
2856.76
2853.84
2850.57
2847.5
2843.91
2840.53
2836.55
2832.81
2828.37
2824.2
2819.27
2814.65
2809.21
2804.14
2798.2
2792.67
2786.27
2780.33
2773.49
2767.18
2759.97
2753.33
2745.81
2738.92
2731.16
2724.05
2716.1
2708.82
2700.73
2693.28
2685.06
2677.47
2669.13
2661.38
2652.9
2644.99
2636.33
2628.19
2619.29
2610.82
2601.55
2592.6
2582.8
2573.17
2562.62
2552.07
2540.54
2528.79
2515.99
2502.71
2488.34
2473.15
2456.9
2439.55
2421.07
2401.2
2379.66
2358.57
2339.76
2320.26
2300.62
2280.83
2260.85
2240.72
2220.5
2200.22
2179.95
2159.71
2139.54
2119.47
2099.51
2079.7
2060.03
2040.53
2021.22
2002.1
1983.18
1964.47
1945.97
1927.7
1909.66
1891.91
2879.71
2872.7
2867.95
2865.34
2862.74
2859.91
2856.76
2853.84
2850.57
2847.5
2843.91
2840.54
2836.55
2832.81
2828.37
2824.21
2819.27
2814.67
2809.21
2804.15
2798.19
2792.69
2786.26
2780.35
2773.49
2767.2
2759.96
2753.36
2745.81
2738.95
2731.15
2724.08
2716.09
2708.85
2700.71
2693.31
2685.04
2677.49
2669.09
2661.39
2652.85
2644.98
2636.24
2628.15
2619.15
2610.73
2601.34
2592.43
2582.49
2572.89
2562.18
2551.64
2539.92
2528.15
2515.13
2501.78
2487.16
2471.84
2455.34
2437.78
2419.08
2398.96
2377.18
2355.84
2336.81
2317.07
2297.18
2277.16
2256.95
2236.6
2216.17
2195.7
2175.24
2154.82
2134.49
2114.26
2094.16
2074.2
2054.4
2034.76
2015.3
1996.04
1976.98
1958.12
1939.48
1921.06
1902.88
1884.99
2879.76
2872.62
2867.92
2865.33
2862.73
2859.9
2856.75
2853.84
2850.56
2847.5
2843.9
2840.54
2836.54
2832.82
2828.36
2824.22
2819.27
2814.68
2809.21
2804.17
2798.19
2792.71
2786.26
2780.37
2773.48
2767.22
2759.96
2753.38
2745.8
2738.97
2731.14
2724.11
2716.08
2708.88
2700.7