/*--------------------------------*- C++ -*----------------------------------*\
| =========                 |                                                 |
| \\      /  F ield         | OpenFOAM: The Open Source CFD Toolbox           |
|  \\    /   O peration     | Version:  2306                                  |
|   \\  /    A nd           | Website:  www.openfoam.com                      |
|    \\/     M anipulation  |                                                 |
\*---------------------------------------------------------------------------*/
FoamFile
{
    version     2.0;
    format      ascii;
    arch        "LSB;label=32;scalar=64";
    class       surfaceScalarField;
    location    "1800";
    object      phi;
}
// * * * * * * * * * * * * * * * * * * * * * * * * * * * * * * * * * * * * * //

dimensions      [0 3 -1 0 0 0 0];

oriented        oriented;

internalField   nonuniform List<scalar> 
40747
(
1.75308e-05
-2.6504e-06
7.49343e-06
1.00368e-05
2.11737e-05
-5.82329e-06
1.52906e-05
1.33747e-05
2.55094e-05
-9.55689e-06
2.31089e-05
1.76879e-05
3.06186e-05
-1.38332e-05
3.05591e-05
2.3163e-05
3.65641e-05
-1.85311e-05
3.71519e-05
2.99632e-05
4.33849e-05
-2.33674e-05
4.23335e-05
3.8191e-05
5.11086e-05
-2.78439e-05
4.55765e-05
4.78482e-05
5.98128e-05
-3.12461e-05
4.65438e-05
5.88214e-05
6.97752e-05
-3.27818e-05
4.53246e-05
7.09615e-05
8.17223e-05
-3.19554e-05
4.26541e-05
8.43488e-05
9.70208e-05
-2.91176e-05
3.98732e-05
9.9744e-05
0.000117379
-2.56973e-05
3.83095e-05
0.000118868
0.000143821
-2.33862e-05
3.82537e-05
0.000143785
0.000176044
-2.26519e-05
3.8735e-05
0.00017545
0.000213786
-2.25856e-05
3.87994e-05
0.000213583
0.000258509
-2.23934e-05
3.84236e-05
0.000258716
0.000312583
-2.20193e-05
3.78933e-05
0.000312907
0.000378128
-2.15562e-05
3.72645e-05
0.000378506
0.000457432
-2.09961e-05
3.64976e-05
0.000457893
0.000553365
-2.03167e-05
3.55675e-05
0.000553925
0.000669427
-1.95005e-05
3.44469e-05
0.000670099
0.000809841
-1.85305e-05
3.31027e-05
0.00081064
0.000979718
-1.73895e-05
3.14975e-05
0.000980663
0.00118524
-1.60623e-05
2.95898e-05
0.00118635
0.0014339
-1.45364e-05
2.73333e-05
0.00143519
0.00173474
-1.28042e-05
2.46771e-05
0.00173623
0.00209872
-1.08637e-05
2.15648e-05
0.00210042
0.00253908
-8.69059e-06
1.79891e-05
0.00254102
0.00307183
-6.23439e-06
1.40398e-05
0.00307405
0.00371636
-3.45414e-06
9.63833e-06
0.00371888
0.00356109
-1.13834e-06
5.25307e-06
0.0035634
0.00356117
1.02675e-06
8.32157e-07
0.00356343
0.00356117
3.18453e-06
-3.59473e-06
0.00356342
0.00356107
5.50278e-06
-7.91426e-06
0.00356337
0.00360359
8.12159e-06
-1.22169e-05
0.00360603
0.00299759
1.03705e-05
-1.61581e-05
0.00299974
0.00249348
1.23365e-05
-1.97098e-05
0.00249538
0.00207415
1.40671e-05
-2.2865e-05
0.00207583
0.00172535
1.55899e-05
-2.56335e-05
0.00172682
0.00143522
1.69232e-05
-2.80373e-05
0.0014365
0.00119389
1.80824e-05
-3.01059e-05
0.00119499
0.000993146
1.90818e-05
-3.18723e-05
0.000994094
0.000826165
1.99355e-05
-3.33703e-05
0.000826973
0.000687267
2.06578e-05
-3.46341e-05
0.000687951
0.000571728
2.12629e-05
-3.56959e-05
0.000572303
0.000475619
2.17642e-05
-3.65815e-05
0.000476097
0.000395669
2.21768e-05
-3.73118e-05
0.00039606
0.000329154
2.25214e-05
-3.79224e-05
0.000329482
0.000273869
2.27606e-05
-3.84327e-05
0.000274146
0.000227989
2.28021e-05
-3.86759e-05
0.000228039
0.000189519
2.29814e-05
-3.84103e-05
0.000189093
0.00015654
2.42507e-05
-3.80387e-05
0.000156035
0.0001285
2.70326e-05
-3.86274e-05
0.000128978
0.000105914
3.03324e-05
-4.06912e-05
0.000107889
8.86517e-05
3.25376e-05
-4.35306e-05
9.14203e-05
7.54805e-05
3.26432e-05
-4.58341e-05
7.77286e-05
6.49187e-05
3.06067e-05
-4.65153e-05
6.55571e-05
5.59249e-05
2.69955e-05
-4.50725e-05
5.44492e-05
4.7983e-05
2.2534e-05
-4.15338e-05
4.44196e-05
4.09045e-05
1.78363e-05
-3.62541e-05
3.56067e-05
3.46377e-05
1.33201e-05
-2.97241e-05
2.80948e-05
2.91593e-05
9.2193e-06
-2.24426e-05
2.18683e-05
2.44336e-05
5.63148e-06
-1.48475e-05
1.68299e-05
2.0404e-05
2.57032e-06
-7.28203e-06
1.28341e-05
1.69994e-05
9.71736e-06
7.13905e-07
9.3217e-06
3.60492e-07
3.52519e-07
2.86902e-07
7.27223e-08
2.49479e-07
3.68401e-08
2.25695e-07
2.32146e-08
2.08664e-07
1.66599e-08
1.95411e-07
1.27708e-08
1.84829e-07
1.0291e-08
1.7616e-07
8.19515e-09
1.69014e-07
6.90112e-09
1.6295e-07
5.62887e-09
1.57823e-07
4.94651e-09
1.53379e-07
4.08372e-09
1.49587e-07
3.70019e-09
1.46261e-07
3.07441e-09
1.4342e-07
2.86013e-09
1.40918e-07
2.39306e-09
1.38794e-07
2.27835e-09
1.36926e-07
1.93236e-09
1.35356e-07
1.87895e-09
1.33984e-07
1.62947e-09
1.32848e-07
1.61283e-09
1.31869e-07
1.44056e-09
1.31075e-07
1.44648e-09
1.30404e-07
1.33662e-09
1.29873e-07
1.35621e-09
1.29434e-07
1.29187e-09
1.29095e-07
1.31228e-09
1.28825e-07
1.26909e-09
1.28629e-07
1.27414e-09
1.28488e-07
1.23358e-09
1.28406e-07
1.22211e-09
1.2837e-07
1.19245e-09
1.28374e-07
1.18951e-09
1.284e-07
1.2005e-09
1.28429e-07
1.23966e-09
1.28435e-07
1.31562e-09
1.28386e-07
1.41833e-09
1.2825e-07
1.57036e-09
1.27985e-07
1.75147e-09
1.27545e-07
1.9947e-09
1.2687e-07
2.28105e-09
1.25897e-07
2.64764e-09
1.24537e-07
3.08289e-09
1.22699e-07
3.62533e-09
1.2026e-07
4.27134e-09
1.17119e-07
5.03527e-09
1.13022e-07
6.03511e-09
1.08101e-07
6.92116e-09
1.01716e-07
8.42948e-09
9.43449e-08
9.48399e-09
8.60921e-08
1.05229e-08
4.03371e-08
4.81189e-08
3.24997e-08
1.07207e-08
3.1018e-08
4.62117e-09
2.47193e-08
1.02586e-08
3.6211e-08
-6.98124e-09
9.34061e-09
2.88718e-08
-1.67961e-08
3.22967e-08
-1.23646e-08
-1.08998e-08
2.87399e-07
-2.8911e-07
2.94146e-07
-1.84015e-08
-7.19615e-07
1.03175e-06
-1.2114e-06
4.86758e-07
-8.61065e-07
-3.15088e-07
-3.07555e-07
-5.44456e-07
-1.38782e-07
-1.34145e-07
-2.8223e-07
1.68348e-07
-5.67264e-07
3.29658e-07
-5.85032e-07
6.12019e-08
1.92509e-07
-7.36216e-07
1.40771e-06
-1.1849e-06
2.37782e-06
-9.62672e-07
2.70771e-06
-3.4349e-07
1.71993e-06
9.73888e-07
-1.77297e-07
1.83717e-06
-1.2036e-06
1.05243e-06
-1.3434e-06
1.44193e-07
-1.28166e-06
1.26462e-08
-1.17314e-06
-4.42263e-08
-1.02996e-06
-5.60399e-08
-8.51474e-07
-8.41008e-08
-5.6218e-07
-2.15585e-07
4.80332e-10
-4.94966e-07
5.20473e-07
-4.68397e-07
4.95863e-07
3.80141e-08
5.87742e-07
-6.94259e-08
5.22526e-07
7.41123e-08
2.61507e-06
2.00779e-05
1.40039e-06
1.56453e-06
1.11388e-06
3.56631e-07
9.68678e-07
1.80293e-07
8.76188e-07
1.13968e-07
8.10166e-07
8.15561e-08
7.58756e-07
6.26911e-08
7.17858e-07
5.02978e-08
6.84258e-07
4.03349e-08
6.56688e-07
3.37241e-08
6.33198e-07
2.77872e-08
6.13459e-07
2.41456e-08
5.96253e-07
2.01954e-08
5.81667e-07
1.80236e-08
5.68796e-07
1.51959e-08
5.57859e-07
1.38841e-08
5.48171e-07
1.17803e-08
5.3996e-07
1.09963e-08
5.32711e-07
9.42106e-09
5.266e-07
8.97793e-09
5.21254e-07
7.81476e-09
5.16788e-07
7.5895e-09
5.12941e-07
6.75636e-09
5.09767e-07
6.67279e-09
5.07089e-07
6.11139e-09
5.04907e-07
6.11996e-09
5.031e-07
5.76481e-09
5.01639e-07
5.80414e-09
5.00456e-07
5.55767e-09
4.99515e-07
5.55442e-09
4.98795e-07
5.33947e-09
4.98261e-07
5.28162e-09
4.97906e-07
5.12822e-09
4.97674e-07
5.11252e-09
4.97533e-07
5.14095e-09
4.97393e-07
5.30646e-09
4.9718e-07
5.6222e-09
4.96771e-07
6.0677e-09
4.96053e-07
6.72877e-09
4.94869e-07
7.53228e-09
4.93052e-07
8.61748e-09
4.90383e-07
9.91247e-09
4.86623e-07
1.1576e-08
4.81441e-07
1.35806e-08
4.74513e-07
1.60656e-08
4.65335e-07
1.90977e-08
4.53576e-07
2.26328e-08
4.38242e-07
2.73415e-08
4.19811e-07
3.15159e-08
3.9559e-07
3.89553e-08
3.6882e-07
4.27788e-08
3.35496e-07
5.09573e-08
2.6683e-07
1.24262e-07
2.29157e-07
5.83244e-08
1.99797e-07
4.4047e-08
1.65073e-07
5.81166e-08
1.65224e-07
7.31104e-09
9.06247e-08
1.07974e-07
-3.61709e-09
1.47739e-07
7.6374e-09
-4.36546e-08
8.05871e-07
-1.05397e-06
1.03673e-06
-2.82652e-07
-2.09448e-06
4.21908e-06
-3.73098e-06
2.112e-06
-3.05236e-06
-9.10754e-07
-1.05654e-06
-2.5151e-06
-3.66978e-07
-7.28102e-07
-8.01583e-07
6.76575e-07
-1.33376e-06
9.82859e-07
-1.59394e-06
4.37505e-07
2.46131e-07
-2.48061e-06
4.29027e-06
-5.17327e-06
7.57262e-06
-4.23665e-06
8.95814e-06
-1.75845e-06
7.68031e-06
2.22396e-06
1.87807e-06
7.48029e-06
-2.91971e-06
5.92449e-06
-4.13389e-06
1.37884e-06
-4.19414e-06
2.30267e-07
-3.945e-06
-1.49922e-07
-3.36719e-06
-4.49624e-07
-2.62671e-06
-6.22215e-07
-1.94786e-06
-7.33282e-07
-1.2935e-07
-2.16561e-06
1.59578e-06
-2.08648e-06
2.20389e-06
-5.49219e-07
1.72236e-06
4.45984e-07
-1.1911e-06
3.46115e-06
5.48639e-06
3.22734e-05
3.10375e-06
3.94253e-06
2.46754e-06
9.88269e-07
2.1458e-06
4.98949e-07
1.94064e-06
3.16035e-07
1.79409e-06
2.26092e-07
1.68018e-06
1.73924e-07
1.58941e-06
1.39467e-07
1.51489e-06
1.12234e-07
1.45355e-06
9.37334e-08
1.40136e-06
7.75965e-08
1.35731e-06
6.72401e-08
1.31897e-06
5.65781e-08
1.28628e-06
5.02605e-08
1.25749e-06
4.26676e-08
1.23283e-06
3.87169e-08
1.21102e-06
3.30777e-08
1.19237e-06
3.05878e-08
1.17591e-06
2.63522e-08
1.16187e-06
2.48177e-08
1.14957e-06
2.16631e-08
1.13915e-06
2.07543e-08
1.13012e-06
1.84598e-08
1.12254e-06
1.79705e-08
1.11606e-06
1.6383e-08
1.11065e-06
1.61794e-08
1.10609e-06
1.51355e-08
1.10227e-06
1.50608e-08
1.09908e-06
1.4322e-08
1.09642e-06
1.41908e-08
1.09424e-06
1.35648e-08
1.09248e-06
1.33386e-08
1.0911e-06
1.2892e-08
1.08999e-06
1.28005e-08
1.08908e-06
1.28266e-08
1.08816e-06
1.32135e-08
1.08708e-06
1.39817e-08
1.08557e-06
1.51029e-08
1.0834e-06
1.67747e-08
1.08024e-06
1.88419e-08
1.07573e-06
2.16349e-08
1.0694e-06
2.50058e-08
1.06076e-06
2.93354e-08
1.04912e-06
3.45938e-08
1.03377e-06
4.11165e-08
1.01368e-06
4.91241e-08
9.88136e-07
5.84518e-08
9.54983e-07
7.09993e-08
9.15319e-07
8.20267e-08
8.63329e-07
1.02054e-07
8.05414e-07
1.12218e-07
7.34218e-07
1.34836e-07
6.26793e-07
2.45119e-07
5.44513e-07
1.58626e-07
4.70779e-07
1.36113e-07
3.96533e-07
1.55871e-07
3.68205e-07
6.20762e-08
2.5192e-07
2.30604e-07
3.11715e-08
4.07952e-07
-2.49758e-08
-2.71708e-08
1.67137e-06
-2.69241e-06
1.75814e-06
-4.24629e-07
-4.43829e-06
1.05222e-05
-6.7826e-06
4.44106e-06
-5.00738e-06
-2.58375e-06
-1.8725e-06
-5.61438e-06
-8.19468e-07
-1.64258e-06
-1.79162e-06
1.75614e-06
-2.73277e-06
2.0859e-06
-2.27877e-06
1.55644e-07
2.07288e-06
-6.71671e-06
8.83301e-06
-1.18793e-05
1.4517e-05
-9.91608e-06
1.70571e-05
-4.33482e-06
1.34506e-05
5.79702e-06
1.4283e-06
1.9374e-05
-6.86487e-06
1.42953e-05
-7.51155e-06
2.05477e-06
-7.24731e-06
1.41025e-07
-6.64261e-06
-5.8896e-07
-5.57112e-06
-1.31213e-06
-4.1665e-06
-1.78973e-06
-2.78691e-06
-1.90468e-06
4.40477e-07
-5.20214e-06
3.55319e-06
-5.08536e-06
3.89575e-06
-8.73557e-07
4.38862e-06
-2.50697e-08
-2.33009e-06
5.55686e-06
9.67385e-06
4.57528e-05
5.80712e-06
7.80149e-06
4.6201e-06
2.16752e-06
4.01818e-06
1.09559e-06
3.63381e-06
6.95051e-07
3.35921e-06
4.97214e-07
3.14604e-06
3.82425e-07
2.97611e-06
3.0662e-07
2.83656e-06
2.47219e-07
2.72151e-06
2.06465e-07
2.62361e-06
1.71345e-07
2.54084e-06
1.48364e-07
2.46878e-06
1.2525e-07
2.40716e-06
1.11105e-07
2.35285e-06
9.46974e-08
2.30618e-06
8.57253e-08
2.26483e-06
7.35647e-08
2.2293e-06
6.77873e-08
2.19784e-06
5.86504e-08
2.17086e-06
5.49692e-08
2.1471e-06
4.81438e-08
2.1268e-06
4.58474e-08
2.10908e-06
4.08506e-08
2.09402e-06
3.94927e-08
2.081e-06
3.59912e-08
2.06996e-06
3.52809e-08
2.06047e-06
3.29299e-08
2.05238e-06
3.25393e-08
2.04543e-06
3.08523e-08
2.03948e-06
3.04042e-08
2.03442e-06
2.89935e-08
2.03011e-06
2.84076e-08
2.0265e-06
2.74039e-08
2.02337e-06
2.71379e-08
2.02057e-06
2.71281e-08
2.01777e-06
2.7873e-08
2.01467e-06
2.94049e-08
2.01081e-06
3.16856e-08
2.00576e-06
3.51001e-08
1.99893e-06
3.9361e-08
1.98971e-06
4.5119e-08
1.97728e-06
5.2109e-08
1.96076e-06
6.10868e-08
1.93893e-06
7.20338e-08
1.91057e-06
8.56269e-08
1.87382e-06
1.02384e-07
1.82744e-06
1.21872e-07
1.76751e-06
1.48366e-07
1.69605e-06
1.715e-07
1.6027e-06
2.13893e-07
1.49798e-06
2.3618e-07
1.36968e-06
2.84512e-07
1.20339e-06
4.34238e-07
1.05174e-06
3.41271e-07
9.09309e-07
3.10285e-07
7.71686e-07
3.33974e-07
6.99151e-07
1.81002e-07
5.03966e-07
4.34783e-07
1.19954e-07
8.64412e-07
-9.70289e-08
1.19077e-07
2.7283e-06
-5.42282e-06
2.63599e-06
-4.18982e-07
-7.21227e-06
2.05791e-05
-9.83143e-06
7.04437e-06
-6.7173e-06
-5.56872e-06
-2.66011e-06
-9.62213e-06
-1.36371e-06
-2.74693e-06
-2.99957e-06
3.53155e-06
-4.01395e-06
3.33314e-06
-2.07683e-06
-1.53082e-06
5.37086e-06
-1.40312e-05
1.4811e-05
-2.12695e-05
2.28505e-05
-1.79552e-05
2.48435e-05
-6.37759e-06
1.32062e-05
1.74036e-05
-4.75949e-06
3.72836e-05
-1.12186e-05
2.08314e-05
-1.09684e-05
1.84308e-06
-1.03527e-05
-2.69911e-07
-9.27906e-06
-1.46472e-06
-7.54473e-06
-2.79563e-06
-5.29702e-06
-3.73326e-06
-3.02617e-06
-3.85998e-06
1.6936e-06
-9.67266e-06
6.04316e-06
-9.32024e-06
6.54277e-06
-1.35602e-06
7.26708e-06
-7.322e-07
-2.2923e-06
7.26003e-06
1.55895e-05
6.01113e-05
9.97869e-06
1.34e-05
7.96827e-06
4.16539e-06
6.93363e-06
2.1216e-06
6.27125e-06
1.34859e-06
5.79779e-06
9.64924e-07
5.43062e-06
7.41794e-07
5.13788e-06
5.9473e-07
4.8973e-06
4.80161e-07
4.69875e-06
4.01153e-07
4.52969e-06
3.33474e-07
4.38657e-06
2.88731e-07
4.26186e-06
2.44318e-07
4.15504e-06
2.16668e-07
4.06072e-06
1.85231e-07
3.97947e-06
1.67576e-07
3.90731e-06
1.44336e-07
3.84506e-06
1.32848e-07
3.78976e-06
1.15407e-07
3.74207e-06
1.07962e-07
3.69986e-06
9.49237e-08
3.66352e-06
9.01549e-08
3.63155e-06
8.05801e-08
3.6041e-06
7.76279e-08
3.58011e-06
7.08639e-08
3.55948e-06
6.91626e-08
3.54148e-06
6.45485e-08
3.52587e-06
6.34842e-08
3.51219e-06
6.01275e-08
3.50022e-06
5.90238e-08
3.48974e-06
5.62343e-08
3.48053e-06
5.49606e-08
3.47246e-06
5.29802e-08
3.46519e-06
5.23586e-08
3.45845e-06
5.22319e-08
3.45169e-06
5.34926e-08
3.44443e-06
5.61933e-08
3.43593e-06
6.02771e-08
3.4255e-06
6.64226e-08
3.41218e-06
7.41395e-08
3.39501e-06
8.45744e-08
3.37266e-06
9.72917e-08
3.34374e-06
1.13631e-07
3.30631e-06
1.33608e-07
3.2584e-06
1.58443e-07
3.19699e-06
1.892e-07
3.12021e-06
2.24856e-07
3.02138e-06
2.73969e-07
2.90395e-06
3.16624e-07
2.75123e-06
3.95093e-07
2.57843e-06
4.38748e-07
2.36727e-06
5.29101e-07
2.11477e-06
7.22781e-07
1.85864e-06
6.47128e-07
1.6142e-06
6.06188e-07
1.37851e-06
6.35329e-07
1.23517e-06
4.01426e-07
9.0443e-07
7.77162e-07
3.36226e-07
1.56166e-06
-1.84195e-07
5.16331e-07
3.98971e-06
-9.45054e-06
3.81682e-06
-3.71931e-07
-9.96942e-06
3.46381e-05
-1.2353e-05
9.41426e-06
-7.80858e-06
-9.9318e-06
-3.17075e-06
-1.41799e-05
-1.76289e-06
-3.81298e-06
-3.99243e-06
6.04827e-06
-4.52722e-06
4.38291e-06
-1.56007e-07
-5.58112e-06
1.09172e-05
-2.49895e-05
2.31128e-05
-3.34244e-05
3.28097e-05
-2.76533e-05
2.93895e-05
-3.01051e-06
7.19926e-06
3.95739e-05
-1.13965e-05
5.58346e-05
-1.47975e-05
2.43225e-05
-1.43201e-05
1.41602e-06
-1.32246e-05
-1.1159e-06
-1.15706e-05
-2.87274e-06
-9.07421e-06
-4.96561e-06
-5.84523e-06
-6.5357e-06
-2.34109e-06
-6.94052e-06
4.01661e-06
-1.58024e-05
9.11628e-06
-1.43149e-05
1.01718e-05
-2.39414e-06
1.09882e-05
-1.53195e-06
-2.75703e-07
8.99253e-06
2.36764e-05
7.46039e-05
1.62299e-05
2.08282e-05
1.30743e-05
7.30209e-06
1.13937e-05
3.78902e-06
1.03109e-05
2.4177e-06
9.53538e-06
1.73146e-06
8.93424e-06
1.33069e-06
8.4547e-06
1.06701e-06
8.06014e-06
8.62695e-07
7.73407e-06
7.21159e-07
7.45612e-06
6.00505e-07
7.22055e-06
5.20008e-07
7.01496e-06
4.41053e-07
6.83854e-06
3.91151e-07
6.68244e-06
3.35438e-07
6.54761e-06
3.034e-07
6.4275e-06
2.62345e-07
6.32349e-06
2.4132e-07
6.23068e-06
2.10568e-07
6.15023e-06
1.96741e-07
6.07857e-06
1.73756e-07
6.01643e-06
1.64695e-07
5.96131e-06
1.47773e-07
5.91349e-06
1.41944e-07
5.87122e-06
1.29896e-07
5.83439e-06
1.2628e-07
5.80179e-06
1.17927e-07
5.77308e-06
1.15461e-07
5.74749e-06
1.09289e-07
5.72468e-06
1.06866e-07
5.70427e-06
1.01755e-07
5.68588e-06
9.91952e-08
5.66928e-06
9.55667e-08
5.65392e-06
9.4235e-08
5.63938e-06
9.3796e-08
5.62479e-06
9.56961e-08
5.60943e-06
1.00025e-07
5.59217e-06
1.06695e-07
5.57194e-06
1.16809e-07
5.54734e-06
1.29594e-07
5.51689e-06
1.46903e-07
5.47864e-06
1.68084e-07
5.43048e-06
1.95311e-07
5.36952e-06
2.28695e-07
5.29281e-06
2.7024e-07
5.1957e-06
3.21999e-07
5.07557e-06
3.81706e-07
4.92177e-06
4.65266e-07
4.73965e-06
5.37518e-07
4.50428e-06
6.70418e-07
4.23505e-06
7.49921e-07
3.90744e-06
9.04304e-07
3.53087e-06
1.1512e-06
3.12189e-06
1.12894e-06
2.72963e-06
1.07477e-06
2.34693e-06
1.11587e-06
2.08793e-06
7.78919e-07
1.54414e-06
1.33338e-06
8.09481e-07
2.50844e-06
-1.41385e-07
1.26511e-06
5.53848e-06
-1.49182e-05
4.96405e-06
4.27491e-08
-1.31655e-05
5.2995e-05
-1.41054e-05
1.03428e-05
-8.09487e-06
-1.56576e-05
-2.98475e-06
-1.91294e-05
-1.35867e-06
-4.6511e-06
-3.6944e-06
9.21223e-06
-2.76148e-06
4.25488e-06
4.38066e-06
-1.2411e-05
1.92425e-05
-3.97714e-05
3.40312e-05
-4.8182e-05
4.30062e-05
-3.66279e-05
2.90058e-05
1.09463e-05
-1.51111e-06
7.00724e-05
-1.69021e-05
7.11782e-05
-1.77655e-05
2.53011e-05
-1.74541e-05
1.17116e-06
-1.57414e-05
-2.51127e-06
-1.34145e-05
-4.87413e-06
-1.01482e-05
-7.77695e-06
-5.69409e-06
-1.04203e-05
-2.00415e-07
-1.20444e-05
7.67568e-06
-2.3525e-05
1.29041e-05
-1.94538e-05
1.45171e-05
-3.98714e-06
1.60431e-05
-3.03868e-06
5.79594e-06
9.97645e-06
3.4322e-05
8.80996e-05
2.52789e-05
2.98465e-05
2.06923e-05
1.18624e-05
1.80986e-05
6.36416e-06
1.64018e-05
4.09492e-06
1.51801e-05
2.94029e-06
1.42319e-05
2.26118e-06
1.34742e-05
1.81414e-06
1.28496e-05
1.46984e-06
1.23322e-05
1.22972e-06
1.18905e-05
1.02637e-06
1.15154e-05
8.88918e-07
1.11874e-05
7.56232e-07
1.09052e-05
6.70583e-07
1.06549e-05
5.77295e-07
1.0438e-05
5.21867e-07
1.0244e-05
4.53378e-07
1.00753e-05
4.16567e-07
9.924e-06
3.65379e-07
9.79206e-06
3.40719e-07
9.67371e-06
3.02452e-07
9.5703e-06
2.85851e-07
9.4777e-06
2.57582e-07
9.39656e-06
2.46457e-07
9.32397e-06
2.26138e-07
9.25996e-06
2.18762e-07
9.20249e-06
2.04416e-07
9.15119e-06
1.99065e-07
9.10478e-06
1.88294e-07
9.06278e-06
1.83271e-07
9.02449e-06
1.74383e-07
8.98938e-06
1.69472e-07
8.957e-06
1.63157e-07
8.92651e-06
1.60463e-07
8.89724e-06
1.59322e-07
8.86792e-06
1.61882e-07
8.83748e-06
1.68303e-07
8.80426e-06
1.78459e-07
8.76675e-06
1.94007e-07
8.72291e-06
2.13844e-07
8.67065e-06
2.40725e-07
8.60717e-06
2.73793e-07
8.52949e-06
3.16308e-07
8.43349e-06
3.68623e-07
8.31496e-06
4.33763e-07
8.16708e-06
5.15513e-07
7.9864e-06
6.09223e-07
7.75669e-06
7.42718e-07
7.48567e-06
8.57854e-07
7.13812e-06
1.06882e-06
6.73565e-06
1.20594e-06
6.24867e-06
1.45253e-06
5.69587e-06
1.7713e-06
5.06897e-06
1.85198e-06
4.46541e-06
1.78025e-06
3.86784e-06
1.84497e-06
3.41695e-06
1.39464e-06
2.57334e-06
2.18697e-06
1.75014e-06
3.63586e-06
3.54729e-07
2.36813e-06
7.5626e-06
-2.1827e-05
6.2e-06
1.16103e-06
-1.56473e-05
7.51034e-05
-1.50985e-05
9.78284e-06
-7.66011e-06
-2.27224e-05
-1.67706e-06
-2.48954e-05
8.30256e-07
-6.12385e-06
-1.1328e-06
1.20958e-05
9.58765e-07
2.85431e-06
1.11718e-05
-2.23913e-05
2.77335e-05
-5.62654e-05
4.47952e-05
-6.52143e-05
4.95589e-05
-4.1393e-05
2.29469e-05
3.75187e-05
-1.0462e-05
0.000103462
-2.07697e-05
8.14303e-05
-2.07147e-05
2.54012e-05
-2.03979e-05
9.46731e-07
-1.80384e-05
-4.45241e-06
-1.48963e-05
-7.57679e-06
-1.07324e-05
-1.13724e-05
-4.77064e-06
-1.57791e-05
2.42891e-06
-1.89457e-05
1.14663e-05
-3.24314e-05
1.67869e-05
-2.46901e-05
1.87766e-05
-5.95088e-06
2.13707e-05
-5.61017e-06
1.6147e-05
1.1016e-05
4.77111e-05
9.91697e-05
3.78156e-05
3.97099e-05
3.17294e-05
1.7915e-05
2.79658e-05
1.01038e-05
2.54246e-05
6.61051e-06
2.35719e-05
4.77614e-06
2.21267e-05
3.68288e-06
2.09672e-05
2.95966e-06
2.00079e-05
2.40592e-06
1.92103e-05
2.01567e-06
1.85275e-05
1.68811e-06
1.79458e-05
1.46244e-06
1.74359e-05
1.24923e-06
1.69955e-05
1.10738e-06
1.66037e-05
9.58041e-07
1.62626e-05
8.6512e-07
1.59564e-05
7.55894e-07
1.56885e-05
6.93155e-07
1.54469e-05
6.11673e-07
1.52348e-05
5.68659e-07
1.50432e-05
5.07683e-07
1.48744e-05
4.77833e-07
1.47218e-05
4.32563e-07
1.45867e-05
4.11738e-07
1.44644e-05
3.7882e-07
1.43554e-05
3.64239e-07
1.42563e-05
3.40545e-07
1.41667e-05
3.29542e-07
1.40847e-05
3.11488e-07
1.40095e-05
3.01594e-07
1.39401e-05
2.86771e-07
1.38756e-05
2.77729e-07
1.38151e-05
2.67194e-07
1.37576e-05
2.62045e-07
1.3702e-05
2.59541e-07
1.36463e-05
2.62614e-07
1.35891e-05
2.71559e-07
1.35282e-05
2.86205e-07
1.34612e-05
3.08881e-07
1.33855e-05
3.38147e-07
1.32982e-05
3.77823e-07
1.31955e-05
4.26935e-07
1.30733e-05
4.90055e-07
1.29259e-05
5.68052e-07
1.27476e-05
6.65154e-07
1.25288e-05
7.88046e-07
1.22651e-05
9.27977e-07
1.19328e-05
1.1309e-06
1.15424e-05
1.30603e-06
1.10457e-05
1.6249e-06
1.0464e-05
1.8502e-06
9.76326e-06
2.22522e-06
8.96422e-06
2.64979e-06
8.03331e-06
2.89777e-06
7.12901e-06
2.80734e-06
6.21995e-06
2.91363e-06
5.45125e-06
2.36984e-06
4.22175e-06
3.42147e-06
3.4461e-06
4.7868e-06
1.69837e-06
3.75636e-06
1.06305e-05
-3.03236e-05
8.16654e-06
3.16708e-06
-1.67803e-05
0.000100318
-1.53715e-05
8.36002e-06
-4.73791e-06
-3.29407e-05
1.49906e-06
-3.09433e-05
3.01383e-06
-6.84383e-06
2.1066e-06
1.34583e-05
6.82183e-06
-1.42079e-06
1.90782e-05
-3.44776e-05
3.65144e-05
-7.36361e-05
5.45014e-05
-8.3171e-05
5.08554e-05
-3.77517e-05
1.25363e-05
7.57991e-05
-1.80075e-05
0.000133984
-2.34978e-05
8.68532e-05
-2.38923e-05
2.60067e-05
-2.33157e-05
5.03361e-07
-2.03437e-05
-6.90435e-06
-1.60268e-05
-1.13666e-05
-1.06324e-05
-1.61654e-05
-3.73191e-06
-2.21443e-05
4.63952e-06
-2.70496e-05
1.4621e-05
-4.22841e-05
1.98214e-05
-2.98e-05
2.21365e-05
-8.22984e-06
2.5965e-05
-9.4123e-06
2.98477e-05
1.22576e-05
6.36503e-05
0.00010643
5.42243e-05
4.90964e-05
4.70509e-05
2.50475e-05
4.2047e-05
1.50788e-05
3.84722e-05
1.01544e-05
3.57966e-05
7.43128e-06
3.36829e-05
5.76793e-06
3.19721e-05
4.6535e-06
3.05469e-05
3.80269e-06
2.93543e-05
3.1941e-06
2.83287e-05
2.68809e-06
2.74504e-05
2.33083e-06
2.66776e-05
2.00151e-06
2.60067e-05
1.77405e-06
2.54074e-05
1.544e-06
2.48826e-05
1.39261e-06
2.44093e-05
1.22484e-06
2.39925e-05
1.1206e-06
2.36145e-05
9.95545e-07
2.328e-05
9.22264e-07
2.29757e-05
8.28456e-07
2.27052e-05
7.76077e-07
2.24585e-05
7.05962e-07
2.2238e-05
6.68128e-07
2.20365e-05
6.1647e-07
2.18548e-05
5.8889e-07
2.16879e-05
5.50976e-07
2.15357e-05
5.2969e-07
2.13947e-05
5.00416e-07
2.12646e-05
4.81943e-07
2.1143e-05
4.58037e-07
2.10292e-05
4.42052e-07
2.09215e-05
4.25056e-07
2.08184e-05
4.15712e-07
2.07181e-05
4.10772e-07
2.06181e-05
4.13919e-07
2.05163e-05
4.25701e-07
2.04096e-05
4.45884e-07
2.0295e-05
4.77553e-07
2.01689e-05
5.18974e-07
2.00274e-05
5.75148e-07
1.98656e-05
6.45163e-07
1.9678e-05
7.35072e-07
1.94573e-05
8.46717e-07
1.91957e-05
9.85631e-07
1.88802e-05
1.16298e-06
1.85049e-05
1.36392e-06
1.80375e-05
1.65984e-06
1.74902e-05
1.91655e-06
1.67989e-05
2.38125e-06
1.59834e-05
2.73405e-06
1.50003e-05
3.28694e-06
1.38642e-05
3.87275e-06
1.25178e-05
4.37064e-06
1.11849e-05
4.27605e-06
9.81797e-06
4.45813e-06
8.53589e-06
3.88813e-06
6.79199e-06
5.16431e-06
6.21143e-06
5.78336e-06
4.19071e-06
5.39039e-06
1.14534e-05
-3.72053e-05
1.05213e-05
3.64337e-06
-1.73671e-05
0.000128499
-1.47546e-05
5.71855e-06
1.42445e-08
-4.71851e-05
6.80386e-06
-3.75774e-05
8.53622e-06
-8.00255e-06
1.03562e-05
1.19844e-05
1.59669e-05
-6.67245e-06
2.75928e-05
-4.59488e-05
4.57185e-05
-9.1693e-05
6.32153e-05
-0.000100634
4.73134e-05
-2.18564e-05
6.22912e-07
0.000122447
-2.3482e-05
0.000158064
-2.60706e-05
8.93619e-05
-2.72385e-05
2.74437e-05
-2.62114e-05
-3.43561e-07
-2.24691e-05
-1.0058e-05
-1.70007e-05
-1.627e-05
-1.06688e-05
-2.18887e-05
-2.94469e-06
-2.93554e-05
6.52156e-06
-3.62497e-05
1.69579e-05
-5.25835e-05
2.1846e-05
-3.45837e-05
2.47937e-05
-1.11244e-05
2.97851e-05
-1.43739e-05
4.69665e-05
1.26605e-05
8.15165e-05
0.000109196
7.42139e-05
5.63509e-05
6.7045e-05
3.21683e-05
6.12097e-05
2.08805e-05
5.66539e-05
1.46745e-05
5.3073e-05
1.09886e-05
5.01662e-05
8.64193e-06
4.77707e-05
7.02952e-06
4.5749e-05
5.79199e-06
4.4038e-05
4.88885e-06
4.25545e-05
4.14242e-06
4.12737e-05
3.6004e-06
4.01398e-05
3.11205e-06
3.91482e-05
2.76089e-06
3.82577e-05
2.41948e-06
3.74721e-05
2.18132e-06
3.67598e-05
1.93241e-06
3.61275e-05
1.76491e-06
3.55507e-05
1.57912e-06
3.50361e-05
1.45846e-06
3.45647e-05
1.31844e-06
3.4142e-05
1.22989e-06
3.37536e-05
1.12431e-06
3.34033e-05
1.05851e-06
3.30804e-05
9.79567e-07
3.27868e-05
9.3018e-07
3.25149e-05
8.71089e-07
3.22651e-05
8.32419e-07
3.20321e-05
7.86195e-07
3.18157e-05
7.53447e-07
3.16124e-05
7.15821e-07
3.14211e-05
6.88556e-07
3.12391e-05
6.61716e-07
3.10644e-05
6.45382e-07
3.08942e-05
6.36176e-07
3.07254e-05
6.38361e-07
3.05548e-05
6.52907e-07
3.03783e-05
6.79459e-07
3.01921e-05
7.21928e-07
2.99914e-05
7.78352e-07
2.97714e-05
8.5498e-07
2.95256e-05
9.51219e-07
2.92472e-05
1.07475e-06
2.89265e-05
1.229e-06
2.85536e-05
1.42095e-06
2.81115e-05
1.66794e-06
2.75917e-05
1.9477e-06
2.69521e-05
2.36405e-06
2.62061e-05
2.7288e-06
2.52666e-05
3.38858e-06
2.41565e-05
3.91514e-06
2.2808e-05
4.7169e-06
2.12212e-05
5.54924e-06
1.93214e-05
6.40121e-06
1.73764e-05
6.36206e-06
1.53185e-05
6.70224e-06
1.32246e-05
6.2366e-06
1.071e-05
7.67029e-06
1.04133e-05
6.52435e-06
7.65792e-06
7.68819e-06
1.52687e-05
-4.44809e-05
4.01324e-06
1.46237e-05
-1.71028e-05
0.000149995
-1.35446e-05
2.14181e-06
7.16329e-06
-6.73837e-05
1.47309e-05
-4.50099e-05
1.7605e-05
-1.04057e-05
2.16424e-05
8.2529e-06
2.72312e-05
-1.19539e-05
3.7604e-05
-5.61685e-05
5.55528e-05
-0.000109566
6.84008e-05
-0.000113444
3.8926e-05
7.61097e-06
-1.01515e-05
0.000171474
-2.72243e-05
0.000175104
-2.93612e-05
9.14091e-05
-3.11373e-05
2.95475e-05
-2.94579e-05
-1.79317e-06
-2.48162e-05
-1.40564e-05
-1.82951e-05
-2.21791e-05
-1.09228e-05
-2.86157e-05
-2.38907e-06
-3.73531e-05
7.86755e-06
-4.62202e-05
1.82502e-05
-6.2812e-05
2.28703e-05
-3.90771e-05
2.72907e-05
-1.54651e-05
3.2639e-05
-1.96812e-05
6.8317e-05
1.12918e-05
0.000100628
0.000108228
9.66898e-05
6.02303e-05
9.10842e-05
3.77167e-05
8.55085e-05
2.64174e-05
8.05613e-05
1.95812e-05
7.63438e-05
1.51797e-05
7.27385e-05
1.22106e-05
6.96628e-05
1.00836e-05
6.7001e-05
8.41807e-06
6.47035e-05
7.16857e-06
6.26808e-05
6.13303e-06
6.09112e-05
5.35772e-06
5.93283e-05
4.66958e-06
5.79292e-05
4.15484e-06
5.66624e-05
3.66996e-06
5.55344e-05
3.31284e-06
5.45042e-05
2.9575e-06
5.35816e-05
2.70057e-06
5.27343e-05
2.4338e-06
5.19718e-05
2.24425e-06
5.12688e-05
2.04152e-06
5.06332e-05
1.89898e-06
5.00454e-05
1.74425e-06
4.95111e-05
1.63573e-06
4.90156e-05
1.51806e-06
4.8562e-05
1.43466e-06
4.81396e-05
1.34474e-06
4.77497e-05
1.2786e-06
4.73846e-05
1.20724e-06
4.70445e-05
1.15192e-06
4.67241e-05
1.09376e-06
4.64221e-05
1.0487e-06
4.61346e-05
1.00683e-06
4.58587e-05
9.79033e-07
4.55905e-05
9.62378e-07
4.53257e-05
9.61414e-07
4.506e-05
9.77761e-07
4.47882e-05
1.01082e-06
4.45054e-05
1.06538e-06
4.42055e-05
1.1393e-06
4.38824e-05
1.24014e-06
4.35281e-05
1.3679e-06
4.31341e-05
1.53205e-06
4.26883e-05
1.73827e-06
4.2178e-05
1.99553e-06
4.15821e-05
2.32827e-06
4.08873e-05
2.70791e-06
4.00422e-05
3.2749e-06
3.90593e-05
3.77884e-06
3.78199e-05
4.69629e-06
3.63587e-05
5.44747e-06
3.45602e-05
6.59651e-06
3.23954e-05
7.80296e-06
2.97957e-05
9.12969e-06
2.69907e-05
9.3059e-06
2.38764e-05
9.99965e-06
2.04999e-05
9.86966e-06
1.67438e-05
1.14017e-05
1.66758e-05
7.07716e-06
1.1212e-05
1.24572e-05
1.32048e-05
-4.59422e-05
-2.29884e-06
2.97865e-05
-1.15715e-05
0.000159689
-1.16706e-05
2.24221e-06
1.7534e-05
-9.61474e-05
2.65258e-05
-5.38763e-05
3.07513e-05
-1.42334e-05
3.62527e-05
3.03847e-06
4.12066e-05
-1.66298e-05
4.98634e-05
-6.46662e-05
6.62202e-05
-0.000125834
7.04268e-05
-0.000117601
2.7963e-05
5.00684e-05
-1.85259e-05
0.0002179
-2.98019e-05
0.000186339
-3.32708e-05
9.47866e-05
-3.53303e-05
3.20101e-05
-3.30019e-05
-3.82114e-06
-2.72521e-05
-1.90967e-05
-1.95301e-05
-2.92182e-05
-1.1058e-05
-3.63698e-05
-1.94166e-06
-4.58748e-05
8.77437e-06
-5.66139e-05
1.84028e-05
-7.22578e-05
2.3148e-05
-4.36637e-05
3.02543e-05
-2.24528e-05
3.42445e-05
-2.36008e-05
9.49925e-05
7.58638e-06
0.00012122
0.000105768
0.000120493
6.08849e-05
0.000117583
4.05574e-05
0.000113666
3.02884e-05
0.0001095
2.37008e-05
0.000105485
1.91644e-05
0.000101741
1.59138e-05
9.83448e-05
1.34562e-05
9.52659e-05
1.14577e-05
9.25139e-05
9.90116e-06
9.00226e-05
8.58962e-06
8.77933e-05
7.57376e-06
8.57617e-05
6.67382e-06
8.39365e-05
5.9746e-06
8.22614e-05
5.32765e-06
8.07502e-05
4.82778e-06
7.93556e-05
4.34669e-06
7.80929e-05
3.97714e-06
7.69234e-05
3.61112e-06
7.5861e-05
3.33123e-06
7.48747e-05
3.04897e-06
7.39758e-05
2.83311e-06
7.31398e-05
2.61399e-06
7.23749e-05
2.44565e-06
7.16623e-05
2.27556e-06
7.10069e-05
2.14326e-06
7.03947e-05
2.01034e-06
6.9828e-05
1.90388e-06
6.92968e-05
1.79662e-06
6.88015e-05
1.7078e-06
6.8335e-05
1.61982e-06
6.78958e-05
1.54806e-06
6.74783e-05
1.48378e-06
6.70789e-05
1.43805e-06
6.66919e-05
1.40902e-06
6.6312e-05
1.40119e-06
6.59334e-05
1.41708e-06
6.55495e-05
1.45568e-06
6.51542e-05
1.52271e-06
6.47401e-05
1.61579e-06
6.42996e-05
1.74388e-06
6.38232e-05
1.90776e-06
6.33005e-05
2.11898e-06
6.27171e-05
2.38586e-06
6.20568e-05
2.72072e-06
6.12956e-05
3.15429e-06
6.04125e-05
3.65653e-06
5.93496e-05
4.40347e-06
5.81147e-05
5.08032e-06
5.65545e-05
6.3239e-06
5.47187e-05
7.35286e-06
5.24326e-05
8.96149e-06
4.96054e-05
1.07155e-05
4.62342e-05
1.26212e-05
4.23322e-05
1.33333e-05
3.77431e-05
1.47474e-05
3.23252e-05
1.55045e-05
2.65984e-05
1.70969e-05
2.59041e-05
8.24497e-06
1.68313e-05
2.07673e-05
1.12457e-05
-3.95567e-05
-6.41095e-06
4.70072e-05
-7.4155e-06
0.000161144
5.68327e-06
-1.08564e-05
3.32972e-05
-0.000123399
4.36999e-05
-6.41567e-05
4.90486e-05
-1.92419e-05
5.53229e-05
-2.96698e-06
5.91189e-05
-2.01529e-05
6.52494e-05
-7.06254e-05
7.80383e-05
-0.000138517
7.09166e-05
-0.000110404
1.75723e-05
0.000103403
-2.32807e-05
0.000258673
-3.14467e-05
0.000194452
-3.72551e-05
0.000100516
-3.94426e-05
3.46924e-05
-3.64189e-05
-6.4464e-06
-2.93413e-05
-2.53853e-05
-2.03534e-05
-3.74187e-05
-1.07416e-05
-4.51391e-05
-1.21924e-06
-5.4716e-05
9.35834e-06
-6.68216e-05
1.75801e-05
-8.0257e-05
2.36456e-05
-4.95326e-05
3.34326e-05
-3.2083e-05
3.23528e-05
-2.23896e-05
0.000126783
5.89588e-07
0.000145292
0.000104128
0.000146071
6.00158e-05
0.000145533
4.101e-05
0.000143895
3.18713e-05
0.00014154
2.60008e-05
0.000138816
2.18536e-05
0.000135909
1.87735e-05
0.000133003
1.63348e-05
0.000130155
1.42621e-05
0.000127455
1.25791e-05
0.000124887
1.11192e-05
0.000122501
9.94611e-06
0.000120252
8.89305e-06
0.000118177
8.04371e-06
0.000116226
7.25897e-06
0.000114432
6.62605e-06
0.000112747
6.02584e-06
0.000111198
5.54067e-06
0.000109745
5.07253e-06
0.00010841