/*--------------------------------*- C++ -*----------------------------------*\
| =========                 |                                                 |
| \\      /  F ield         | OpenFOAM: The Open Source CFD Toolbox           |
|  \\    /   O peration     | Version:  2306                                  |
|   \\  /    A nd           | Website:  www.openfoam.com                      |
|    \\/     M anipulation  |                                                 |
\*---------------------------------------------------------------------------*/
FoamFile
{
    version     2.0;
    format      ascii;
    arch        "LSB;label=32;scalar=64";
    class       volSymmTensorField;
    location    "1800";
    object      turbulenceProperties:devReff;
}
// * * * * * * * * * * * * * * * * * * * * * * * * * * * * * * * * * * * * * //

dimensions      [0 2 -2 0 0 0 0];

internalField   nonuniform List<symmTensor> 
20540
(
(-0.00125546 -0.0194538 -0 0.00125381 -0 1.64941e-06)
(0.0118215 0.0342266 -0 -0.0117945 -0 -2.69868e-05)
(-0.00124386 -0.061924 -0 0.0012437 -0 1.5813e-07)
(0.0102074 0.10788 -0 -0.0102214 -0 1.40131e-05)
(-0.00121069 -0.111313 -0 0.00121135 -0 -6.62421e-07)
(0.00845701 0.189756 -0 -0.00846343 -0 6.41608e-06)
(-0.00114634 -0.166173 -0 0.00114709 -0 -7.4707e-07)
(0.00665696 0.274252 -0 -0.00665488 -0 -2.07667e-06)
(-0.00104166 -0.222643 -0 0.00104302 -0 -1.35986e-06)
(0.00486993 0.352702 -0 -0.00486582 -0 -4.11258e-06)
(-0.000887258 -0.273731 -0 0.00088927 -0 -2.01251e-06)
(0.00316563 0.413092 -0 -0.00316045 -0 -5.18396e-06)
(-0.000679233 -0.309285 -0 0.000681172 -0 -1.93923e-06)
(0.00163948 0.440976 -0 -0.00163268 -0 -6.80241e-06)
(-0.000425981 -0.317952 -0 0.000426472 -0 -4.90573e-07)
(0.000407696 0.42207 -0 -0.000399996 -0 -7.69994e-06)
(-0.00015683 -0.291754 -0 0.000154889 -0 1.94105e-06)
(-0.000412177 0.348412 -0 0.000417952 -0 -5.77544e-06)
(7.39619e-05 -0.231928 -0 -7.73932e-05 -0 3.43126e-06)
(-0.000745837 0.228603 -0 0.000746587 -0 -7.49657e-07)
(0.000202461 -0.152097 -0 -0.00020475 -0 2.28872e-06)
(-0.000634604 0.0959119 -0 0.000632086 -0 2.51779e-06)
(0.000198712 -0.074932 -0 -0.000198347 -0 -3.65596e-07)
(-0.000287177 -0.00155354 -0 0.00028975 -0 -2.57303e-06)
(0.000108946 -0.0219099 -0 -0.000107432 -0 -1.51475e-06)
(1.93333e-07 -0.0353614 -0 1.20157e-05 -0 -1.2209e-05)
(2.7227e-05 -6.80991e-05 -0 -2.67045e-05 -0 -5.22569e-07)
(7.31079e-05 -0.0232777 -0 -5.91909e-05 -0 -1.3917e-05)
(7.16948e-07 0.00203652 -0 -1.22445e-06 -0 5.07497e-07)
(2.31658e-05 -0.00525338 -0 -1.462e-05 -0 -8.54575e-06)
(3.7068e-06 5.75122e-05 -0 -4.5492e-06 -0 8.42396e-07)
(-1.46154e-05 0.000718083 -0 2.1166e-05 -0 -6.5506e-06)
(6.71004e-06 -0.00029432 -0 -7.72344e-06 -0 1.01341e-06)
(-2.08692e-05 0.00041355 -0 2.91989e-05 -0 -8.32974e-06)
(6.69825e-06 -6.30536e-05 -0 -7.79569e-06 -0 1.09744e-06)
(-2.03916e-05 -2.79433e-05 -0 2.99616e-05 -0 -9.56998e-06)
(6.4723e-06 -3.78775e-06 -0 -7.57018e-06 -0 1.09788e-06)
(-2.02812e-05 -4.24902e-05 -0 2.99765e-05 -0 -9.69534e-06)
(6.39443e-06 -6.5041e-06 -0 -7.51313e-06 -0 1.1187e-06)
(-2.01952e-05 -2.89589e-05 -0 2.9801e-05 -0 -9.60586e-06)
(6.31817e-06 -6.28972e-06 -0 -7.47985e-06 -0 1.16168e-06)
(-2.00902e-05 -2.88468e-05 -0 2.96603e-05 -0 -9.57014e-06)
(6.18107e-06 -5.22733e-06 -0 -7.35582e-06 -0 1.17475e-06)
(-1.99273e-05 -2.88391e-05 -0 2.94327e-05 -0 -9.50537e-06)
(5.98418e-06 -4.49903e-06 -0 -7.14212e-06 -0 1.15795e-06)
(-1.96718e-05 -2.81114e-05 -0 2.90464e-05 -0 -9.37452e-06)
(5.73053e-06 -3.9398e-06 -0 -6.84601e-06 -0 1.11548e-06)
(-1.93295e-05 -2.69162e-05 -0 2.85154e-05 -0 -9.18583e-06)
(5.42691e-06 -3.47165e-06 -0 -6.48153e-06 -0 1.05462e-06)
(-1.8932e-05 -2.52988e-05 -0 2.79026e-05 -0 -8.97065e-06)
(5.12346e-06 -3.04526e-06 -0 -6.14795e-06 -0 1.02449e-06)
(-1.84995e-05 -2.3264e-05 -0 2.72463e-05 -0 -8.7468e-06)
(4.8313e-06 -2.6266e-06 -0 -5.86371e-06 -0 1.03241e-06)
(-1.79206e-05 -2.07751e-05 -0 2.63173e-05 -0 -8.39666e-06)
(4.43866e-06 -2.19743e-06 -0 -5.39636e-06 -0 9.57702e-07)
(-1.70459e-05 -1.77749e-05 -0 2.48069e-05 -0 -7.76093e-06)
(3.91714e-06 -1.74599e-06 -0 -4.67241e-06 -0 7.55274e-07)
(-1.60592e-05 -1.42766e-05 -0 2.30713e-05 -0 -7.01203e-06)
(3.48036e-06 -1.25954e-06 -0 -4.09425e-06 -0 6.13891e-07)
(-1.54283e-05 -1.03015e-05 -0 2.20328e-05 -0 -6.60445e-06)
(3.29133e-06 -7.8458e-07 -0 -3.92307e-06 -0 6.31738e-07)
(-1.5347e-05 -6.1006e-06 -0 2.20239e-05 -0 -6.67691e-06)
(3.24331e-06 -3.01954e-07 -0 -3.92324e-06 -0 6.79937e-07)
(-1.54686e-05 -1.95337e-06 -0 2.23513e-05 -0 -6.88272e-06)
(3.22355e-06 2.09735e-07 -0 -3.87604e-06 -0 6.52489e-07)
(-1.54127e-05 2.16966e-06 -0 2.22606e-05 -0 -6.84793e-06)
(3.25486e-06 6.87296e-07 -0 -3.82668e-06 -0 5.71818e-07)
(-1.52519e-05 6.29064e-06 -0 2.18962e-05 -0 -6.64437e-06)
(3.45105e-06 1.16053e-06 -0 -4.00133e-06 -0 5.50288e-07)
(-1.53952e-05 1.03928e-05 -0 2.20732e-05 -0 -6.67806e-06)
(3.85678e-06 1.6343e-06 -0 -4.51577e-06 -0 6.58989e-07)
(-1.61013e-05 1.4261e-05 -0 2.33116e-05 -0 -7.21031e-06)
(4.28938e-06 2.07821e-06 -0 -5.06257e-06 -0 7.73189e-07)
(-1.71347e-05 1.76511e-05 -0 2.51832e-05 -0 -8.04843e-06)
(4.60974e-06 2.5032e-06 -0 -5.38763e-06 -0 7.77896e-07)
(-1.80949e-05 2.05418e-05 -0 2.68984e-05 -0 -8.80348e-06)
(4.88548e-06 2.91912e-06 -0 -5.64114e-06 -0 7.55667e-07)
(-1.88717e-05 2.29714e-05 -0 2.82504e-05 -0 -9.37864e-06)
(5.16875e-06 3.34504e-06 -0 -5.9353e-06 -0 7.66554e-07)
(-1.95363e-05 2.49883e-05 -0 2.93916e-05 -0 -9.85527e-06)
(5.42927e-06 3.8089e-06 -0 -6.21315e-06 -0 7.83886e-07)
(-2.01044e-05 2.66158e-05 -0 3.03602e-05 -0 -1.02558e-05)
(5.64907e-06 4.35291e-06 -0 -6.43981e-06 -0 7.90738e-07)
(-2.05641e-05 2.78514e-05 -0 3.11363e-05 -0 -1.05722e-05)
(5.82756e-06 5.05482e-06 -0 -6.61369e-06 -0 7.86129e-07)
(-2.09186e-05 2.8654e-05 -0 3.1728e-05 -0 -1.08094e-05)
(5.96646e-06 6.03832e-06 -0 -6.73722e-06 -0 7.70761e-07)
(-2.11801e-05 2.88868e-05 -0 3.21591e-05 -0 -1.0979e-05)
(6.05279e-06 6.86956e-06 -0 -6.78402e-06 -0 7.31231e-07)
(-2.13542e-05 2.85013e-05 -0 3.2437e-05 -0 -1.10828e-05)
(6.08859e-06 3.58917e-06 -0 -6.75793e-06 -0 6.69335e-07)
(-2.14479e-05 3.43218e-05 -0 3.26011e-05 -0 -1.11532e-05)
(6.19144e-06 1.36943e-05 -0 -6.82219e-06 -0 6.30745e-07)
(-2.14978e-05 5.60674e-05 -0 3.26921e-05 -0 -1.11943e-05)
(6.46211e-06 0.00016338 -0 -7.04694e-06 -0 5.84835e-07)
(-2.19141e-05 -0.000103092 -0 3.25783e-05 -0 -1.06642e-05)
(5.46717e-06 0.000294382 -0 -5.92941e-06 -0 4.62236e-07)
(-2.14424e-05 -0.000809392 -0 3.03791e-05 -0 -8.93672e-06)
(7.97179e-07 -0.000888167 -0 -1.07242e-06 -0 2.75244e-07)
(-3.46831e-06 0.000638978 -0 1.18037e-05 -0 -8.33537e-06)
(5.99668e-06 -0.00250336 -0 -5.66477e-06 -0 -3.3191e-07)
(4.91075e-05 0.0121204 -0 -3.67715e-05 -0 -1.23361e-05)
(5.53483e-05 0.00554396 -0 -5.38393e-05 -0 -1.50898e-06)
(6.67605e-05 0.0316869 -0 -5.11056e-05 -0 -1.56549e-05)
(0.000148317 0.0383978 -0 -0.000146581 -0 -1.73606e-06)
(-8.99457e-05 0.0304501 -0 0.000100229 -0 -1.02835e-05)
(0.000214175 0.100425 -0 -0.000214239 -0 6.38209e-08)
(-0.000422081 -0.0259556 -0 0.000423984 -0 -1.90372e-06)
(0.00017466 0.178951 -0 -0.000176839 -0 2.17871e-06)
(-0.000712901 -0.137519 -0 0.000713194 -0 -2.92254e-07)
(1.36338e-05 0.252604 -0 -1.60126e-05 -0 2.37878e-06)
(-0.00070078 -0.267436 -0 0.000705186 -0 -4.40572e-06)
(-0.000226412 0.302519 -0 0.000225765 -0 6.46871e-07)
(-0.000244506 -0.373372 -0 0.000252681 -0 -8.17581e-06)
(-0.000486974 0.319397 -0 0.00048828 -0 -1.30602e-06)
(0.00065637 -0.431577 -0 -0.000647412 -0 -8.95855e-06)
(-0.000724256 0.304624 -0 0.000726462 -0 -2.20611e-06)
(0.00191958 -0.439098 -0 -0.00191188 -0 -7.6965e-06)
(-0.000916423 0.26659 -0 0.000918458 -0 -2.03477e-06)
(0.00343676 -0.405174 -0 -0.00343063 -0 -6.12849e-06)
(-0.00105842 0.21568 -0 0.00105982 -0 -1.39752e-06)
(0.00510516 -0.343116 -0 -0.00509989 -0 -5.26856e-06)
(-0.00115482 0.160767 -0 0.00115573 -0 -9.12152e-07)
(0.00684128 -0.265788 -0 -0.00683757 -0 -3.70843e-06)
(-0.00121431 0.107849 -0 0.0012152 -0 -8.86034e-07)
(0.0085852 -0.183761 -0 -0.0085898 -0 4.5932e-06)
(-0.00124508 0.0602251 -0 0.00124513 -0 -5.00356e-08)
(0.0102808 -0.104641 -0 -0.0102932 -0 1.24214e-05)
(-0.00125582 0.019001 -0 0.00125432 -0 1.50425e-06)
(0.0118474 -0.0332793 -0 -0.0118214 -0 -2.60764e-05)
(0.0159003 -3.37979 -0 -0.0158922 -0 -8.12206e-06)
(0.000649426 -1.44138 -0 -0.000673414 -0 2.39879e-05)
(0.000140145 -1.0867 -0 -0.000145062 -0 4.9176e-06)
(7.3886e-05 -0.922508 -0 -7.63155e-05 -0 2.42955e-06)
(4.85479e-05 -0.823634 -0 -5.00044e-05 -0 1.45655e-06)
(3.60906e-05 -0.755545 -0 -3.71666e-05 -0 1.07602e-06)
(2.89507e-05 -0.704198 -0 -2.9689e-05 -0 7.38312e-07)
(2.4101e-05 -0.662989 -0 -2.47436e-05 -0 6.42655e-07)
(2.02361e-05 -0.630091 -0 -2.06084e-05 -0 3.72279e-07)
(1.74893e-05 -0.602576 -0 -1.7891e-05 -0 4.01705e-07)
(1.51236e-05 -0.580029 -0 -1.53036e-05 -0 1.80028e-07)
(1.35131e-05 -0.560433 -0 -1.38044e-05 -0 2.91262e-07)
(1.18773e-05 -0.544104 -0 -1.19762e-05 -0 9.89304e-08)
(1.08181e-05 -0.529624 -0 -1.1084e-05 -0 2.65917e-07)
(9.58057e-06 -0.517501 -0 -9.68315e-06 -0 1.02576e-07)
(8.84252e-06 -0.506614 -0 -9.15557e-06 -0 3.13047e-07)
(7.85156e-06 -0.497528 -0 -8.0384e-06 -0 1.86835e-07)
(7.31208e-06 -0.48932 -0 -7.74189e-06 -0 4.29807e-07)
(6.50357e-06 -0.482537 -0 -6.85282e-06 -0 3.49251e-07)
(6.102e-06 -0.476394 -0 -6.71531e-06 -0 6.13308e-07)
(5.444e-06 -0.471395 -0 -6.02775e-06 -0 5.83749e-07)
(5.14176e-06 -0.466873 -0 -6.00063e-06 -0 8.58866e-07)
(4.61449e-06 -0.463274 -0 -5.49748e-06 -0 8.82992e-07)
(4.3918e-06 -0.460035 -0 -5.55417e-06 -0 1.16236e-06)
(3.99011e-06 -0.45753 -0 -5.22876e-06 -0 1.23865e-06)
(3.84396e-06 -0.455289 -0 -5.35731e-06 -0 1.51335e-06)
(3.56356e-06 -0.45361 -0 -5.19074e-06 -0 1.62717e-06)
(3.47955e-06 -0.452111 -0 -5.35774e-06 -0 1.87819e-06)
(3.28236e-06 -0.451022 -0 -5.2833e-06 -0 2.00094e-06)
(3.21094e-06 -0.450058 -0 -5.41915e-06 -0 2.20822e-06)
(3.03755e-06 -0.449399 -0 -5.36013e-06 -0 2.32257e-06)
(2.94624e-06 -0.448852 -0 -5.43706e-06 -0 2.49082e-06)
(2.80638e-06 -0.448537 -0 -5.42279e-06 -0 2.61641e-06)
(2.7688e-06 -0.448321 -0 -5.55048e-06 -0 2.78168e-06)
(2.79475e-06 -0.448238 -0 -5.75339e-06 -0 2.95864e-06)
(2.98716e-06 -0.448189 -0 -6.14768e-06 -0 3.16052e-06)
(3.37266e-06 -0.448111 -0 -6.78409e-06 -0 3.41143e-06)
(3.99913e-06 -0.447923 -0 -7.66868e-06 -0 3.66955e-06)
(4.94816e-06 -0.447489 -0 -8.94312e-06 -0 3.99495e-06)
(6.24794e-06 -0.446727 -0 -1.05666e-05 -0 4.31866e-06)
(8.04584e-06 -0.445441 -0 -1.2768e-05 -0 4.72217e-06)
(1.04109e-05 -0.443517 -0 -1.55397e-05 -0 5.12876e-06)
(1.35434e-05 -0.440673 -0 -1.91712e-05 -0 5.62781e-06)
(1.76071e-05 -0.436746 -0 -2.37556e-05 -0 6.14852e-06)
(2.28674e-05 -0.431328 -0 -2.96353e-05 -0 6.76792e-06)
(2.9587e-05 -0.424166 -0 -3.70557e-05 -0 7.46863e-06)
(3.78566e-05 -0.414725 -0 -4.60956e-05 -0 8.23897e-06)
(4.93133e-05 -0.402792 -0 -5.8507e-05 -0 9.19365e-06)
(5.98516e-05 -0.386848 -0 -7.0066e-05 -0 1.02143e-05)
(7.93968e-05 -0.369398 -0 -9.08856e-05 -0 1.14888e-05)
(9.16575e-05 -0.343181 -0 -0.000104021 -0 1.23638e-05)
(0.00011022 -0.31956 -0 -0.000125946 -0 1.57263e-05)
(0.000535631 -0.286286 -0 -0.00053308 -0 -2.55087e-06)
(0.000106906 -0.14017 -0 -0.000118577 -0 1.16707e-05)
(4.26462e-05 -0.22136 -0 -6.51701e-05 -0 2.25239e-05)
(9.52756e-05 -0.0987313 -0 -0.000116329 -0 2.1053e-05)
(-0.000106589 -0.172437 -0 8.46876e-05 -0 2.19012e-05)
(0.000392307 -0.090638 -0 -0.000437353 -0 4.50462e-05)
(0.000464057 -0.0768879 -0 -0.000463701 -0 -3.56201e-07)
(-0.000234439 0.124609 -0 0.000219155 -0 1.52841e-05)
(-0.00491398 -0.0366782 -0 0.00472964 -0 0.000184334)
(0.000282182 -1.90041 -0 0.000857614 -0 -0.0011398)
(0.0184432 0.264056 -0 -0.0198495 -0 0.00140628)
(0.0128378 3.57678 -0 -0.0157118 -0 0.00287405)
(-0.0074026 3.35542 -0 0.00601007 -0 0.00139253)
(-0.0162457 1.87166 -0 0.0181123 -0 -0.00186663)
(-0.00630451 0.358496 -0 0.00656279 -0 -0.000258288)
(0.00553684 0.44337 -0 -0.00606458 -0 0.000527737)
(0.0108865 1.12604 -0 -0.0115436 -0 0.000657119)
(0.00012236 2.10657 -0 -0.00259839 -0 0.00247603)
(-0.0278374 1.02557 -0 0.026024 -0 0.00181342)
(-0.0483132 -2.23527 -0 0.0515328 -0 -0.00321963)
(-0.0420345 -5.85824 -0 0.0427036 -0 -0.000669133)
(-0.0151233 -8.53682 -0 0.0167562 -0 -0.00163291)
(0.0454606 -8.54029 -0 -0.043397 -0 -0.00206361)
(0.100968 -4.38889 -0 -0.113078 -0 0.0121103)
(0.0689233 2.39458 -0 -0.0858884 -0 0.0169651)
(0.0131762 3.71329 -0 -0.0196856 -0 0.00650931)
(0.000402632 3.99509 -0 -0.00321984 -0 0.00281721)
(-0.00460188 3.83766 -0 0.00294442 -0 0.00165746)
(-0.00732071 3.47525 -0 0.00659807 -0 0.000722637)
(-0.0116963 2.94556 -0 0.0103302 -0 0.00136615)
(-0.0179031 2.17611 -0 0.0156575 -0 0.00224557)
(-0.0395915 1.31784 -0 0.0392533 -0 0.000338247)
(-0.0375995 -1.08038 -0 0.0364141 -0 0.0011854)
(0.00493339 -2.12121 -0 -0.000418123 -0 -0.00451527)
(-0.0468226 -0.326234 -0 0.0364015 -0 0.0104212)
(0.00660762 -6.54464 -9.6661e-21 0.110605 -0 -0.117212)
(0.0151827 -2.95161 -0 -0.0151879 -0 5.16908e-06)
(0.00176211 -1.44206 -0 -0.00174698 -0 -1.51233e-05)
(0.000431231 -1.08544 -0 -0.000427388 -0 -3.84256e-06)
(0.000226899 -0.92163 -0 -0.000224534 -0 -2.36533e-06)
(0.000149459 -0.822695 -0 -0.000147686 -0 -1.77297e-06)
(0.00011104 -0.754508 -0 -0.000109742 -0 -1.29808e-06)
(8.91014e-05 -0.703196 -0 -8.78432e-05 -0 -1.25822e-06)
(7.40841e-05 -0.662057 -0 -7.31052e-05 -0 -9.78906e-07)
(6.23881e-05 -0.629186 -0 -6.12526e-05 -0 -1.13546e-06)
(5.37892e-05 -0.601677 -0 -5.29651e-05 -0 -8.24106e-07)
(4.67153e-05 -0.579101 -0 -4.56997e-05 -0 -1.01557e-06)
(4.15418e-05 -0.559475 -0 -4.08796e-05 -0 -6.62229e-07)
(3.67234e-05 -0.543083 -0 -3.58654e-05 -0 -8.58036e-07)
(3.32028e-05 -0.528533 -0 -3.27488e-05 -0 -4.54023e-07)
(2.96033e-05 -0.51631 -0 -2.89731e-05 -0 -6.30177e-07)
(2.7047e-05 -0.505311 -0 -2.68739e-05 -0 -1.73125e-07)
(2.41796e-05 -0.496085 -0 -2.38729e-05 -0 -3.06661e-07)
(2.22203e-05 -0.487721 -0 -2.24195e-05 -0 1.99203e-07)
(1.98625e-05 -0.480757 -0 -1.99918e-05 -0 1.29306e-07)
(1.83229e-05 -0.474419 -0 -1.89971e-05 -0 6.74154e-07)
(1.63645e-05 -0.469201 -0 -1.7047e-05 -0 6.82559e-07)
(1.51374e-05 -0.464448 -0 -1.63912e-05 -0 1.25372e-06)
(1.3516e-05 -0.460596 -0 -1.48653e-05 -0 1.34928e-06)
(1.25478e-05 -0.457095 -0 -1.44817e-05 -0 1.93388e-06)
(1.12525e-05 -0.454308 -0 -1.33674e-05 -0 2.11494e-06)
(1.0541e-05 -0.451779 -0 -1.32314e-05 -0 2.6904e-06)
(9.57933e-06 -0.449795 -0 -1.25075e-05 -0 2.92816e-06)
(9.10211e-06 -0.447988 -0 -1.25543e-05 -0 3.45217e-06)
(8.40084e-06 -0.446577 -0 -1.20961e-05 -0 3.69528e-06)
(8.0375e-06 -0.445289 -0 -1.21682e-05 -0 4.1307e-06)
(7.45015e-06 -0.444292 -0 -1.18089e-05 -0 4.35877e-06)
(7.10027e-06 -0.443402 -0 -1.18236e-05 -0 4.72336e-06)
(6.63402e-06 -0.442726 -0 -1.16236e-05 -0 4.98959e-06)
(6.46123e-06 -0.442144 -0 -1.18204e-05 -0 5.35921e-06)
(6.44732e-06 -0.441681 -0 -1.21933e-05 -0 5.74595e-06)
(6.90762e-06 -0.441249 -0 -1.30992e-05 -0 6.19157e-06)
(7.87836e-06 -0.440788 -0 -1.46092e-05 -0 6.73088e-06)
(9.54427e-06 -0.440227 -0 -1.68154e-05 -0 7.27113e-06)
(1.20988e-05 -0.439435 -0 -2.00369e-05 -0 7.93814e-06)
(1.56688e-05 -0.438344 -0 -2.42255e-05 -0 8.55674e-06)
(2.06466e-05 -0.436765 -0 -2.99617e-05 -0 9.31508e-06)
(2.72577e-05 -0.434603 -0 -3.72481e-05 -0 9.9904e-06)
(3.60722e-05 -0.43159 -0 -4.68709e-05 -0 1.07987e-05)
(4.75762e-05 -0.427581 -0 -5.90953e-05 -0 1.15191e-05)
(6.25462e-05 -0.422196 -0 -7.4855e-05 -0 1.23088e-05)
(8.1767e-05 -0.415202 -0 -9.481e-05 -0 1.3043e-05)
(0.000105568 -0.406089 -0 -0.000119446 -0 1.38777e-05)
(0.000138636 -0.39469 -0 -0.0001531 -0 1.44642e-05)
(0.000170005 -0.379491 -0 -0.000185734 -0 1.57293e-05)
(0.000225748 -0.362897 -0 -0.000241954 -0 1.62062e-05)
(0.000264261 -0.338137 -0 -0.000280552 -0 1.62911e-05)
(0.000317807 -0.315347 -0 -0.000340798 -0 2.29901e-05)
(0.000735703 -0.283568 -0 -0.000772301 -0 3.65975e-05)
(0.000396645 -0.270192 -0 -0.000439795 -0 4.31501e-05)
(0.000357739 -0.219219 -0 -0.000377441 -0 1.97026e-05)
(0.000365221 -0.194515 -0 -0.000443684 -0 7.84632e-05)
(0.000214854 -0.168838 -0 -0.000179498 -0 -3.53557e-05)
(0.000551917 -0.11501 -0 -0.00067936 -0 0.000127443)
(0.00146709 -0.15384 -0 -0.00146255 -0 -4.53791e-06)
(0.000264514 0.0966468 -0 9.59853e-05 -0 -0.000360499)
(-0.013006 0.0221524 -0 0.0115861 -0 0.00141988)
(0.00127028 -1.57349 -0 -0.000358026 -0 -0.00091225)
(0.045978 0.362725 -0 -0.0460926 -0 0.000114595)
(0.0293455 2.76558 -0 -0.0310043 -0 0.00165884)
(-0.0191486 2.13726 -0 0.0181795 -0 0.000969166)
(-0.0397511 1.33388 -0 0.0410799 -0 -0.0013288)
(-0.0179125 0.248679 -0 0.0159607 -0 0.00195181)
(0.0110817 0.390721 -0 -0.0121143 -0 0.00103265)
(0.0225145 0.887785 -0 -0.0212427 -0 -0.00127182)
(0.000194604 1.31954 -0 -0.00100642 -0 0.000811813)
(-0.0675511 0.151893 -0 0.0657659 -0 0.00178522)
(-0.119754 -2.05635 -0 0.120634 -0 -0.000880255)
(-0.111776 -4.46703 -0 0.107519 -0 0.00425728)
(-0.0511506 -6.42592 -0 0.0458908 -0 0.0052598)
(0.0679229 -6.77562 -0 -0.0689767 -0 0.00105386)
(0.233791 -4.11914 -0 -0.236801 -0 0.00300987)
(0.198036 2.26575 -0 -0.2014 -0 0.00336389)
(0.0432056 2.64762 -0 -0.0409431 -0 -0.00226253)
(0.00619774 2.7371 -0 -0.00541775 -0 -0.000779989)
(-0.0103204 2.60222 -0 0.00848363 -0 0.00183675)
(-0.0232866 2.31267 -0 0.0208877 -0 0.00239887)
(-0.0354824 1.82269 -0 0.0325313 -0 0.00295108)
(-0.0441227 1.22635 -0 0.0414007 -0 0.00272201)
(-0.0999732 0.726324 -0 0.096895 -0 0.0030782)
(-0.110091 -1.03042 -0 0.102625 -0 0.00746638)
(0.0158227 -1.78658 -0 -0.00135438 -0 -0.0144684)
(-0.0888443 -0.743764 -0 0.00954437 -0 0.0792999)
(0.086097 -4.15807 8.97004e-21 -0.0670515 -0 -0.0190455)
(0.0142252 -2.51276 -0 -0.0142223 -0 -2.88127e-06)
(0.00286836 -1.43686 -0 -0.00285484 -0 -1.35197e-05)
(0.000794958 -1.08282 -0 -0.000791219 -0 -3.73903e-06)
(0.000417376 -0.919777 -0 -0.000414939 -0 -2.43732e-06)
(0.00027541 -0.820978 -0 -0.000273462 -0 -1.94807e-06)
(0.000204526 -0.752767 -0 -0.000203019 -0 -1.5075e-06)
(0.000164064 -0.701527 -0 -0.000162526 -0 -1.53879e-06)
(0.00013637 -0.660484 -0 -0.00013513 -0 -1.2392e-06)
(0.00011508 -0.627621 -0 -0.000113593 -0 -1.48707e-06)
(9.92483e-05 -0.600088 -0 -9.81641e-05 -0 -1.0842e-06)
(8.64209e-05 -0.577425 -0 -8.50523e-05 -0 -1.36862e-06)
(7.68654e-05 -0.557712 -0 -7.59984e-05 -0 -8.66994e-07)
(6.81853e-05 -0.54118 -0 -6.7032e-05 -0 -1.15336e-06)
(6.16813e-05 -0.526486 -0 -6.11363e-05 -0 -5.44936e-07)
(5.5234e-05 -0.514073 -0 -5.44332e-05 -0 -8.00823e-07)
(5.05139e-05 -0.502881 -0 -5.04311e-05 -0 -8.2767e-08)
(4.54021e-05 -0.493423 -0 -4.51302e-05 -0 -2.71977e-07)
(4.17897e-05 -0.484823 -0 -4.23342e-05 -0 5.4453e-07)
(3.75974e-05 -0.477588 -0 -3.80505e-05 -0 4.53167e-07)
(3.47599e-05 -0.470975 -0 -3.61029e-05 -0 1.34303e-06)
(3.12805e-05 -0.465452 -0 -3.26525e-05 -0 1.37204e-06)
(2.90161e-05 -0.46039 -0 -3.13223e-05 -0 2.30616e-06)
(2.6134e-05 -0.456203 -0 -2.86051e-05 -0 2.47112e-06)
(2.43386e-05 -0.452362 -0 -2.77612e-05 -0 3.42268e-06)
(2.20294e-05 -0.449216 -0 -2.57511e-05 -0 3.72174e-06)
(2.06907e-05 -0.446326 -0 -2.53409e-05 -0 4.65012e-06)
(1.89645e-05 -0.443966 -0 -2.40007e-05 -0 5.03616e-06)
(1.80429e-05 -0.441786 -0 -2.39148e-05 -0 5.87194e-06)
(1.67774e-05 -0.439994 -0 -2.304e-05 -0 6.26264e-06)
(1.60747e-05 -0.438332 -0 -2.30241e-05 -0 6.94938e-06)
(1.50259e-05 -0.436953 -0 -2.23385e-05 -0 7.31254e-06)
(1.43787e-05 -0.435684 -0 -2.22592e-05 -0 7.88049e-06)
(1.35579e-05 -0.434621 -0 -2.18515e-05 -0 8.29365e-06)
(1.32435e-05 -0.433649 -0 -2.20985e-05 -0 8.85502e-06)
(1.32085e-05 -0.432787 -0 -2.26398e-05 -0 9.43138e-06)
(1.40017e-05 -0.431954 -0 -2.40865e-05 -0 1.00848e-05)
(1.56636e-05 -0.431086 -0 -2.65254e-05 -0 1.08619e-05)
(1.85544e-05 -0.430125 -0 -3.01886e-05 -0 1.16342e-05)
(2.2959e-05 -0.428943 -0 -3.55359e-05 -0 1.25768e-05)
(2.91743e-05 -0.427485 -0 -4.26322e-05 -0 1.34579e-05)
(3.77966e-05 -0.425571 -0 -5.23255e-05 -0 1.45288e-05)
(4.93338e-05 -0.423126 -0 -6.48467e-05 -0 1.55129e-05)
(6.46615e-05 -0.419899 -0 -8.13421e-05 -0 1.66805e-05)
(8.47746e-05 -0.415774 -0 -0.000102562 -0 1.77871e-05)
(0.000110893 -0.410397 -0 -0.000129873 -0 1.89803e-05)
(0.000144699 -0.403572 -0 -0.000165007 -0 2.03087e-05)
(0.000186202 -0.394817 -0 -0.000207773 -0 2.15705e-05)
(0.000244652 -0.384029 -0 -0.000267478 -0 2.28258e-05)
(0.000299089 -0.369695 -0 -0.000323653 -0 2.45643e-05)
(0.000399131 -0.354239 -0 -0.000425902 -0 2.67704e-05)
(0.000465469 -0.331049 -0 -0.000490013 -0 2.45442e-05)
(0.000568519 -0.309699 -0 -0.000609907 -0 4.13882e-05)
(0.000920617 -0.279472 -0 -0.000933509 -0 1.28919e-05)
(0.000714487 -0.262629 -0 -0.000780336 -0 6.58487e-05)
(0.000717286 -0.217837 -0 -0.000752259 -0 3.49732e-05)
(0.000657457 -0.192726 -0 -0.000778223 -0 0.000120766)
(0.000588886 -0.168244 -0 -0.000550089 -0 -3.87972e-05)
(0.000741063 -0.121497 -0 -0.00100721 -0 0.000266146)
(0.00263634 -0.150476 -0 -0.00257889 -0 -5.74444e-05)
(0.00114073 0.0696585 -0 -0.000730883 -0 -0.000409845)
(-0.0214546 0.0364356 -0 0.0191949 -0 0.00225968)
(0.00340183 -1.25718 -0 -0.000434832 -0 -0.002967)
(0.0742172 0.600467 -0 -0.0744277 -0 0.000210427)
(0.0353302 2.0468 -0 -0.0393149 -0 0.00398473)
(-0.0352316 0.863369 -0 0.0332788 -0 0.00195278)
(-0.0565548 0.67478 -0 0.061077 -0 -0.0045222)
(-0.0228566 0.154935 -0 0.0209572 -0 0.00189941)
(0.0217979 0.421034 -0 -0.0235092 -0 0.00171134)
(0.0298432 0.844499 -0 -0.0280307 -0 -0.00181255)
(-0.0176919 0.689652 -0 0.0112942 -0 0.00639769)
(-0.11268 -0.968782 -0 0.105559 -0 0.00712157)
(-0.171694 -2.26084 -0 0.173045 -0 -0.00135099)
(-0.163651 -3.45848 -0 0.162139 -0 0.001512)
(-0.0784814 -4.52527 -0 0.0761682 -0 0.00231319)
(0.121651 -3.57473 -0 -0.115562 -0 -0.00608959)
(0.396494 1.63937 -0 -0.394127 -0 -0.0023666)
(0.271713 2.91955 -0 -0.262647 -0 -0.0090659)
(0.0165174 1.84371 -0 -0.0154071 -0 -0.00111031)
(-0.00509551 1.58206 -0 0.00362251 -0 0.001473)
(-0.0224647 1.34823 -0 0.0204384 -0 0.00202624)
(-0.0395103 1.10247 -0 0.0371675 -0 0.0023428)
(-0.0561067 0.744713 -0 0.0497286 -0 0.00637813)
(-0.0614177 0.275687 -0 0.0504749 -0 0.0109428)
(-0.153236 -0.0983938 -0 0.152651 -0 0.000584389)
(-0.167141 -1.11296 -0 0.166703 -0 0.000437723)
(0.0106057 -1.29814 -0 0.00430613 -0 -0.0149119)
(-0.119984 -1.42721 -0 0.0571053 -0 0.0628785)
(0.0292663 -1.4358 -0 0.0740228 -0 -0.103289)
(0.0129939 -2.07347 -0 -0.0129845 -0 -9.43922e-06)
(0.00385958 -1.41435 -0 -0.00385318 -0 -6.40053e-06)
(0.00122842 -1.07774 -0 -0.00122498 -0 -3.44605e-06)
(0.000646814 -0.916679 -0 -0.000644439 -0 -2.37547e-06)
(0.000427506 -0.818574 -0 -0.000425449 -0 -2.05706e-06)
(0.00031753 -0.750665 -0 -0.000315961 -0 -1.56886e-06)
(0.000254458 -0.699741 -0 -0.000252697 -0 -1.76114e-06)
(0.000211546 -0.659018 -0 -0.000210173 -0 -1.37285e-06)
(0.000178651 -0.626345 -0 -0.000176808 -0 -1.84381e-06)
(0.000154219 -0.598969 -0 -0.000152941 -0 -1.27755e-06)
(0.000134402 -0.576372 -0 -0.000132633 -0 -1.76842e-06)
(0.000119643 -0.556733 -0 -0.000118597 -0 -1.04621e-06)
(0.00010628 -0.540204 -0 -0.000104759 -0 -1.52058e-06)
(9.6249e-05 -0.525516 -0 -9.56048e-05 -0 -6.44194e-07)
(8.63645e-05 -0.513053 -0 -8.53048e-05 -0 -1.05969e-06)
(7.90919e-05 -0.501809 -0 -7.90613e-05 -0 -3.06776e-08)
(7.12937e-05 -0.49225 -0 -7.09548e-05 -0 -3.38849e-07)
(6.57309e-05 -0.483541 -0 -6.65551e-05 -0 8.2416e-07)
(5.93639e-05 -0.476156 -0 -6.00297e-05 -0 6.65795e-07)
(5.49959e-05 -0.469384 -0 -5.6924e-05 -0 1.92802e-06)
(4.97325e-05 -0.463667 -0 -5.16818e-05 -0 1.9493e-06)
(4.62513e-05 -0.458401 -0 -4.95224e-05 -0 3.27113e-06)
(4.19062e-05 -0.45398 -0 -4.53971e-05 -0 3.49094e-06)
(3.91503e-05 -0.449898 -0 -4.39851e-05 -0 4.83481e-06)
(3.56746e-05 -0.446483 -0 -4.09206e-05 -0 5.24605e-06)
(3.36165e-05 -0.44332 -0 -4.01693e-05 -0 6.55278e-06)
(3.10139e-05 -0.440666 -0 -3.80974e-05 -0 7.08346e-06)
(2.95905e-05 -0.438191 -0 -3.78431e-05 -0 8.25255e-06)
(2.76844e-05 -0.436089 -0 -3.64681e-05 -0 8.78372e-06)
(2.66179e-05 -0.434118 -0 -3.63538e-05 -0 9.73591e-06)
(2.50709e-05 -0.432414 -0 -3.5297e-05 -0 1.02261e-05)
(2.41438e-05 -0.430819 -0 -3.51532e-05 -0 1.10094e-05)
(2.29925e-05 -0.429411 -0 -3.45689e-05 -0 1.15764e-05)
(2.26184e-05 -0.428089 -0 -3.49749e-05 -0 1.23565e-05)
(2.26793e-05 -0.42686 -0 -3.58457e-05 -0 1.31664e-05)
(2.39807e-05 -0.425661 -0 -3.8067e-05 -0 1.40863e-05)
(2.65736e-05 -0.424423 -0 -4.17664e-05 -0 1.51928e-05)
(3.09829e-05 -0.423104 -0 -4.72725e-05 -0 1.62896e-05)
(3.76209e-05 -0.421582 -0 -5.5262e-05 -0 1.76411e-05)
(4.69119e-05 -0.41982 -0 -6.58082e-05 -0 1.88963e-05)
(5.97245e-05 -0.417649 -0 -8.01619e-05 -0 2.04374e-05)
(7.67795e-05 -0.415017 -0 -9.86182e-05 -0 2.18387e-05)
(9.93731e-05 -0.411693 -0 -0.000122896 -0 2.35232e-05)
(0.000128915 -0.40759 -0 -0.000154015 -0 2.51004e-05)
(0.000167257 -0.402391 -0 -0.000194098 -0 2.68411e-05)
(0.000216841 -0.395932 -0 -0.000245543 -0 2.87013e-05)
(0.000277626 -0.387764 -0 -0.000308257 -0 3.06315e-05)
(0.000363919 -0.37787 -0 -0.000396391 -0 3.24722e-05)
(0.000444175 -0.364702 -0 -0.00047954 -0 3.53646e-05)
(0.000591229 -0.350681 -0 -0.000629282 -0 3.8053e-05)
(0.000694339 -0.32966 -0 -0.000731314 -0 3.69747e-05)
(0.000846751 -0.309856 -0 -0.00090461 -0 5.78588e-05)
(0.00119707 -0.28214 -0 -0.00122906 -0 3.19835e-05)
(0.00108359 -0.263364 -0 -0.00117331 -0 8.97147e-05)
(0.00113981 -0.222841 -0 -0.00119834 -0 5.85267e-05)
(0.000999241 -0.197399 -0 -0.0011607 -0 0.000161461)
(0.00102195 -0.173842 -0 -0.000967882 -0 -5.4063e-05)
(0.000966636 -0.126217 -0 -0.00130495 -0 0.000338313)
(0.00387117 -0.14523 -0 -0.00386398 -0 -7.19288e-06)
(0.00242498 0.0188131 -0 -0.00184637 -0 -0.000578604)
(-0.0294814 0.0725757 -0 0.0267019 -0 0.00277957)
(0.00733405 -0.959386 -0 -0.00389413 -0 -0.00343992)
(0.0976789 0.504807 -0 -0.0987958 -0 0.00111694)
(0.02933 1.13346 -0 -0.0338193 -0 0.00448924)
(-0.050776 -0.0434946 -0 0.0501104 -0 0.000665653)
(-0.0589863 0.241467 -0 0.0628941 -0 -0.00390781)
(-0.0224139 0.0361582 -0 0.0192893 -0 0.00312464)
(0.0299427 0.254978 -0 -0.0310612 -0 0.00111845)
(0.0274316 0.439055 -0 -0.0247018 -0 -0.00272985)
(-0.0479825 -0.0768023 -0 0.0385953 -0 0.00938727)
(-0.160748 -1.44774 -0 0.159751 -0 0.000997265)
(-0.203807 -2.05161 -0 0.208005 -0 -0.00419803)
(-0.193595 -2.61696 -0 0.19399 -0 -0.000395554)
(-0.0562059 -2.78878 -0 0.058524 -0 -0.00231812)
(0.312306 0.541626 -0 -0.302094 -0 -0.0102116)
(0.471624 4.85938 -0 -0.460114 -0 -0.0115109)
(0.176131 1.44113 -0 -0.168931 -0 -0.00719964)
(-0.0103718 0.877 -0 0.00660796 -0 0.00376382)
(-0.0151889 0.717133 -0 0.0144074 -0 0.00078145)
(-0.0334745 0.55241 -0 0.0309968 -0 0.00247773)
(-0.0548641 0.361253 -0 0.0523763 -0 0.00248779)
(-0.078133 0.121802 -0 0.0723877 -0 0.00574531)
(-0.0875738 -0.210619 -0 0.0798525 -0 0.00772128)
(-0.186187 -0.548539 -0 0.185689 -0 0.000498022)
(-0.188602 -0.960357 -0 0.186996 -0 0.00160612)
(-0.00412196 -0.803641 -0 0.0159122 -0 -0.0117903)
(-0.123778 -1.46231 -0 0.0862709 -0 0.0375069)
(0.164384 -0.525536 -0 -0.150642 -0 -0.0137419)
(0.0114413 -1.64155 -0 -0.0114277 -0 -1.36099e-05)
(0.00463165 -1.35834 -0 -0.00462651 -0 -5.1469e-06)
(0.00171981 -1.06533 -0 -0.00171493 -0 -4.881e-06)
(0.000919162 -0.909939 -0 -0.000915927 -0 -3.23433e-06)
(0.000609175 -0.813795 -0 -0.000606401 -0 -2.77332e-06)
(0.000452692 -0.746824 -0 -0.000450589 -0 -2.10332e-06)
(0.000362442 -0.696588 -0 -0.000360066 -0 -2.37575e-06)
(0.000301341 -0.656453 -0 -0.00029949 -0 -1.8509e-06)
(0.000254732 -0.624149 -0 -0.000252231 -0 -2.50042e-06)
(0.000220088 -0.597063 -0 -0.000218362 -0 -1.72627e-06)
(0.000192008 -0.57462 -0 -0.00018961 -0 -2.39761e-06)
(0.000171056 -0.555127 -0 -0.000169649 -0 -1.40752e-06)
(0.000152192 -0.538646 -0 -0.00015014 -0 -2.0519e-06)
(0.000137991 -0.524002 -0 -0.00013714 -0 -8.51669e-07)
(0.000124104 -0.511507 -0 -0.000122694 -0 -1.41016e-06)
(0.000113843 -0.500225 -0 -0.000113838 -0 -5.02812e-09)
(0.000102953 -0.490564 -0 -0.000102541 -0 -4.11971e-07)
(9.51391e-05 -0.481747 -0 -9.63083e-05 -0 1.16925e-06)
(8.62988e-05 -0.474199 -0 -8.72681e-05 -0 9.69259e-07)
(8.01883e-05 -0.467255 -0 -8.2864e-05 -0 2.67568e-06)
(7.29191e-05 -0.461321 -0 -7.56383e-05 -0 2.71922e-06)
(6.80702e-05 -0.455829 -0 -7.25644e-05 -0 4.49422e-06)
(6.20997e-05 -0.451144 -0 -6.69016e-05 -0 4.80191e-06)
(5.8276e-05 -0.44679 -0 -6.48679e-05 -0 6.59191e-06)
(5.35178e-05 -0.443071 -0 -6.06653e-05 -0 7.14745e-06)
(5.06613e-05 -0.439601 -0 -5.95307e-05 -0 8.86934e-06)
(4.71002e-05 -0.436615 -0 -5.66691e-05 -0 9.56884e-06)
(4.51159e-05 -0.433811 -0 -5.62025e-05 -0 1.10866e-05)
(4.25153e-05 -0.43136 -0 -5.42842e-05 -0 1.17688e-05)
(4.10527e-05 -0.429044 -0 -5.40343e-05 -0 1.29816e-05)
(3.89921e-05 -0.42698 -0 -5.2588e-05 -0 1.35959e-05)
(3.77972e-05 -0.425025 -0 -5.23724e-05 -0 1.45752e-05)
(3.63497e-05 -0.423238 -0 -5.16301e-05 -0 1.52804e-05)
(3.59789e-05 -0.421536 -0 -5.22254e-05 -0 1.62465e-05)
(3.62174e-05 -0.419909 -0 -5.34717e-05 -0 1.72542e-05)
(3.81332e-05 -0.418313 -0 -5.65215e-05 -0 1.83884e-05)
(4.1777e-05 -0.416676 -0 -6.15354e-05 -0 1.97584e-05)
(4.78532e-05 -0.414974 -0 -6.89549e-05 -0 2.11017e-05)
(5.68839e-05 -0.41309 -0 -7.96458e-05 -0 2.27619e-05)
(6.94524e-05 -0.411005 -0 -9.37417e-05 -0 2.42893e-05)
(8.66652e-05 -0.408565 -0 -0.000112835 -0 2.61695e-05)
(0.000109507 -0.405739 -0 -0.000137376 -0 2.78692e-05)
(0.00013966 -0.402326 -0 -0.000169578 -0 2.99184e-05)
(0.000179007 -0.398261 -0 -0.000210847 -0 3.18407e-05)
(0.000230012 -0.393275 -0 -0.000263978 -0 3.39657e-05)
(0.000296181 -0.387238 -0 -0.000332476 -0 3.62945e-05)
(0.00037675 -0.379737 -0 -0.00041544 -0 3.86896e-05)
(0.000492777 -0.370849 -0 -0.000533788 -0 4.10111e-05)
(0.000599999 -0.359012 -0 -0.000644792 -0 4.4793e-05)
(0.000796985 -0.346591 -0 -0.000845132 -0 4.81468e-05)
(0.000942031 -0.328019 -0 -0.000989583 -0 4.75519e-05)
(0.00115116 -0.310055 -0 -0.00122518 -0 7.4021e-05)
(0.00150608 -0.285151 -0 -0.0015483 -0 4.22224e-05)
(0.00151145 -0.266181 -0 -0.00163059 -0 0.000119143)
(0.00160646 -0.22895 -0 -0.00168248 -0 7.60188e-05)
(0.00141479 -0.205322 -0 -0.00163513 -0 0.000220331)
(0.00155447 -0.181215 -0 -0.00148067 -0 -7.38067e-05)
(0.00134649 -0.132838 -0 -0.00181622 -0 0.000469734)