/*--------------------------------*- C++ -*----------------------------------*\
| =========                 |                                                 |
| \\      /  F ield         | OpenFOAM: The Open Source CFD Toolbox           |
|  \\    /   O peration     | Version:  2306                                  |
|   \\  /    A nd           | Website:  www.openfoam.com                      |
|    \\/     M anipulation  |                                                 |
\*---------------------------------------------------------------------------*/
FoamFile
{
    version     2.0;
    format      ascii;
    arch        "LSB;label=32;scalar=64";
    class       volVectorField;
    location    "1800";
    object      U;
}
// * * * * * * * * * * * * * * * * * * * * * * * * * * * * * * * * * * * * * //

dimensions      [0 1 -1 0 0 0 0];

internalField   nonuniform List<vector> 
20540
(
(29.993 -0.000532276 0)
(58.6963 0.00528639 0)
(30.0661 -0.001707 0)
(58.5677 0.0156981 0)
(30.259 -0.00311028 0)
(58.2332 0.0263498 0)
(30.6373 -0.00474279 0)
(57.5951 0.0367358 0)
(31.2843 -0.00658311 0)
(56.5438 0.0462843 0)
(32.292 -0.00855619 0)
(54.9792 0.0542817 0)
(33.7359 -0.0105047 0)
(52.8531 0.0599549 0)
(35.629 -0.0121672 0)
(50.2352 0.0626592 0)
(37.8655 -0.0131953 0)
(47.3929 0.0621804 0)
(40.1848 -0.0132687 0)
(44.8304 0.0591107 0)
(42.2112 -0.012338 0)
(43.167 0.0550388 0)
(43.5933 -0.0108547 0)
(42.7613 0.0520307 0)
(44.2059 -0.00963075 0)
(43.2989 0.0512131 0)
(44.2728 -0.00915803 0)
(43.9522 0.0517554 0)
(44.1948 -0.00914575 0)
(44.1998 0.0521094 0)
(44.1791 -0.00911387 0)
(44.1829 0.0518451 0)
(44.1942 -0.0089764 0)
(44.1554 0.0512599 0)
(44.199 -0.00879761 0)
(44.1547 0.0504855 0)
(44.1989 -0.00858897 0)
(44.1566 0.0495334 0)
(44.1991 -0.00834032 0)
(44.1573 0.048392 0)
(44.1994 -0.00803752 0)
(44.1582 0.0470172 0)
(44.1996 -0.00767283 0)
(44.1594 0.0453617 0)
(44.1999 -0.00724105 0)
(44.1608 0.0433798 0)
(44.2001 -0.00673588 0)
(44.1624 0.0410211 0)
(44.2003 -0.00615471 0)
(44.1643 0.0382284 0)
(44.2005 -0.00549247 0)
(44.1665 0.0349266 0)
(44.2007 -0.00472167 0)
(44.1689 0.0310326 0)
(44.2009 -0.00382578 0)
(44.1714 0.0265397 0)
(44.201 -0.00287162 0)
(44.1739 0.0215294 0)
(44.2012 -0.00191997 0)
(44.1763 0.0159183 0)
(44.2013 -0.000981862 0)
(44.178 0.0100222 0)
(44.2013 -4.58902e-05 0)
(44.1787 0.00410963 0)
(44.2013 0.000891868 0)
(44.1787 -0.00187757 0)
(44.2013 0.00179745 0)
(44.1778 -0.00773906 0)
(44.2011 0.00268759 0)
(44.176 -0.0135296 0)
(44.201 0.00358478 0)
(44.1737 -0.0190423 0)
(44.2008 0.00446268 0)
(44.1711 -0.0240366 0)
(44.2006 0.00525618 0)
(44.1686 -0.0285592 0)
(44.2004 0.00593536 0)
(44.1663 -0.0325521 0)
(44.2002 0.00652629 0)
(44.1641 -0.0360302 0)
(44.2 0.00704218 0)
(44.1622 -0.0390367 0)
(44.1997 0.00748805 0)
(44.1605 -0.041615 0)
(44.1995 0.00786936 0)
(44.1591 -0.0438093 0)
(44.1993 0.00819258 0)
(44.1579 -0.0456653 0)
(44.199 0.00846425 0)
(44.157 -0.0472271 0)
(44.1987 0.00868837 0)
(44.1563 -0.0485344 0)
(44.1989 0.00887199 0)
(44.1551 -0.049627 0)
(44.1979 0.00902816 0)
(44.1528 -0.0505372 0)
(44.1876 0.0091614 0)
(44.163 -0.0512711 0)
(44.1794 0.0092339 0)
(44.2019 -0.0517883 0)
(44.2288 0.00920575 0)
(44.1398 -0.0518386 0)
(44.2872 0.00933504 0)
(43.711 -0.0513117 0)
(44.0556 0.0100917 0)
(43.0217 -0.0511646 0)
(43.1933 0.0114522 0)
(42.7589 -0.0528052 0)
(41.6152 0.0127696 0)
(43.5713 -0.0563078 0)
(39.5253 0.0133757 0)
(45.5108 -0.0601776 0)
(37.2681 0.013017 0)
(48.1281 -0.0625707 0)
(35.1649 0.0118342 0)
(50.8644 -0.0622963 0)
(33.418 0.0101383 0)
(53.3128 -0.0590299 0)
(32.0971 0.00823108 0)
(55.2749 -0.0530764 0)
(31.1763 0.00633083 0)
(56.7124 -0.0450569 0)
(30.583 0.00456748 0)
(57.6791 -0.0356739 0)
(30.2337 0.00300224 0)
(58.2684 -0.0255645 0)
(30.0538 0.00165228 0)
(58.5797 -0.0152316 0)
(29.9849 0.00051627 0)
(58.7005 -0.00513087 0)
(3.04985 0.00686087 0)
(1.2239 9.4292e-05 0)
(0.923428 1.6603e-05 0)
(0.783817 8.70975e-06 0)
(0.699846 5.59578e-06 0)
(0.642014 4.01983e-06 0)
(0.598338 3.18435e-06 0)
(0.563252 2.58299e-06 0)
(0.535232 2.16466e-06 0)
(0.511786 1.87876e-06 0)
(0.492565 1.60249e-06 0)
(0.475852 1.50687e-06 0)
(0.461919 1.29434e-06 0)
(0.449562 1.32002e-06 0)
(0.439213 1.14552e-06 0)
(0.429924 1.25955e-06 0)
(0.422172 1.12489e-06 0)
(0.415179 1.301e-06 0)
(0.409405 1.21078e-06 0)
(0.404188 1.41881e-06 0)
(0.399951 1.37525e-06 0)
(0.39613 1.58921e-06 0)
(0.393101 1.59428e-06 0)
(0.390385 1.79933e-06 0)
(0.388303 1.8523e-06 0)
(0.386452 2.03951e-06 0)
(0.385088 2.12804e-06 0)
(0.383882 2.28413e-06 0)
(0.383036 2.38032e-06 0)
(0.382303 2.49002e-06 0)
(0.381842 2.56583e-06 0)
(0.381484 2.62733e-06 0)
(0.381336 2.67532e-06 0)
(0.381281 2.70552e-06 0)
(0.381347 2.73638e-06 0)
(0.381442 2.76073e-06 0)
(0.381512 2.79163e-06 0)
(0.381479 2.84284e-06 0)
(0.381226 2.9038e-06 0)
(0.380676 3.03968e-06 0)
(0.379657 3.19687e-06 0)
(0.378067 3.51717e-06 0)
(0.37566 3.89303e-06 0)
(0.372292 4.53086e-06 0)
(0.367606 5.28406e-06 0)
(0.361384 6.6359e-06 0)
(0.353165 7.66796e-06 0)
(0.342744 9.87139e-06 0)
(0.328848 1.03974e-05 0)
(0.313701 1.57911e-05 0)
(0.290679 1.27363e-05 0)
(0.27054 2.52936e-05 0)
(0.241348 9.75091e-05 0)
(0.00278907 -1.92193e-05 0)
(0.187179 -2.63603e-05 0)
(0.000253997 -1.85232e-05 0)
(0.147462 -3.50448e-05 0)
(0.0605022 0.000226723 0)
(0.00137534 -9.35906e-05 0)
(-0.125816 0.000237871 0)
(0.0921558 -0.000844044 0)
(1.75914 -0.0033861 0)
(-0.351503 0.0049859 0)
(-3.51738 0.00691492 0)
(-3.27307 0.00238532 0)
(-1.68621 -0.00765843 0)
(-0.366734 -0.00211946 0)
(-0.490413 0.00338346 0)
(-1.26412 0.00393304 0)
(-2.25946 0.0072463 0)
(-0.933985 0.00674141 0)
(2.34439 -0.00853835 0)
(5.79167 -0.00964157 0)
(8.24084 -0.0113994 0)
(7.68809 0.0102798 0)
(2.2614 0.0426114 0)
(-3.16229 0.0400082 0)
(-3.89048 0.000986976 0)
(-3.91628 0.00296326 0)
(-3.6443 -0.00119054 0)
(-3.29292 -0.000867626 0)
(-2.88153 0.00486719 0)
(-2.12121 0.0120441 0)
(-1.15494 -0.010628 0)
(1.11022 -0.012417 0)
(1.89742 0.00109554 0)
(0.467196 -0.0832023 0)
(5.75449 -0.49315 0)
(9.0015 0.0215222 0)
(3.93174 0.00119529 0)
(2.96343 0.000261499 0)
(2.51578 0.000137306 0)
(2.24609 8.98476e-05 0)
(2.06038 6.69369e-05 0)
(1.92041 5.32746e-05 0)
(1.80812 4.45375e-05 0)
(1.71848 3.67722e-05 0)
(1.64353 3.20714e-05 0)
(1.58212 2.71317e-05 0)
(1.52875 2.46414e-05 0)
(1.48429 2.11051e-05 0)
(1.44487 1.97124e-05 0)
(1.41187 1.69867e-05 0)
(1.38223 1.62534e-05 0)
(1.35749 1.40819e-05 0)
(1.33512 1.37683e-05 0)
(1.31664 1.2057e-05 0)
(1.29988 1.2043e-05 0)
(1.28624 1.07493e-05 0)
(1.27388 1.09561e-05 0)
(1.26403 1.00506e-05 0)
(1.25515 1.04335e-05 0)
(1.24827 9.90166e-06 0)
(1.24209 1.04323e-05 0)
(1.23744 1.02261e-05 0)
(1.23327 1.08221e-05 0)
(1.2302 1.07965e-05 0)
(1.22747 1.1308e-05 0)
(1.22555 1.13202e-05 0)
(1.22393 1.17061e-05 0)
(1.22292 1.1857e-05 0)
(1.22218 1.23705e-05 0)
(1.22179 1.30464e-05 0)
(1.22149 1.41362e-05 0)
(1.22111 1.57648e-05 0)
(1.22045 1.78483e-05 0)
(1.21912 2.07782e-05 0)
(1.21693 2.42696e-05 0)
(1.21333 2.89701e-05 0)
(1.20803 3.45498e-05 0)
(1.20026 4.18501e-05 0)
(1.18959 5.06634e-05 0)
(1.17492 6.19541e-05 0)
(1.15555 7.55659e-05 0)
(1.13004 9.27359e-05 0)
(1.09784 0.000115165 0)
(1.05478 0.000138147 0)
(1.00758 0.000173103 0)
(0.936991 0.000203103 0)
(0.872656 0.000235389 0)
(0.783026 0.000878099 0)
(0.522959 0.000267788 0)
(0.604763 0.000196533 0)
(0.370425 0.00028034 0)
(0.469104 -7.54856e-05 0)
(0.267152 0.000631423 0)
(0.287047 0.000983139 0)
(-0.315696 -0.000670524 0)
(0.0262599 -0.00751267 0)
(5.00785 0.00034616 0)
(-0.566355 0.0338757 0)
(-9.17556 0.0265295 0)
(-8.63983 -0.0115549 0)
(-4.9881 -0.0282454 0)
(-0.902598 -0.0102425 0)
(-1.07163 0.00828388 0)
(-2.69903 0.0181488 0)
(-5.17679 0.000761074 0)
(-2.72092 -0.0536102 0)
(5.55749 -0.0924676 0)
(14.9912 -0.0697678 0)
(22.086 -0.020735 0)
(22.7672 0.0651668 0)
(13.744 0.183491 0)
(-5.16536 0.144706 0)
(-9.23624 0.0479864 0)
(-10.2637 0.0077497 0)
(-10.0016 -0.000976015 0)
(-9.06603 -0.00998142 0)
(-7.57488 -0.0227177 0)
(-5.60478 -0.0397508 0)
(-3.55073 -0.0602052 0)
(2.71343 -0.0511201 0)
(5.67155 -0.00901761 0)
(0.673231 0.0518747 0)
(16.962 0.168854 0)
(15.2093 0.0382931 0)
(7.20655 0.00379685 0)
(5.42616 0.000927216 0)
(4.60707 0.000486337 0)
(4.11263 0.00031933 0)
(3.77188 0.000237127 0)
(3.51532 0.000189334 0)
(3.30955 0.0001576 0)
(3.14514 0.000131447 0)
(3.00753 0.000113971 0)
(2.89461 9.77368e-05 0)
(2.79643 8.79982e-05 0)
(2.71444 7.66496e-05 0)
(2.64167 7.08119e-05 0)
(2.58055 6.21968e-05 0)
(2.52556 5.87588e-05 0)
(2.47947 5.19321e-05 0)
(2.43771 5.00588e-05 0)
(2.40296 4.46359e-05 0)
(2.37137 4.38687e-05 0)
(2.34541 3.96774e-05 0)
(2.32179 3.97005e-05 0)
(2.30269 3.66479e-05 0)
(2.28536 3.72723e-05 0)
(2.27163 3.53282e-05 0)
(2.2592 3.64415e-05 0)
(2.24951 3.54877e-05 0)
(2.24072 3.6848e-05 0)
(2.23393 3.64813e-05 0)
(2.22777 3.76593e-05 0)
(2.22308 3.74505e-05 0)
(2.21894 3.83055e-05 0)
(2.21591 3.84823e-05 0)
(2.21335 3.96976e-05 0)
(2.21141 4.13184e-05 0)
(2.20963 4.41889e-05 0)
(2.20769 4.85393e-05 0)
(2.20525 5.44021e-05 0)
(2.20162 6.26932e-05 0)
(2.19646 7.30435e-05 0)
(2.18881 8.69985e-05 0)
(2.17818 0.000104299 0)
(2.16321 0.000126914 0)
(2.14316 0.000155238 0)
(2.11611 0.000191369 0)
(2.08087 0.000237139 0)
(2.03488 0.000292636 0)
(1.97725 0.000368366 0)
(1.90043 0.000441177 0)
(1.81663 0.000569143 0)
(1.69111 0.000647013 0)
(1.57671 0.00080748 0)
(1.41585 0.001771 0)
(1.12104 0.00101747 0)
(1.0954 0.000828902 0)
(0.806203 0.00110472 0)
(0.846944 0.000300819 0)
(0.539588 0.00197429 0)
(0.640285 0.00299208 0)
(-0.524959 -0.0006084 0)
(0.0053413 -0.0225355 0)
(8.22508 -0.00542763 0)
(-1.95427 0.103875 0)
(-14.8928 0.0769871 0)
(-11.8554 -0.0337797 0)
(-7.05286 -0.099661 0)
(-1.3844 -0.0322333 0)
(-2.14371 0.0322156 0)
(-4.99582 0.0463102 0)
(-7.64059 0.0127361 0)
(-1.24784 -0.125917 0)
(11.0117 -0.266925 0)
(24.1525 -0.231563 0)
(34.5245 -0.101724 0)
(35.3001 0.157825 0)
(18.5629 0.557734 0)
(-13.0316 0.483118 0)
(-14.7933 0.0789828 0)
(-15.0172 0.0124929 0)
(-14.1311 -0.0163322 0)
(-12.5869 -0.0409488 0)
(-10.176 -0.0565313 0)
(-6.96027 -0.0649417 0)
(-3.95149 -0.213311 0)
(5.45313 -0.220427 0)
(9.21819 -0.0265685 0)
(3.79673 0.0468999 0)
(21.4977 -0.522957 0)
(21.5076 0.057074 0)
(11.1407 0.00845645 0)
(8.3972 0.00228554 0)
(7.1315 0.00119749 0)
(6.36603 0.000787726 0)
(5.83801 0.000584912 0)
(5.44092 0.000467063 0)
(5.12269 0.000388702 0)
(4.86815 0.000324936 0)
(4.65504 0.00028163 0)
(4.47989 0.000242252 0)
(4.32761 0.000217784 0)
(4.20017 0.000190463 0)
(4.08699 0.000175475 0)
(3.99168 0.000154864 0)
(3.90585 0.000145675 0)
(3.83362 0.000129395 0)
(3.76806 0.00012397 0)
(3.71323 0.000111016 0)
(3.66324 0.000108254 0)
(3.62184 9.81675e-05 0)
(3.58402 9.73245e-05 0)
(3.55311 8.98568e-05 0)
(3.52489 9.0485e-05 0)
(3.50215 8.5548e-05 0)
(3.48141 8.73801e-05 0)
(3.46484 8.47092e-05 0)
(3.44966 8.72053e-05 0)
(3.43753 8.59212e-05 0)
(3.42638 8.81359e-05 0)
(3.41747 8.73085e-05 0)
(3.40941 8.89387e-05 0)
(3.40298 8.90994e-05 0)
(3.39728 9.16867e-05 0)
(3.39247 9.52353e-05 0)
(3.38791 0.000101722 0)
(3.38309 0.000111616 0)
(3.37752 0.000125093 0)
(3.37018 0.000144181 0)
(3.3606 0.000168153 0)
(3.34733 0.000200488 0)
(3.32971 0.000240716 0)
(3.30572 0.000293335 0)
(3.27435 0.000359399 0)
(3.23272 0.0004438 0)
(3.17918 0.000550851 0)
(3.10986 0.000680951 0)
(3.02371 0.000859694 0)
(2.90896 0.00103135 0)
(2.7845 0.0013338 0)
(2.598 0.00152379 0)
(2.42684 0.00190489 0)
(2.18605 0.00329115 0)
(1.84072 0.00243552 0)
(1.69892 0.00222689 0)
(1.3381 0.00257749 0)
(1.31438 0.00125041 0)
(0.877642 0.00384844 0)
(1.03987 0.0074897 0)
(-0.654409 0.000198525 0)
(-0.169543 -0.0508929 0)
(11.2406 -0.00540025 0)
(-3.57552 0.224269 0)
(-19.2223 0.134916 0)
(-12.7075 -0.0929647 0)
(-8.26316 -0.193507 0)
(-1.65483 -0.0579931 0)
(-3.16161 0.0725602 0)
(-6.85766 0.084279 0)
(-8.4469 -0.0152039 0)
(2.29865 -0.30891 0)
(16.8392 -0.535047 0)
(32.0715 -0.477171 0)
(44.3364 -0.206672 0)
(39.7682 0.346518 0)
(3.71764 1.1814 0)
(-19.5475 0.770468 0)
(-18.1908 0.0807672 0)
(-17.958 0.000848973 0)
(-16.5428 -0.0483444 0)
(-14.3847 -0.0991704 0)
(-11.121 -0.134735 0)
(-6.83032 -0.143085 0)
(-2.92089 -0.445911 0)
(8.24798 -0.47244 0)
(12.0514 -0.0581397 0)
(7.88095 0.0687805 0)
(22.9118 -0.173232 0)
(27.6721 0.077481 0)
(15.7836 0.0156056 0)
(11.9675 0.0047025 0)
(10.1714 0.0024713 0)
(9.08162 0.00162837 0)
(8.32872 0.00120917 0)
(7.7631 0.000965154 0)
(7.31021 0.000803147 0)
(6.9475 0.000672416 0)
(6.64374 0.000582913 0)
(6.39366 0.0005024 0)
(6.17627 0.000451496 0)
(5.99394 0.000395926 0)
(5.83199 0.000364494 0)
(5.69519 0.000322778 0)
(5.57193 0.000303214 0)
(5.46777 0.000270401 0)
(5.37311 0.000258514 0)
(5.29348 0.000232455 0)
(5.22073 0.000225979 0)
(5.16 0.000205671 0)
(5.10435 0.000203092 0)
(5.05835 0.000187984 0)
(5.01616 0.000188381 0)
(4.98162 0.000178246 0)
(4.9499 0.000181054 0)
(4.92401 0.000175338 0)
(4.90011 0.0001795 0)
(4.88047 0.000176521 0)
(4.86225 0.000180267 0)
(4.84712 0.000178305 0)
(4.83321 0.000181123 0)
(4.82152 0.000181246 0)
(4.81084 0.000186115 0)
(4.80133 0.000192918 0)
(4.79215 0.000205471 0)
(4.7826 0.000224633 0)
(4.77204 0.000250845 0)
(4.75907 0.00028792 0)
(4.74313 0.000334639 0)
(4.72222 0.000397571 0)
(4.69555 0.000476066 0)
(4.66038 0.000578683 0)
(4.61543 0.000707769 0)
(4.55687 0.000872789 0)
(4.48254 0.00108288 0)
(4.38715 0.0013376 0)
(4.26973 0.00169079 0)
(4.11332 0.00202885 0)
(3.94484 0.00262688 0)
(3.69237 0.00301679 0)
(3.45822 0.0037764 0)
(3.12988 0.00564366 0)
(2.72086 0.00491813 0)
(2.45019 0.0047133 0)
(2.0069 0.00519048 0)
(1.90454 0.00313904 0)
(1.30769 0.00704315 0)
(1.52195 0.0148681 0)
(-0.622367 0.00343621 0)
(-0.440405 -0.0961016 0)
(13.9678 -0.00392366 0)
(-4.97114 0.410717 0)
(-21.5152 0.192169 0)
(-11.3825 -0.185713 0)
(-8.40488 -0.302017 0)
(-1.57266 -0.0805593 0)
(-3.62777 0.130714 0)
(-7.52229 0.111378 0)
(-6.95292 -0.0784865 0)
(7.64339 -0.615208 0)
(23.4314 -0.916017 0)
(39.8805 -0.826157 0)
(50.985 -0.281942 0)
(30.7263 1.08842 0)
(-10.6378 1.91801 0)
(-21.2135 0.960421 0)
(-19.888 0.0691551 0)
(-19.1636 -0.0303554 0)
(-17.2942 -0.104411 0)
(-14.6083 -0.194559 0)
(-10.7859 -0.261638 0)
(-5.57509 -0.288305 0)
(-0.508032 -0.780072 0)
(11.234 -0.783777 0)
(13.9423 -0.112025 0)
(12.667 -0.119772 0)
(23.456 -0.141272 0)
(33.4159 0.0986892 0)
(21.0906 0.0255392 0)
(16.2156 0.00865461 0)
(13.8116 0.0046002 0)
(12.3409 0.00303856 0)
(11.3215 0.00225731 0)
(10.5558 0.00180085 0)
(9.943 0.00149857 0)
(9.45136 0.00125621 0)
(9.03945 0.00108952 0)
(8.69954 0.00094046 0)
(8.40413 0.000845253 0)
(8.15567 0.000742824 0)
(7.93497 0.000683836 0)
(7.74786 0.00060732 0)
(7.57916 0.000570349 0)
(7.43593 0.000510476 0)
(7.30558 0.000487702 0)
(7.19524 0.000440343 0)
(7.09419 0.000427512 0)
(7.00911 0.000390691 0)
(6.93088 0.000384989 0)
(6.86544 0.000357591 0)
(6.80516 0.000357288 0)
(6.75498 0.000338777 0)
(6.70863 0.000342765 0)
(6.67 0.000332039 0)
(6.6341 0.000338413 0)
(6.60384 0.000332514 0)
(6.57555 0.000338279 0)
(6.55134 0.000334345 0)
(6.52878 0.000338796 0)
(6.50909 0.000338816 0)
(6.49075 0.000347203 0)
(6.47384 0.000359132 0)
(6.45741 0.000381169 0)
(6.44042 0.000414789 0)
(6.42221 0.00046083 0)
(6.40089 0.000525808 0)
(6.37588 0.000607829 0)
(6.34459 0.000718079 0)
(6.30615 0.000855795 0)
(6.25706 0.00103565 0)
(6.19583 0.00126217 0)
(6.11767 0.00155184 0)
(6.01993 0.00192206 0)
(5.89576 0.00236925 0)
(5.74469 0.00299661 0)
(5.54348 0.00359491 0)
(5.32837 0.00465441 0)
(5.00635 0.00538091 0)
(4.70392 0.00673639 0)
(4.28123 0.00919312 0)
(3.79673 0.00895039 0)
(3.38253 0.00877622 0)
(2.84901 0.00949012 0)
(2.6479 0.00651119 0)
(1.8556 0.0123701 0)
(2.12283 0.0254718 0)
(-0.338394 0.0104042 0)
(-0.544612 -0.163121 0)
(16.3272 -0.000943432 0)
(-7.87101 0.643995 0)
(-21.6464 0.232729 0)
(-8.93166 -0.301675 0)
(-7.26252 -0.415324 0)
(-0.950892 -0.0984408 0)
(-2.60177 0.2051 0)
(-5.971 0.127013 0)
(-2.50025 -0.245926 0)
(13.942 -1.03479 0)
(30.4619 -1.39754 0)
(46.9718 -1.19486 0)
(51.5036 0.0530614 0)
(15.5745 2.15541 0)
(-18.9559 2.63042 0)
(-20.4022 1.04336 0)
(-20.2562 0.0626047 0)
(-19.0762 -0.0856215 0)
(-16.7923 -0.188183 0)
(-13.7697 -0.33101 0)
(-9.75276 -0.464406 0)
(-3.36536 -0.5449 0)
(3.03717 -1.21118 0)
(14.2672 -1.114 0)
(15.1906 -0.237907 0)
(16.7478 -0.218065 0)
(23.3511 0.345067 0)
(38.395 0.119331 0)
(26.8592 0.0382083 0)
(21.1627 0.0146632 0)
(18.1195 0.00798386 0)
(16.2204 0.00530043 0)
(14.8941 0.00394323 0)
(13.8958 0.00314577 0)
(13.0966 0.00261836 0)
(12.4535 0.00219847 0)
(11.9141 0.001908 0)
(11.4676 0.00165006 0)
(11.0794 0.00148323 0)
(10.7518 0.00130683 0)
(10.4606 0.00120302 0)
(10.2127 0.00107202 0)
(9.98894 0.00100642 0)
(9.79787 0.000904572 0)
(9.62371 0.000863518 0)
(9.47517 0.000783383 0)
(9.3388 0.0007594 0)
(9.22285 0.000697303 0)
(9.11588 0.000685489 0)
(9.02522 0.000639303 0)
(8.94132 0.000636616 0)
(8.87029 0.000605181 0)
(8.80434 0.000609611 0)
(8.7482 0.000590881 0)
(8.69575 0.000599236 0)
(8.65049 0.000588383 0)
(8.60796 0.000596023 0)
(8.5706 0.000588688 0)
(8.53548 0.000594837 0)
(8.50392 0.000594491 0)
(8.47414 0.000607747 0)
(8.44609 0.000627161 0)
(8.41867 0.000663039 0)
(8.39054 0.000717805 0)
(8.36098 0.000792905 0)
(8.32765 0.000898616 0)
(8.28993 0.00103233 0)
(8.24467 0.00121155 0)
(8.19096 0.00143581 0)
(8.12456 0.00172824 0)
(8.04384 0.00209703 0)
(7.94305 0.00256855 0)
(7.81918 0.00317398 0)
(7.66364 0.00390168 0)
(7.47692 0.00493694 0)
(7.2287 0.00592102 0)
(6.96509 0.00766035 0)
(6.57166 0.0089285 0)
(6.19733 0.011166 0)
(5.67395 0.014401 0)
(5.10395 0.0151506 0)
(4.53033 0.015031 0)
(3.89996 0.0161658 0)
(3.57364 0.0121665 0)
(2.55123 0.0207922 0)
(2.88672 0.0389102 0)
(0.264126 0.0220692 0)
(-0.0803602 -0.25575 0)
(18.2855 0.0109317 0)
(-10.4791 0.905591 0)
(-19.9138 0.244513 0)
(-6.37507 -0.429547 0)
(-4.9983 -0.547863 0)
(0.302014 -0.14619 0)
(0.695115 0.317041 0)
(-3.70138 0.101955 0)
(3.89734 -0.542958 0)
(18.4787 -1.5584 0)
(34.2481 -1.95862 0)
(50.237 -1.45195 0)
(43.6737 0.832787 0)
(0.610719 3.45975 0)
(-20.7296 3.16584 0)
(-19.4176 1.07642 0)
(-19.6253 0.0565874 0)
(-18.321 -0.164736 0)
(-15.6334 -0.305416 0)
(-12.385 -0.508723 0)
(-8.26021 -0.742676 0)
(-0.768541 -0.921615 0)
(5.3332 -1.73877 0)
(16.1718 -1.45032 0)
(15.5231 -0.392003 0)
(18.8946 -0.255133 0)
(23.1076 0.921128 0)
(42.2379 0.137512 0)
(32.6749 0.0529242 0)
(26.6891 0.0230961 0)
(23.0982 0.0130909 0)
(20.7629 0.00878592 0)
(19.1053 0.00655986 0)
(17.8492 0.00523984 0)
(16.8406 0.0043651 0)
(16.025 0.00367447 0)
(15.3392 0.00319206 0)
(14.7687 0.00276822 0)
(14.2724 0.00248859 0)
(13.8514 0.00220033 0)
(13.477 0.00202488 0)
(13.1562 0.00181231 0)
(12.8665 0.00169983 0)
(12.6173 0.00153582 0)
(12.3897 0.00146368 0)
(12.1938 0.0013354 0)
(12.0136 0.00129111 0)
(11.8587 0.00119203 0)
(11.7153 0.00116754 0)
(11.592 0.00109377 0)
(11.4775 0.00108407 0)
(11.3788 0.00103333 0)
(11.2868 0.00103501 0)
(11.2069 0.00100379 0)
(11.132 0.0010119 0)
(11.066 0.000992854 0)
(11.0037 0.00100071 0)
(10.9478 0.000987723 0)
(10.895 0.000994756 0)
(10.8465 0.000993534 0)
(10.8004 0.00101299 0)
(10.7564 0.00104285 0)
(10.7132 0.00109803 0)
(10.6692 0.00118242 0)
(10.6236 0.00129839 0)
(10.5737 0.00146108 0)
(10.5188 0.00166743 0)
(10.4552 0.00194298 0)
(10.3821 0.00228845 0)
(10.2945 0.00273793 0)
(10.1907 0.00330569 0)
(10.0641 0.00403091 0)
(9.91142 0.00496728 0)
(9.72228 0.00608612 0)
(9.49837 0.00770139 0)
(9.20225 0.00923519 0)
(8.8891 0.0119332 0)
(8.42422 0.014037 0)
(7.97709 0.017524 0)
(7.34688 0.0218672 0)
(6.68363 0.0242822 0)
(5.93476 0.0242806 0)
(5.19759 0.0260875 0)
(4.71196 0.0212393 0)
(3.43016 0.0331956 0)
(3.84705 0.0537516 0)
(1.18942 0.0392805 0)
(1.17419 -0.370688 0)
(19.9935 -0.0073764 0)
(-11.8009 1.25495 0)
(-17.1169 0.206741 0)
(-3.5674 -0.635886 0)
(-1.21577 -0.692222 0)
(2.0682 -0.156637 0)
(1.73005 0.370842 0)
(0.651965 0.00824892 0)
(9.4027 -0.90108 0)
(21.2963 -2.11621 0)
(36.0691 -2.55883 0)
(49.2874 -1.56356 0)
(30.3443 2.09093 0)
(-9.95707 4.75772 0)
(-18.9716 3.48954 0)
(-18.6457 1.11805 0)
(-18.4648 0.0420594 0)
(-17.304 -0.267104 0)
(-14.3163 -0.472102 0)
(-10.6009 -0.733913 0)
(-6.40802 -1.07427 0)
(0.630474 -1.36398 0)
(6.55717 -2.33482 0)
(16.2075 -1.78952 0)
(14.6803 -0.516646 0)
(18.9986 -0.513525 0)
(22.3958 1.67978 0)
(44.628 0.151071 0)
(37.9106 0.0680887 0)
(32.4252 0.0337923 0)
(28.5933 0.020286 0)
(25.9156 0.013903 0)
(23.951 0.0104646 0)
(22.4382 0.00839059 0)
(21.2129 0.00700575 0)
(20.2137 0.00592104 0)
(19.369 0.00515243 0)
(18.6614 0.00448633 0)
(18.0441 0.00403457 0)
(17.517 0.00358389 0)
(17.0472 0.00329669 0)
(16.6418 0.0029669 0)
(16.275 0.00277898 0)
(15.9567 0.00252662 0)
(15.6656 0.00240217 0)
(15.4124 0.00220599 0)
(15.179 0.00212524 0)
(14.9757 0.00197409 0)
(14.7872 0.00192445 0)
(14.6226 0.00181162 0)
(14.4694 0.00178526 0)
(14.3351 0.00170662 0)
(14.2095 0.00169823 0)
(14.0984 0.00164817 0)
(13.994 0.0016505 0)
(13.9004 0.00161856 0)
(13.8119 0.00162261 0)
(13.7312 0.00160079 0)
(13.6547 0.00160661 0)
(13.5835 0.00160388 0)
(13.5153 0.00163087 0)
(13.4497 0.00167512 0)
(13.3854 0.00175658 0)
(13.3203 0.00188148 0)
(13.2536 0.00205343 0)
(13.1821 0.00229353 0)
(13.1053 0.00259896 0)
(13.0189 0.00300477 0)
(12.9221 0.0035146 0)
(12.8095 0.00417576 0)
(12.6793 0.00501238 0)
(12.5241 0.00607903 0)
(12.3406 0.0074647 0)
(12.1166 0.00911094 0)
(11.8547 0.01152 0)
(11.5118 0.013813 0)
(11.1492 0.0178228 0)
(10.6146 0.021156 0)
(10.0975 0.0263801 0)
(9.35499 0.0323705 0)
(8.59292 0.037319 0)
(7.65625 0.037626 0)
(6.79195 0.0404998 0)
(6.10243 0.0354447 0)
(4.53534 0.050768 0)
(4.99427 0.0672331 0)
(2.4053 0.0627163 0)
(3.06583 -0.478417 0)
(19.3194 0.0377828 0)
(-13.3375 1.65302 0)
(-14.0734 0.0448795 0)
(-0.449003 -0.961157 0)
(2.53843 -0.84781 0)
(4.82562 -0.188394 0)
(5.50424 0.369065 0)
(7.02535 -0.0978649 0)
(13.3036 -1.24836 0)
(23.1137 -2.69719 0)
(36.3308 -3.18803 0)
(45.4877 -1.19355 0)
(16.0708 3.75515 0)
(-14.7736 5.82709 0)
(-16.6828 3.64687 0)
(-17.8119 1.18057 0)
(-17.0987 0.0215879 0)
(-15.9917 -0.402258 0)
(-12.8526 -0.697099 0)
(-9.02644 -1.01469 0)
(-5.1259 -1.45465 0)
(1.39486 -1.88178 0)
(6.96606 -2.96683 0)
(14.9618 -2.1217 0)
(13.0941 -0.650619 0)
(18.1762 -0.8784 0)
(20.5845 2.76014 0)
(45.4618 0.15827 0)
(41.8491 0.0812085 0)
(37.6892 0.0455754 0)
(34.1665 0.0294175 0)
(31.4192 0.0208805 0)
(29.2781 0.015974 0)
(27.5735 0.0129175 0)
(26.1658 0.010841 0)
(24.9995 0.0092197 0)
(24.0032 0.00804898 0)
(23.1592 0.0070478 0)
(22.4186 0.00634613 0)
(21.7802 0.0056703 0)
(21.2091 0.0052164 0)
(20.7116 0.0047251 0)
(20.2602 0.00442095 0)
(19.8644 0.00404779 0)
(19.5016 0.00383951 0)
(19.1823 0.00355096 0)
(18.8875 0.00340871 0)
(18.6272 0.0031867 0)
(18.3855 0.00309178 0)
(18.1714 0.00292528 0)
(17.9718 0.00286614 0)
(17.7939 0.00274829 0)
(17.6275 0.00271708 0)
(17.4779 0.00263947 0)
(17.3373 0.00262618 0)
(17.2093 0.00257468 0)
(17.0884 0.00256771 0)
(16.9769 0.00253256 0)
(16.8711 0.00253324 0)
(16.7716 0.00252805 0)
(16.6764 0.00256371 0)
(16.5844 0.00262734 0)
(16.4943 0.00274373 0)
(16.4036 0.00292271 0)
(16.3116 0.00316947 0)
(16.2147 0.00351207 0)
(16.1123 0.00394898 0)
(16 0.00452607 0)
(15.8768 0.00525225 0)
(15.7371 0.00619024 0)
(15.5788 0.00737935 0)
(15.3942 0.00889186 0)
(15.1797 0.010868 0)
(14.922 0.0132076 0)
(14.6234 0.0166666 0)
(14.238 0.0199808 0)
(13.8286 0.0257542 0)
(13.2289 0.0308041 0)
(12.6491 0.0384486 0)
(11.792 0.0469107 0)
(10.9265 0.0555197 0)
(9.79986 0.056735 0)
(8.769 0.0613431 0)
(7.81608 0.0574657 0)
(5.93308 0.0757949 0)
(6.30578 0.0767582 0)
(3.92059 0.090486 0)
(4.84229 -0.552986 0)
(14.9417 0.10348 0)
(-14.64 2.02438 0)
(-11.3867 -0.0680066 0)
(3.05031 -1.43865 0)
(6.23967 -1.03688 0)
(8.28026 -0.244717 0)
(9.97129 0.286676 0)
(12.4134 -0.268059 0)
(16.4814 -1.57531 0)
(24.4017 -3.31684 0)
(35.4814 -3.64625 0)
(37.6278 -0.277517 0)
(4.56481 5.59239 0)
(-15.2822 6.61516 0)
(-15.1048 3.73115 0)
(-16.8922 1.24529 0)
(-15.98 -0.0504571 0)
(-14.7234 -0.576375 0)
(-11.612 -0.973166 0)
(-7.86584 -1.34942 0)
(-4.14634 -1.88597 0)
(1.68403 -2.44853 0)
(6.65494 -3.61952 0)
(12.9752 -2.40696 0)
(11.2115 -0.870187 0)
(17.2833 -1.32735 0)
(17.4453 4.41489 0)
(45.0481 0.158914 0)
(43.9921 0.0896323 0)
(41.6303 0.0560689 0)
(39.0402 0.0392339 0)
(36.6823 0.0292773 0)
(34.6557 0.0230459 0)
(32.9401 0.0189505 0)
(31.4662 0.016072 0)
(30.2089 0.013804 0)
(29.1128 0.0121251 0)
(28.1667 0.0106999 0)
(27.3268 0.00966552 0)
(26.5925 0.00869876 0)
(25.9307 0.00801456 0)
(25.3468 0.00731326 0)
(24.8144 0.00684298 0)
(24.3417 0.00631257 0)
(23.9071 0.00598011 0)
(23.5196 0.00557107 0)
(23.161 0.00533399 0)
(22.8401 0.00501882 0)
(22.5418 0.00485083 0)
(22.2739 0.00461265 0)
(22.024 0.00449766 0)
(21.7983 0.0043259 0)
(21.5871 0.00425302 0)
(21.3949 0.00413583 0)
(21.2143 0.00409177 0)
(21.0484 0.00401088 0)
(20.8919 0.00398125 0)
(20.7465 0.0039255 0)
(20.6087 0.0039138 0)
(20.4787 0.00390332 0)
(20.3544 0.0039471 0)
(20.2343 0.00403475 0)
(20.1171 0.00419511 0)
(19.9999 0.00444332 0)
(19.8819 0.00478624 0)
(19.7594 0.00525997 0)
(19.6316 0.00586538 0)
(19.4941 0.00666043 0)
(19.3457 0.00766218 0)
(19.1808 0.00895088 0)
(18.9972 0.0105875 0)
(18.7868 0.0126659 0)
(18.5456 0.0153921 0)
(18.2606 0.0186245 0)
(17.9309 0.0234268 0)
(17.5134 0.028078 0)
(17.0652 0.0361918 0)
(16.4126 0.0435193 0)
(15.7837 0.05454 0)
(14.8233 0.0666941 0)
(13.8524 0.0803981 0)
(12.5598 0.0838951 0)
(11.3005 0.0921361 0)
(10.0121 0.0917719 0)
(7.75578 0.111876 0)
(7.84099 0.0835377 0)
(5.79899 0.130449 0)
(5.03172 -0.5437 0)
(9.3988 0.329148 0)
(-15.0803 2.29275 0)
(-7.68844 0.243287 0)
(6.73875 -2.0111 0)
(10.1284 -1.25203 0)
(12.2109 -0.334985 0)
(14.5022 0.153451 0)
(16.926 -0.422782 0)
(19.2951 -1.875 0)
(25.4261 -3.84267 0)
(33.8836 -4.00529 0)
(28.2573 1.01858 0)
(-2.95504 7.39416 0)
(-13.6209 7.13006 0)
(-14.0844 3.84185 0)
(-15.798 1.33463 0)
(-14.9117 -0.133018 0)
(-13.4731 -0.795265 0)
(-10.4326 -1.30503 0)
(-6.75892 -1.74014 0)
(-3.3257 -2.35258 0)
(1.71357 -3.06025 0)
(5.97299 -4.22997 0)
(10.5535 -2.70829 0)
(9.56611 -1.23887 0)
(16.4952 -1.72263 0)
(13.3475 6.00282 0)
(44.1613 0.155314 0)
(44.471 0.0922272 0)
(43.7016 0.0625999 0)
(42.358 0.0472875 0)
(40.8294 0.0374283 0)
(39.3095 0.030705 0)
(37.8867 0.02597 0)
(36.5743 0.0224545 0)
(35.3942 0.0195962 0)
(34.3253 0.0174047 0)
(33.3725 0.0155324 0)
(32.5073 0.0141231 0)
(31.7335 0.0128285 0)
(31.0261 0.0118672 0)
(30.3906 0.0109208 0)
(29.8057 0.0102407 0)
(29.2782 0.00952266 0)
(28.79 0.00902648 0)
(28.3485 0.00847077 0)
(27.9384 0.0081033 0)
(27.5665 0.007672 0)
(27.22 0.00739909 0)
(26.9049 0.00706867 0)
(26.6109 0.00686958 0)
(26.3424 0.00662538 0)
(26.0913 0.00648616 0)
(25.8607 0.00631265 0)
(25.6445 0.00621657 0)
(25.4447 0.00609114 0)
(25.2566 0.006021 0)
(25.0813 0.00593178 0)
(24.9157 0.00589449 0)
(24.7594 0.0058707 0)
(24.6104 0.00591711 0)
(24.4669 0.00602949 0)
(24.3274 0.00623969 0)
(24.1889 0.00657013 0)
(24.0503 0.00702928 0)
(23.9081 0.00766231 0)
(23.7612 0.00847344 0)
(23.6052 0.00953396 0)
(23.439 0.0108719 0)
(23.2569 0.0125877 0)
(23.0567 0.0147699 0)
(22.8307 0.0175424 0)
(22.5737 0.021182 0)
(22.2749 0.0255314 0)
(21.928 0.0319866 0)
(21.4979 0.0383219 0)
(21.0289 0.0494695 0)
(20.3527 0.0596579 0)
(19.6982 0.0752657 0)
(18.6802 0.0927949 0)
(17.6211 0.113304 0)
(16.2452 0.121747 0)
(14.7096 0.136983 0)
(13.0702 0.14483 0)
(10.27 0.166101 0)
(9.9234 0.0886624 0)
(7.77494 0.2142 0)
(5.62016 -0.576652 0)
(5.43548 0.620753 0)
(-14.2188 2.32652 0)
(-0.751504 0.375111 0)
(11.0913 -2.56463 0)
(14.4107 -1.48596 0)
(16.5019 -0.449976 0)
(18.977 -0.00558871 0)
(20.9525 -0.538579 0)
(22.0483 -2.09774 0)
(26.2744 -4.32806 0)
(31.9895 -3.87081 0)
(19.5078 2.7732 0)
(-6.21396 9.03503 0)
(-11.2556 7.51072 0)
(-13.113 4.02787 0)
(-14.5219 1.43618 0)
(-13.6782 -0.247323 0)
(-12.1138 -1.07066 0)
(-9.15838 -1.69737 0)
(-5.64536 -2.18789 0)
(-2.48691 -2.84381 0)
(1.69964 -3.68101 0)
(5.08962 -4.77237 0)
(8.17144 -3.02559 0)
(8.65409 -1.85949 0)
(14.9943 -1.63009 0)
(8.20163 8.55803 0)
(43.6573 0.151528 0)
(44.1463 0.0908997 0)
(44.1981 0.064364 0)
(43.8342 0.0514038 0)
(43.201 0.0429136 0)
(42.412 0.0368472 0)
(41.5511 0.0323364 0)
(40.6609 0.0287775 0)
(39.7882 0.0257261 0)
(38.9435 0.0232732 0)
(38.1485 0.0211185 0)
(37.3961 0.0194304 0)
(36.6977 0.0178736 0)
(36.0415 0.0166656 0)
(35.4356 0.0154977 0)
(34.8675 0.0146087 0)
(34.3439 0.0137073 0)
(33.8532 0.0130342 0)
(33.4015 0.0123258 0)
(32.9784 0.0118071 0)
(32.5891 0.0112474 0)
(32.2246 0.0108447 0)
(31.8892 0.0104056 0)
(31.5754 0.0100959 0)
(31.2862 0.0097603 0)
(31.0156 0.00952805 0)
(30.7655 0.00927802 0)
(30.5313 0.00910416 0)
(30.3139 0.00891365 0)
(30.1097 0.00877901 0)
(29.9192 0.00863685 0)
(29.7397 0.00855371 0)
(29.5704 0.00850148 0)
(29.4094 0.0085379 0)
(29.2548 0.00866895 0)
(29.105 0.00892843 0)
(28.9569 0.00934824 0)
(28.8095 0.0099381 0)
(28.6591 0.0107533 0)
(28.5047 0.0118018 0)
(28.3423 0.0131694 0)
(28.1704 0.0148969 0)
(27.9842 0.0171081 0)
(27.7809 0.0199217 0)
(27.5541 0.0235064 0)
(27.2976 0.028199 0)
(27.0036 0.0338803 0)
(26.6607 0.0422538 0)
(26.2456 0.0506077 0)
(25.7823 0.0654264 0)
(25.1329 0.079048 0)
(24.4856 0.100327 0)
(23.503 0.125184 0)
(22.4104 0.153503 0)
(21.0925 0.17207 0)
(19.3204 0.201267 0)
(17.4663 0.227311 0)
(14.1005 0.254392 0)
(13.5366 0.138988 0)
(7.59941 0.296861 0)
(10.3014 -0.589362 0)
(6.15535 0.783944 0)
(-11.0323 2.43803 0)
(7.52437 -0.515188 0)
(16.4298 -3.18161 0)
(19.1294 -1.7523 0)
(21.003 -0.597769 0)
(23.3266 -0.17925 0)
(24.8814 -0.621487 0)
(24.5753 -2.22436 0)
(27.4604 -4.60296 0)
(29.5517 -3.48071 0)
(12.3151 4.88888 0)
(-6.79092 10.3882 0)
(-8.95871 7.72612 0)
(-11.831 4.27155 0)
(-12.9502 1.52658 0)
(-12.1237 -0.409776 0)
(-10.4969 -1.42162 0)
(-7.63914 -2.15603 0)
(-4.32726 -2.69147 0)
(-1.47685 -3.34343 0)
(1.76711 -4.26248 0)
(4.26226 -5.22008 0)
(6.48335 -3.4719 0)
(8.02245 -2.80583 0)
(14.0312 -1.78506 0)
(3.26264 10.9738 0)
(43.7798 0.150182 0)
(43.9666 0.0893642 0)
(44.1165 0.0636139 0)
(44.135 0.0519963 0)
(44.0256 0.0447835 0)
(43.8007 0.0397749 0)
(43.4815 0.0360805 0)