/*--------------------------------*- C++ -*----------------------------------*\
| =========                 |                                                 |
| \\      /  F ield         | OpenFOAM: The Open Source CFD Toolbox           |
|  \\    /   O peration     | Version:  2306                                  |
|   \\  /    A nd           | Website:  www.openfoam.com                      |
|    \\/     M anipulation  |                                                 |
\*---------------------------------------------------------------------------*/
FoamFile
{
    version     2.0;
    format      ascii;
    arch        "LSB;label=32;scalar=64";
    class       volVectorField;
    location    "1800";
    object      wallShearStress;
}
// * * * * * * * * * * * * * * * * * * * * * * * * * * * * * * * * * * * * * //

dimensions      [0 2 -2 0 0 0 0];

internalField   uniform (0 0 0);

boundaryField
{
    inlet
    {
        type            calculated;
        value           uniform (0 0 0);
    }
    outlet
    {
        type            calculated;
        value           uniform (0 0 0);
    }
    lowerWallStartup
    {
        type            symmetryPlane;
    }
    upperWallStartup
    {
        type            symmetryPlane;
    }
    upperWall
    {
        type            calculated;
        value           nonuniform List<vector> 
218
(
(-3.59287 0.0160896 0)
(-1.44146 0.000348242 0)
(-1.08825 7.13737e-05 0)
(-0.923581 3.85687e-05 0)
(-0.82534 2.61233e-05 0)
(-0.756213 1.92419e-05 0)
(-0.705922 1.65571e-05 0)
(-0.663037 1.35016e-05 0)
(-0.631643 1.25115e-05 0)
(-0.602025 1.08738e-05 0)
(-0.581374 1.0234e-05 0)
(-0.559275 9.63986e-06 0)
(-0.545251 8.97541e-06 0)
(-0.527836 9.0683e-06 0)
(-0.518493 8.36961e-06 0)
(-0.504176 8.79124e-06 0)
(-0.498437 8.31874e-06 0)
(-0.486223 8.52242e-06 0)
(-0.483466 8.81024e-06 0)
(-0.472633 8.025e-06 0)
(-0.472462 9.85248e-06 0)
(-0.462436 7.12466e-06 0)
(-0.464604 1.14703e-05 0)
(-0.454899 5.70588e-06 0)
(-0.459255 1.37174e-05 0)
(-0.449427 3.68316e-06 0)
(-0.455877 1.66984e-05 0)
(-0.445507 9.53887e-07 0)
(-0.454016 2.05685e-05 0)
(-0.442763 -2.68421e-06 0)
(-0.453401 2.54771e-05 0)
(-0.441057 -7.5965e-06 0)
(-0.454004 3.15047e-05 0)
(-0.44046 -1.42328e-05 0)
(-0.455955 3.86334e-05 0)
(-0.441125 -2.29046e-05 0)
(-0.459452 4.67279e-05 0)
(-0.443263 -3.3586e-05 0)
(-0.464801 5.55449e-05 0)
(-0.447293 -4.5834e-05 0)
(-0.472578 6.48141e-05 0)
(-0.454004 -5.87878e-05 0)
(-0.483754 7.42801e-05 0)
(-0.464652 -7.1456e-05 0)
(-0.499821 8.35655e-05 0)
(-0.481026 -8.36285e-05 0)
(-0.522873 9.17598e-05 0)
(-0.505504 -9.69492e-05 0)
(-0.555475 9.75832e-05 0)
(-0.540806 -0.000113843 0)
(-0.600082 0.000100029 0)
(-0.589699 -0.000133885 0)
(-0.658359 9.73862e-05 0)
(-0.655587 -0.000152305 0)
(-0.731474 8.05235e-05 0)
(-0.743482 -0.000164105 0)
(-0.823627 8.15131e-06 0)
(-0.855512 -0.000140304 0)
(-0.933792 -0.000106789 0)
(-0.990689 -0.000115348 0)
(-1.06203 -0.000193582 0)
(-1.14789 -0.000152149 0)
(-1.24299 -0.000467946 0)
(-1.37208 -0.000294766 0)
(-1.46879 -0.000644275 0)
(-1.55538 -0.000441123 0)
(-1.62371 -0.000437081 0)
(-1.67605 -0.000704052 0)
(-1.76327 -0.000336023 0)
(-1.7958 -0.00110136 0)
(-1.89935 -0.000203143 0)
(-1.93488 -0.00156988 0)
(-2.0339 -0.000555768 0)
(-2.0813 -0.00150431 0)
(-2.14893 -0.00124981 0)
(-2.222 -0.000925744 0)
(-2.25776 -0.00185016 0)
(-2.36224 -0.000472053 0)
(-2.39673 -0.00232606 0)
(-2.50699 -0.000700833 0)
(-2.5428 -0.00215837 0)
(-2.64203 -0.00127099 0)
(-2.66753 -0.00172873 0)
(-2.76991 -0.00118579 0)
(-2.79068 -0.00211374 0)
(-2.91087 -0.000628305 0)
(-2.92769 -0.00283903 0)
(-3.04902 -0.000188706 0)
(-3.04376 -0.00262993 2.50902e-19)
(-3.14131 -7.42894e-05 0)
(-3.12053 -0.00255349 -2.4535e-19)
(-3.21439 -0.000344945 2.42583e-19)
(-3.19592 -0.00272018 0)
(-3.28291 -0.00052861 2.36981e-19)
(-3.2637 -0.00287552 0)
(-3.34339 -0.000614887 0)
(-3.32712 -0.00289194 0)
(-3.40441 -0.000624108 0)
(-3.39753 -0.00275566 -2.22989e-19)
(-3.47822 -0.000617867 0)
(-3.48431 -0.00256019 2.1732e-19)
(-3.57034 -0.000641907 0)
(-3.58745 -0.00242745 2.11474e-19)
(-3.67631 -0.00071257 -2.08568e-19)
(-3.69872 -0.00241094 0)
(-3.78598 -0.000793173 -2.02467e-19)
(-3.81044 -0.00246771 0)
(-3.89426 -0.000838929 1.96243e-19)
(-3.92428 -0.00247791 0)
(-4.00727 -0.000893902 0)
(-4.04778 -0.00239996 0)
(-4.13239 -0.00099295 0)
(-4.18209 -0.00231226 0)
(-4.26712 -0.00113415 0)
(-4.32031 -0.00230845 0)
(-4.40379 -0.00128243 -1.69285e-19)
(-4.45912 -0.00236816 1.65537e-19)
(-4.54242 -0.0013857 -1.62066e-19)
(-4.60537 -0.00239893 1.58204e-19)
(-4.69194 -0.00144887 0)
(-4.76681 -0.00233276 1.50627e-19)
(-4.85785 -0.00148322 0)
(-4.94174 -0.00222177 1.42693e-19)
(-5.03533 -0.00151865 0)
(-5.12219 -0.00216284 0)
(-5.2166 -0.00155988 1.30279e-19)
(-5.30546 -0.00215612 0)
(-5.40109 -0.00163164 1.21474e-19)
(-5.49522 -0.00215472 0)
(-5.59182 -0.00169231 1.12297e-19)
(-5.68887 -0.00213374 0)
(-5.78365 -0.001717 1.0272e-19)
(-5.87561 -0.002121 0)
(-5.96712 -0.00172413 0)
(-6.05255 -0.0021293 8.7573e-20)
(-6.1436 -0.00171226 0)
(-6.23048 -0.00211682 7.73244e-20)
(-6.32388 -0.00166761 0)
(-6.4166 -0.00203327 6.6755e-20)
(-6.51105 -0.00156447 0)
(-6.60543 -0.00191077 5.57627e-20)
(-6.69838 -0.00146502 0)
(-6.79144 -0.00179278 0)
(-6.88099 -0.00138194 3.8731e-20)
(-6.97147 -0.00165874 0)
(-7.05372 -0.00130394 2.66223e-20)
(-7.13564 -0.0015054 0)
(-7.20606 -0.00119775 1.41841e-20)
(-7.27383 -0.00134388 0)
(-7.32993 -0.00105872 0)
(-7.38247 -0.00115289 -4.91978e-21)
(-7.42331 -0.000879903 -1.09748e-20)
(-7.46281 -0.000894405 0)
(-7.48869 -0.0006409 -2.33714e-20)
(-7.52043 -0.000571379 0)
(-7.5303 -0.000374336 -3.55205e-20)
(-7.55638 -0.0001678 0)
(-7.54559 -7.52454e-05 -4.73212e-20)
(-7.56286 0.000293683 0)
(-7.52709 0.000198677 -5.85254e-20)
(-7.53635 0.000803843 -6.39593e-20)
(-7.47427 0.000430763 0)
(-7.48271 0.00138616 -7.37177e-20)
(-7.39263 0.000678443 0)
(-7.40784 0.00205294 -8.22216e-20)
(-7.28849 0.000995745 0)
(-7.31916 0.00279122 0)
(-7.17746 0.00121925 -9.1863e-20)
(-7.23844 0.00351979 9.42134e-20)
(-7.08912 0.00118985 -9.57224e-20)
(-7.19815 0.004066 9.69708e-20)
(-7.05266 0.00100992 0)
(-7.22151 0.00432193 0)
(-7.09183 0.000786339 0)
(-7.32651 0.00417354 9.45845e-20)
(-7.25025 0.000213619 0)
(-7.5544 0.00349858 0)
(-7.59528 -0.000976294 0)
(-7.95361 0.00236148 0)
(-8.12338 -0.00238634 0)
(-8.5534 -3.48868e-05 0)
(-8.82683 -0.00342319 0)
(-9.34115 -0.00321879 -5.51754e-20)
(-9.72656 -0.00246547 4.79856e-20)
(-9.98303 -0.00023017 0)
(-10.2005 -0.00713934 0)
(-10.8517 -0.0149255 -6.47243e-21)
(-12.0654 -0.0201655 4.16699e-21)
(-13.6106 -0.018206 7.99657e-21)
(-15.0964 -0.0160292 9.4609e-21)
(-16.5214 -0.0140639 2.72338e-20)
(-17.7922 -0.0121824 3.73724e-20)
(-18.8313 -0.00997925 5.02148e-20)
(-19.543 -0.00748744 0)
(-19.6801 -0.00505674 1.51849e-19)
(-18.9835 -0.00127496 0)
(-17.2417 0.000764745 -3.6333e-19)
(-13.7726 0.00500512 0)
(-10.3096 0.00272869 0)
(-10.0781 -0.00966031 0)
(2.52049 0.0406397 0)
(14.2346 0.0337865 0)
(12.736 -0.00727428 0)
(-11.1854 -0.0545379 -3.79478e-19)
(-24.395 -0.0884079 0)
(-7.73822 0.0264511 -2.2164e-18)
(11.8273 0.0880214 1.6249e-18)
(6.25431 0.0456585 -3.6927e-19)
(-5.77815 -0.0263312 0)
(-3.93765 -0.0264952 -6.57243e-19)
(5.3912 0.082829 0)
(2.74625 0.110404 0)
(-0.932402 0.00308842 0)
(-3.22874 -0.0624638 0)
(-2.27272 -0.0572892 0)
(-0.652923 -0.0618045 0)
(-0.481954 -0.0844015 -6.44661e-19)
(-1.71893 -0.143104 0)
)
;
    }
    lowerWall
    {
        type            calculated;
        value           nonuniform List<vector> 
266
(
(-3.5925 -0.0160826 0)
(-1.44088 -0.000356548 0)
(-1.08706 -7.11447e-05 0)
(-0.922679 -3.74932e-05 0)
(-0.823817 -2.44821e-05 0)
(-0.755731 -1.79822e-05 0)
(-0.704312 -1.44031e-05 0)
(-0.663007 -1.18743e-05 0)
(-0.630022 -1.00194e-05 0)
(-0.60242 -8.64513e-06 0)
(-0.579794 -7.49676e-06 0)
(-0.560119 -6.7727e-06 0)
(-0.543717 -5.95791e-06 0)
(-0.529171 -5.58942e-06 0)
(-0.516987 -4.95746e-06 0)
(-0.506052 -4.82021e-06 0)
(-0.496928 -4.32059e-06 0)
(-0.488696 -4.33613e-06 0)
(-0.481899 -3.95185e-06 0)
(-0.475758 -4.05644e-06 0)
(-0.47077 -3.77857e-06 0)
(-0.466271 -3.92189e-06 0)
(-0.462706 -3.74604e-06 0)
(-0.459509 -3.90048e-06 0)
(-0.457058 -3.82428e-06 0)
(-0.45488 -3.97779e-06 0)
(-0.453273 -3.98531e-06 0)
(-0.451854 -4.11859e-06 0)
(-0.450858 -4.16289e-06 0)
(-0.449995 -4.24215e-06 0)
(-0.449452 -4.26522e-06 0)
(-0.449032 -4.2752e-06 0)
(-0.448857 -4.26204e-06 0)
(-0.448792 -4.24181e-06 0)
(-0.44887 -4.23989e-06 0)
(-0.448982 -4.27495e-06 0)
(-0.449064 -4.36831e-06 0)
(-0.449026 -4.57148e-06 0)
(-0.448727 -4.87504e-06 0)
(-0.44808 -5.41367e-06 0)
(-0.44688 -6.12521e-06 0)
(-0.445008 -7.28079e-06 0)
(-0.442176 -8.74853e-06 0)
(-0.438211 -1.09306e-05 0)
(-0.432695 -1.36598e-05 0)
(-0.42537 -1.77879e-05 0)
(-0.415695 -2.19075e-05 0)
(-0.403429 -2.88665e-05 0)
(-0.387071 -3.28647e-05 0)
(-0.369242 -4.74202e-05 0)
(-0.342142 -4.64213e-05 0)
(-0.318436 -7.11954e-05 0)
(-0.284075 -0.000332434 0)
(-0.0103641 -5.00355e-06 0)
(-0.220314 3.46613e-05 0)
(-0.0775341 0.00112235 0)
(-0.173566 9.78298e-05 0)
(-0.0712116 -0.000471565 0)
(-2.05171 -0.010056 0)
(0.148088 -0.000290059 0)
(-0.108459 0.00302398 0)
(-2.07131 0.00484176 0)
(0.413691 -0.0135033 0)
(4.1439 -0.0141867 0)
(3.85577 -0.000812269 0)
(1.98538 0.0168177 0)
(0.431632 0.0053418 0)
(0.577229 -0.00697988 0)
(1.48823 -0.00958452 0)
(2.66078 -0.0105929 0)
(1.09951 -0.000695693 0)
(-2.76082 0.0284469 0)
(-6.82955 0.0289738 0)
(-9.72914 0.0224547 0)
(-9.07415 -0.0320629 0)
(-2.66274 -0.0965258 0)
(3.72499 -0.0801661 0)
(4.58425 -0.00377539 0)
(4.61455 -0.00384969 0)
(4.29365 0.00395881 0)
(3.87911 0.00404632 0)
(3.39397 -0.00328636 0)
(2.49794 -0.0121906 0)
(1.35976 0.0299947 0)
(-1.30701 0.03242 0)
(-2.23372 -0.00487097 0)
(-0.546301 0.14965 0)
(-6.94633 0.73262 0)
(0.222246 9.37147 0)
(0.0955962 1.7008 0)
(0.186393 1.31833 2.20459e-21)
(0.24694 1.05175 -2.82752e-21)
(0.308776 0.790955 0)
(0.35807 0.56458 0)
(0.39525 0.396095 0)
(0.43978 0.285557 0)
(0.449704 -0.0685886 0)
(0.373164 -0.191257 8.4524e-20)
(0.394906 0.010421 -1.44545e-19)
(0.394637 0.0240174 3.15213e-19)
(0.388373 0.0978372 -3.52104e-19)
(0.507261 -0.195304 0)
(0.210413 -0.625969 -5.20933e-19)
(-0.20448 -0.348793 2.50198e-19)
(-0.30494 -0.00731929 0)
(-0.493043 0.209408 0)
(-0.879797 0.70725 0)
(-1.36359 1.6837 -2.88067e-19)
(-1.86739 3.40477 2.769e-19)
(-2.2106 6.15133 -3.06676e-19)
(-2.05627 9.82473 3.02225e-19)
(-1.14314 13.3433 0)
(0.163835 14.8179 -1.06404e-19)
(1.27079 14.3542 1.29325e-19)
(2.19138 12.9586 0)
(2.88898 10.8944 0)
(3.34544 8.6721 0)
(3.52439 6.42242 0)
(3.37944 4.36377 0)
(2.88 2.60585 0)
(2.08719 1.28738 2.07222e-18)
(1.19071 0.470176 4.34259e-20)
(1.13316 0.278062 -2.34474e-18)
(1.18496 0.20246 0)
(1.30525 0.059616 0)
(1.35008 -0.164903 0)
(1.32835 -0.360939 0)
(1.37441 -0.577819 0)
(1.71893 -1.00064 -1.31112e-18)
(1.96984 -1.51914 1.69623e-18)
(2.11764 -2.11911 0)
(2.16828 -2.80398 0)
(2.13123 -3.53073 0)
(2.01523 -4.28226 6.47793e-19)
(1.87524 -4.92122 -7.60802e-19)
(1.6781 -5.36822 0)
(1.80677 -0.138856 -0)
(1.2843 0.0335634 2.2573e-21)
(-3.45703 0.0202991 0)
(-6.8378 -0.017426 2.2045e-21)
(-14.2313 -13.21 0)
(3.34642 0.10957 0)
(-6.33624 0.0441511 0)
(-12.5358 -0.0248999 -0)
(-12.6598 -0.0790896 -0)
(-6.1471 -0.0907955 1.06205e-21)
(2.64848 -0.0560398 0)
(6.78942 0.00980505 0)
(2.99797 0.0228313 0)
(-1.8745 -0.110337 0)
(-3.15035 0.0874191 0)
(-2.95859 -0.00379229 0)
(-4.62291 -0.0517295 0)
(-1.58793 -0.054985 0)
(3.57631 0.000769606 0)
(2.80533 0.0471393 0)
(-0.338697 -0.0159871 -4.085e-22)
(0.278922 -0.0224674 0)
(1.3265 -0.0044718 -4.23659e-22)
(1.19276 -0.00978277 0)
(1.50698 -0.00945839 -4.28358e-22)
(2.06996 -0.0101126 0)
(2.70358 -0.0112333 -4.42221e-22)
(3.44943 -0.0117529 -0)
(4.25758 -0.0120744 0)
(5.13009 -0.013498 0)
(6.10617 -0.0124359 -5.88248e-22)
(7.12348 -0.012891 -6.63723e-22)
(8.18608 -0.00969034 -7.53156e-22)
(9.12906 -0.00748855 -8.56654e-22)
(9.89453 -0.00306341 -9.67898e-22)
(10.3132 0.000347813 0)
(10.4076 0.00274124 0)
(10.2032 0.00328111 -1.2909e-21)
(9.85693 0.00308037 -1.38279e-21)
(9.42718 0.00237843 -1.46699e-21)
(8.9729 0.00202703 -1.54372e-21)
(8.48874 0.00169386 -1.61356e-21)
(7.96435 0.00189571 -1.67603e-21)
(7.39448 0.0020127 0)
(6.79845 0.00223208 -1.7754e-21)
(6.27195 0.0014876 -1.8095e-21)
(5.86298 0.000594249 -1.83468e-21)
(5.59671 2.62605e-05 -1.85463e-21)
(5.41103 0.000570927 -1.8717e-21)
(5.40539 -0.00016303 -1.88423e-21)
(5.70849 -0.00531614 0)
(6.49826 -0.0156213 -1.90357e-21)
(7.46334 -0.0247182 -1.94721e-21)
(7.98307 -0.021134 -2.05033e-21)
(7.28636 -0.0108164 -2.21164e-21)
(5.39785 0.00307878 -2.38634e-21)
(2.90733 0.00875273 -2.52436e-21)
(0.116492 0.0124505 0)
(-3.10564 0.0210342 -2.65172e-21)
(-6.64656 0.0245782 -0)
(-10.4795 0.0309897 -0)
(-14.5887 0.0351629 -0)
(-18.8644 0.0409519 2.16595e-21)
(-22.7935 0.0393672 0)
(-25.9655 0.0360427 0)
(-27.8338 0.0254147 0)
(-28.2198 0.0139679 0)
(-26.7594 -0.00387674 0)
(-23.2807 -0.0253067 0)
(-16.704 -0.0720718 4.47165e-22)
(-5.55848 -0.132314 0)
(9.35864 -0.0904115 0)
(17.6522 -0.00823155 0)
(18.201 -0.00711824 1.88516e-21)
(19.4281 -0.0211619 0)
(25.6187 -0.0200069 0)
(31.7208 0.0170231 0)
(25.1585 0.17552 0)
(-5.38293 0.183666 -0)
(-33.6116 0.194557 0)
(-52.6036 -0.0155932 -1.45966e-21)
(-18.6235 -0.110532 0)
(2.51415 -0.100949 0)
(7.38984 0.0166675 -1.81987e-21)
(2.14934 0.126494 0)
(-13.8654 0.289971 -2.94688e-21)
(-29.5432 0.0557701 0)
(-19.1989 -0.0847383 0)
(2.36145 -0.0432685 5.50665e-21)
(13.1652 -0.0345036 0)
(19.2225 -0.0316135 -5.90577e-21)
(21.2716 -0.00174828 -0)
(17.3905 0.0332576 0)
(8.35753 0.0641174 0)
(-4.05709 0.0813213 0)
(-19.0622 0.0661347 0)
(-27.4513 0.0313837 -7.38256e-21)
(-21.9441 -0.404314 -0)
(25.2255 -0.405937 0)
(58.9033 -0.0385681 -6.65187e-19)
(46.3224 0.186307 -9.69246e-19)
(19.5443 0.00349373 -0)
(12.947 0.0567714 0)
(-6.18177 0.0186347 -0)
(-14.3787 0.0882869 0)
(-20.1305 0.0594088 0)
(-31.3802 0.0467349 3.06159e-18)
(-24.5032 -0.00662384 0)
(-4.87039 -0.0332948 5.82927e-18)
(4.91414 0.00778611 -4.92276e-18)
(11.6188 -0.0031951 0)
(20.1893 -0.0340048 0)
(24.8344 -0.065267 0)
(26.5474 -0.0989992 -9.51712e-18)
(24.5285 -0.117519 5.85786e-18)
(19.3815 -0.112212 0)
(13.7008 -0.0888472 -1.7681e-18)
(8.21133 -0.0534068 -0)
(2.78721 -0.0207315 2.81899e-18)
(-1.27196 0.010204 0)
(-3.80668 0.0280532 0)
(-4.00261 0.0215732 0)
(-2.96859 0.0113789 0)
(0.743551 -0.0139019 -0)
(1.73721 -0.0175346 8.86178e-18)
(-1.61116 0.0195276 -9.28186e-18)
(-3.67115 0.0326438 0)
(-4.60388 0.0100202 5.54154e-18)
(-4.49354 0.00625401 0)
(-5.21117 0.0182913 0)
)
;
    }
    front
    {
        type            empty;
    }
    back
    {
        type            empty;
    }
}


// ************************************************************************* //
