/*--------------------------------*- C++ -*----------------------------------*\
| =========                 |                                                 |
| \\      /  F ield         | OpenFOAM: The Open Source CFD Toolbox           |
|  \\    /   O peration     | Version:  2306                                  |
|   \\  /    A nd           | Website:  www.openfoam.com                      |
|    \\/     M anipulation  |                                                 |
\*---------------------------------------------------------------------------*/
FoamFile
{
    version     2.0;
    format      ascii;
    arch        "LSB;label=32;scalar=64";
    class       volScalarField;
    location    "1900";
    object      cp;
}
// * * * * * * * * * * * * * * * * * * * * * * * * * * * * * * * * * * * * * //

dimensions      [0 0 0 0 0 0 0];

internalField   nonuniform List<scalar> 
20540
(
0.165895
0.168277
0.165895
0.168276
0.165895
0.168275
0.165895
0.168273
0.165895
0.16827
0.165894
0.168267
0.165893
0.168263
0.165893
0.168257
0.165891
0.168251
0.16589
0.168244
0.165889
0.168235
0.165888
0.168224
0.165886
0.168212
0.165884
0.168197
0.165881
0.168179
0.165878
0.168157
0.165875
0.168131
0.165871
0.1681
0.165865
0.168063
0.165859
0.168018
0.165852
0.167966
0.165844
0.167905
0.165834
0.167834
0.165823
0.167752
0.16581
0.167659
0.165796
0.167555
0.16578
0.167441
0.165763
0.167321
0.165746
0.167201
0.165728
0.16709
0.165714
0.167011
0.165705
0.166973
0.1657
0.166975
0.1657
0.167016
0.165705
0.167096
0.165714
0.167206
0.165724
0.167324
0.165736
0.167442
0.165747
0.167553
0.165759
0.167656
0.16577
0.167749
0.165779
0.167831
0.165788
0.167903
0.165796
0.167965
0.165803
0.168018
0.165809
0.168064
0.165814
0.168102
0.165818
0.168135
0.165822
0.168162
0.165825
0.168186
0.165827
0.168205
0.16583
0.168221
0.165831
0.168234
0.165833
0.168246
0.165834
0.168255
0.165835
0.168263
0.165836
0.16827
0.165837
0.168276
0.165838
0.168281
0.165839
0.168285
0.165839
0.168288
0.16584
0.16829
0.16584
0.168292
0.16584
0.168293
0.16584
0.168294
0.167514
0.161202
0.160094
0.160908
0.161804
0.162212
0.16219
0.162355
0.161977
0.161738
0.160788
0.159917
0.158318
0.15675
0.15453
0.152315
0.149577
0.146831
0.143698
0.140553
0.137146
0.133731
0.130152
0.126574
0.122906
0.11925
0.115557
0.111889
0.108222
0.104594
0.100993
0.0974365
0.0939185
0.0904475
0.0870197
0.0836403
0.0803116
0.0770409
0.0738381
0.0707155
0.0676909
0.0647823
0.0620156
0.0594141
0.0570143
0.0548391
0.0529398
0.0513437
0.0500646
0.0492576
0.0486609
0.0487814
0.048638
0.0489825
0.0496634
0.0502509
0.0495845
0.0496554
0.0475254
0.0274597
-0.0386238
-0.00038224
0.237123
0.256833
0.0219497
-0.137987
-0.065071
0.0738165
0.140061
0.17086
0.229242
0.321915
0.344435
0.268811
0.143484
-0.0189497
-0.152162
-0.179616
-0.134674
-0.0597121
0.0108248
0.0587492
0.090073
0.108991
0.112904
0.111141
0.0922369
0.0500695
0.167513
0.161202
0.160094
0.160908
0.161804
0.162212
0.16219
0.162355
0.161977
0.161738
0.160788
0.159917
0.158318
0.15675
0.15453
0.152315
0.149577
0.146831
0.143698
0.140553
0.137146
0.133731
0.130152
0.126574
0.122906
0.11925
0.115557
0.111889
0.108222
0.104594
0.100993
0.0974365
0.0939185
0.0904475
0.0870197
0.0836403
0.0803117
0.0770409
0.0738381
0.0707155
0.0676909
0.0647823
0.0620156
0.0594142
0.0570143
0.0548392
0.0529399
0.0513438
0.0500647
0.0492577
0.048661
0.0487815
0.048638
0.0489828
0.0496638
0.0502511
0.049585
0.0496549
0.0475259
0.0274632
-0.0386188
-0.00037873
0.237094
0.2568
0.0219603
-0.137971
-0.065074
0.0737983
0.14006
0.170861
0.229243
0.321892
0.344404
0.268788
0.143482
-0.0189361
-0.152155
-0.179626
-0.134692
-0.0597183
0.0108207
0.058744
0.0900626
0.108978
0.112896
0.111137
0.0921926
0.0513112
0.167512
0.161203
0.160094
0.160908
0.161804
0.162212
0.16219
0.162355
0.161977
0.161739
0.160788
0.159917
0.158318
0.15675
0.15453
0.152315
0.149577
0.146831
0.143698
0.140553
0.137146
0.133731
0.130152
0.126574
0.122906
0.11925
0.115557
0.111889
0.108222
0.104594
0.100993
0.0974365
0.0939185
0.0904475
0.0870197
0.0836403
0.0803117
0.0770409
0.0738381
0.0707155
0.0676909
0.0647823
0.0620156
0.0594142
0.0570144
0.0548392
0.0529399
0.0513438
0.0500647
0.0492578
0.0486611
0.0487816
0.0486381
0.048983
0.0496641
0.0502512
0.0495855
0.0496545
0.047527
0.0274675
-0.038616
-0.00037728
0.237052
0.25676
0.0219451
-0.138
-0.0651089
0.07378
0.140062
0.170855
0.229229
0.321856
0.344361
0.268742
0.143452
-0.0189884
-0.15225
-0.179719
-0.134741
-0.0597306
0.0108166
0.0587354
0.0900466
0.108965
0.112884
0.111145
0.0921436
0.0531301
0.167511
0.161204
0.160094
0.160908
0.161804
0.162212
0.16219
0.162355
0.161977
0.161739
0.160788
0.159917
0.158318
0.15675
0.15453
0.152315
0.149577
0.146831
0.143698
0.140553
0.137146
0.133731
0.130152
0.126574
0.122906
0.11925
0.115557
0.111889
0.108222
0.104594
0.100993
0.0974365
0.0939185
0.0904476
0.0870198
0.0836404
0.0803117
0.0770409
0.0738382
0.0707155
0.0676909
0.0647823
0.0620157
0.0594142
0.0570144
0.0548392
0.05294
0.0513439
0.0500648
0.0492579
0.0486612
0.0487817
0.0486383
0.0489832
0.0496644
0.0502513
0.0495861
0.0496541
0.0475289
0.0274718
-0.0386159
-0.000372003
0.236961
0.256658
0.0218589
-0.138116
-0.0652066
0.0737586
0.140074
0.170852
0.229208
0.321797
0.344265
0.26861
0.14331
-0.0192407
-0.152615
-0.18002
-0.134837
-0.0597457
0.0108174
0.0587214
0.0900161
0.108943
0.112864
0.111173
0.0920948
0.0556538
0.167508
0.161205
0.160094
0.160908
0.161804
0.162212
0.16219
0.162355
0.161977
0.161739
0.160788
0.159917
0.158318
0.15675
0.15453
0.152315
0.149577
0.146831
0.143698
0.140553
0.137146
0.133731
0.130152
0.126574
0.122906
0.11925
0.115557
0.111889
0.108222
0.104594
0.100993
0.0974365
0.0939185
0.0904476
0.0870198
0.0836404
0.0803117
0.0770409
0.0738382
0.0707156
0.0676909
0.0647824
0.0620157
0.0594142
0.0570144
0.0548393
0.05294
0.051344
0.0500649
0.049258
0.0486613
0.0487818
0.0486385
0.0489834
0.0496648
0.0502514
0.0495867
0.0496539
0.0475318
0.027474
-0.0386225
-0.00036013
0.236786
0.256461
0.0216166
-0.138419
-0.0654241
0.0737377
0.140092
0.170841
0.229149
0.321653
0.344016
0.268259
0.142855
-0.0200181
-0.153634
-0.180642
-0.134978
-0.0597669
0.0108213
0.0586935
0.0899555
0.108903
0.112826
0.111239
0.0920907
0.0587145
0.167505
0.161206
0.160095
0.160909
0.161804
0.162212
0.16219
0.162355
0.161978
0.161739
0.160788
0.159917
0.158318
0.156751
0.15453
0.152315
0.149577
0.146831
0.143698
0.140553
0.137146
0.133731
0.130152
0.126574
0.122906
0.11925
0.115557
0.111889
0.108222
0.104594
0.100993
0.0974365
0.0939185
0.0904476
0.0870198
0.0836404
0.0803117
0.077041
0.0738382
0.0707156
0.0676909
0.0647824
0.0620157
0.0594143
0.0570145
0.0548393
0.0529401
0.051344
0.050065
0.0492581
0.0486614
0.0487818
0.0486387
0.0489837
0.0496651
0.0502517
0.0495873
0.049654
0.0475351
0.0274715
-0.0386398
-0.000340813
0.236499
0.256108
0.0209461
-0.139143
-0.0657892
0.0737152
0.140104
0.17082
0.229008
0.321336
0.343474
0.267529
0.141944
-0.021716
-0.155799
-0.181603
-0.135166
-0.0598092
0.010809
0.058632
0.0898402
0.108834
0.11275
0.111358
0.092166
0.0622012
0.167502
0.161208
0.160095
0.160909
0.161804
0.162213
0.16219
0.162355
0.161978
0.161739
0.160788
0.159917
0.158318
0.156751
0.15453
0.152315
0.149577
0.146831
0.143698
0.140553
0.137146
0.133731
0.130152
0.126574
0.122906
0.11925
0.115557
0.111889
0.108222
0.104594
0.100993
0.0974365
0.0939185
0.0904476
0.0870198
0.0836404
0.0803117
0.077041
0.0738382
0.0707156
0.067691
0.0647824
0.0620157
0.0594143
0.0570145
0.0548393
0.0529401
0.051344
0.050065
0.0492581
0.0486615
0.0487818
0.0486388
0.0489839
0.0496654
0.0502521
0.0495875
0.0496545
0.0475371
0.0274617
-0.0386685
-0.000331749
0.236082
0.255533
0.0198169
-0.140486
-0.0662801
0.0736699
0.140096
0.170796
0.228747
0.320719
0.342474
0.266352
0.140507
-0.0248303
-0.159298
-0.182843
-0.135435
-0.0599101
0.0107285
0.058508
0.0896537
0.108721
0.112619
0.111541
0.0923647
0.0659775
0.167497
0.161212
0.160096
0.160909
0.161804
0.162213
0.16219
0.162355
0.161978
0.161739
0.160788
0.159917
0.158318
0.156751
0.15453
0.152315
0.149577
0.146831
0.143698
0.140553
0.137146
0.133731
0.130152
0.126574
0.122906
0.11925
0.115557
0.111889
0.108223
0.104594
0.100993
0.0974366
0.0939186
0.0904476
0.0870198
0.0836404
0.0803117
0.077041
0.0738382
0.0707156
0.067691
0.0647824
0.0620157
0.0594143
0.0570145
0.0548393
0.0529401
0.051344
0.0500649
0.049258
0.0486613
0.0487815
0.0486388
0.0489839
0.0496655
0.0502526
0.0495874
0.0496555
0.0475345
0.0274432
-0.0387071
-0.000387714
0.235565
0.254769
0.0181614
-0.14245
-0.0668714
0.0735675
0.140062
0.170783
0.228344
0.319562
0.341038
0.264723
0.13832
-0.0297525
-0.16396
-0.184326
-0.135873
-0.0601334
0.010519
0.0583009
0.0893868
0.10855
0.112441
0.111795
0.0927759
0.0698723
0.167493
0.161216
0.160097
0.16091
0.161805
0.162213
0.16219
0.162355
0.161978
0.161739
0.160788
0.159917
0.158318
0.156751
0.15453
0.152316
0.149577
0.146831
0.143698
0.140553
0.137146
0.133731
0.130152
0.126574
0.122906
0.11925
0.115557
0.111889
0.108223
0.104594
0.100993
0.0974366
0.0939186
0.0904476
0.0870198
0.0836404
0.0803118
0.077041
0.0738382
0.0707156
0.067691
0.0647824
0.0620157
0.0594142
0.0570144
0.0548392
0.0529399
0.0513437
0.0500646
0.0492576
0.0486608
0.0487806
0.0486382
0.0489834
0.0496651
0.0502529
0.0495867
0.0496578
0.0475212
0.0274212
-0.0387351
-0.000592629
0.235124
0.25394
0.0158145
-0.144916
-0.0676443
0.0733921
0.140008
0.170794
0.227795
0.317659
0.339433
0.262871
0.135053
-0.0367257
-0.169541
-0.186112
-0.136624
-0.0605531
0.0101299
0.0579834
0.0890209
0.108305
0.112229
0.112118
0.0935074
0.0737393
0.167488
0.161222
0.160098
0.16091
0.161805
0.162213
0.162191
0.162355
0.161978
0.161739
0.160788
0.159917
0.158319
0.156751
0.15453
0.152316
0.149577
0.146831
0.143698
0.140553
0.137146
0.133731
0.130152
0.126574
0.122906
0.11925
0.115557
0.111889
0.108223
0.104594
0.100993
0.0974366
0.0939186
0.0904477
0.0870199
0.0836405
0.0803118
0.077041
0.0738382
0.0707156
0.0676909
0.0647823
0.0620156
0.0594141
0.0570142
0.0548389
0.0529395
0.0513432
0.0500639
0.0492566
0.0486594
0.0487786
0.0486367
0.0489813
0.0496639
0.0502518
0.0495856
0.0496637
0.0474894
0.0273968
-0.0387418
-0.00104468
0.23495
0.253185
0.0124928
-0.147708
-0.0688455
0.0731478
0.139941
0.170856
0.227024
0.315073
0.33807
0.2613
0.130301
-0.0458443
-0.17588
-0.188376
-0.137891
-0.0612806
0.00948488
0.0575235
0.0885652
0.108001
0.112004
0.11252
0.0946199
0.0775551
0.167484
0.16123
0.160101
0.160911
0.161806
0.162214
0.162191
0.162355
0.161978
0.161739
0.160788
0.159917
0.158319
0.156751
0.15453
0.152316
0.149577
0.146831
0.143698
0.140553
0.137146
0.133731
0.130152
0.126574
0.122906
0.11925
0.115557
0.111889
0.108223
0.104595
0.100993
0.0974366
0.0939186
0.0904477
0.0870199
0.0836405
0.0803118
0.077041
0.0738382
0.0707155
0.0676908
0.0647822
0.0620153
0.0594137
0.0570137
0.0548382
0.0529385
0.0513419
0.0500622
0.0492543
0.0486565
0.0487742
0.0486331
0.0489761
0.0496608
0.0502461
0.0495846
0.049671
0.0474253
0.0273589
-0.0386971
-0.0020613
0.235319
0.252603
0.0081061
-0.150615
-0.0707877
0.0727744
0.139859
0.17101
0.225996
0.312229
0.336914
0.260335
0.123425
-0.0568977
-0.182887
-0.191327
-0.139898
-0.0624403
0.00851421
0.0569076
0.0880362
0.107647
0.111823
0.113009
0.0961874
0.0814519
0.167479
0.161239
0.160104
0.160913
0.161807
0.162214
0.162191
0.162356
0.161978
0.161739
0.160788
0.159918
0.158319
0.156751
0.15453
0.152316
0.149577
0.146831
0.143698
0.140553
0.137146
0.133731
0.130153
0.126574
0.122907
0.11925
0.115557
0.111889
0.108223
0.104595
0.100993
0.0974367
0.0939187
0.0904477
0.0870199
0.0836405
0.0803118
0.077041
0.0738381
0.0707154
0.0676906
0.0647818
0.0620149
0.059413
0.0570127
0.0548368
0.0529367
0.0513394
0.0500589
0.0492496
0.0486504
0.0487652
0.0486251
0.0489644
0.049653
0.0502295
0.0495836
0.0496721
0.0473171
0.0273083
-0.0385681
-0.00378536
0.236207
0.252197
0.00292359
-0.153754
-0.0739029
0.0720688
0.139702
0.171333
0.224755
0.309864
0.335941
0.259741
0.113892
-0.0693768
-0.190444
-0.195075
-0.142841
-0.0641341
0.00717088
0.0561262
0.0874456
0.107249
0.11178
0.11364
0.0983568
0.0857015
0.167473
0.161251
0.160107
0.160915
0.161808
0.162215
0.162192
0.162356
0.161979
0.16174
0.160789
0.159918
0.158319
0.156751
0.15453
0.152316
0.149577
0.146831
0.143698
0.140553
0.137146
0.133731
0.130153
0.126574
0.122907
0.11925
0.115557
0.111889
0.108223
0.104595
0.100993
0.0974367
0.0939187
0.0904478
0.0870199
0.0836405
0.0803117
0.0770409
0.0738379
0.0707151
0.0676902
0.0647812
0.0620139
0.0594117
0.0570108
0.0548342
0.052933
0.0513344
0.0500523
0.0492404
0.0486386
0.0487477
0.0486084
0.0489405
0.0496343
0.0501913
0.0495793
0.0496488
0.0471369
0.0272351
-0.0382181
-0.00578023
0.237266
0.251596
-0.00312691
-0.156374
-0.0778927
0.0708881
0.139442
0.171969
0.223486
0.308946
0.334916
0.259061
0.101604
-0.0824997
-0.198255
-0.199402
-0.146766
-0.0663799
0.00545505
0.0551794
0.0868188
0.106847
0.111973
0.114525
0.101262
0.0906931
0.167467
0.161265
0.160112
0.160917
0.161809
0.162216
0.162193
0.162357
0.161979
0.16174
0.160789
0.159918
0.158319
0.156751
0.154531
0.152316
0.149578
0.146831
0.143698
0.140553
0.137146
0.133731
0.130153
0.126574
0.122907
0.11925
0.115557
0.111889
0.108223
0.104595
0.100993
0.0974368
0.0939188
0.0904479
0.08702
0.0836405
0.0803117
0.0770407
0.0738376
0.0707146
0.0676894
0.06478
0.0620122
0.0594092
0.0570073
0.0548294
0.0529263
0.0513253
0.0500401
0.0492234
0.0486167
0.048715
0.0485761
0.0488949
0.0495931
0.0501137
0.0495587
0.0495613
0.0468329
0.0271044
-0.0371881
-0.00721589
0.237626
0.250221
-0.0106502
-0.157444
-0.0809806
0.0693858
0.139113
0.173015
0.222685
0.309627
0.333851
0.256868
0.0869914
-0.0955025
-0.205796
-0.203431
-0.151295
-0.069047
0.00346342
0.0541037
0.0862258
0.106544
0.112527
0.115836
0.105068
0.096733
0.167458
0.161281
0.160117
0.16092
0.161811
0.162217
0.162194
0.162357
0.16198
0.161741
0.16079
0.159919
0.15832
0.156752
0.154531
0.152316
0.149578
0.146831
0.143699
0.140554
0.137146
0.133731
0.130153
0.126575
0.122907
0.11925
0.115557
0.111889
0.108223
0.104595
0.100993
0.097437
0.093919
0.090448
0.0870201
0.0836405
0.0803115
0.0770404
0.0738371
0.0707137
0.067688
0.0647779
0.0620092
0.0594049
0.0570012
0.0548211
0.0529147
0.0513096
0.0500189
0.0491936
0.0485786
0.0486578
0.048518
0.0488128
0.0495109
0.0499719
0.0494939
0.0493485
0.0463346
0.0268923
-0.0348788
-0.00693172
0.235906
0.246937
-0.019604
-0.15667
-0.0811214
0.0681155
0.138798
0.174517
0.222871
0.311077
0.33304
0.251602
0.0709814
-0.107081
-0.212392
-0.206975
-0.155273
-0.0717167
0.00142533
0.052993
0.0857881
0.106493
0.113642
0.117798
0.109969
0.103999
0.167447
0.161301
0.160124
0.160923
0.161813
0.162219
0.162195
0.162358
0.161981
0.161741
0.16079
0.159919
0.15832
0.156752
0.154531
0.152316
0.149578
0.146832
0.143699
0.140554
0.137147
0.133731
0.130153
0.126575
0.122907
0.11925
0.115557
0.111889
0.108223
0.104595
0.100993
0.0974372
0.0939192
0.0904482
0.0870202
0.0836404
0.0803113
0.0770399
0.0738362
0.0707123
0.0676858
0.0647747
0.0620045
0.0593982
0.0569916
0.0548079
0.052896
0.0512845
0.0499847
0.0491457
0.0485173
0.0485644
0.0484222
0.0486763
0.0493652
0.0497368
0.0493409
0.0489567
0.0455647
0.0266364
-0.0306363
-0.00394402
0.231075
0.240583
-0.0294082
-0.15387
-0.0763988
0.0675683
0.138508
0.176364
0.224228
0.311507
0.331965
0.242536
0.0548119
-0.116289
-0.217743
-0.211156
-0.15741
-0.0735605
-0.000246598
0.0520866
0.0856915
0.106942
0.115579
0.120686
0.116155
0.112596
0.167434
0.161325
0.160131
0.160927
0.161816
0.162221
0.162196
0.16236
0.161982
0.161742
0.160791
0.15992
0.158321
0.156752
0.154532
0.152317
0.149578
0.146832
0.143699
0.140554
0.137147
0.133731
0.130153
0.126575
0.122907
0.11925
0.115557
0.11189
0.108223
0.104595
0.100994
0.0974376
0.0939195
0.0904484
0.0870203
0.0836404
0.080311
0.0770392
0.073835
0.0707103
0.0676827
0.06477
0.0619976
0.0593883
0.0569776
0.0547885
0.0528687
0.0512477
0.0499345
0.049075
0.048427
0.0484259
0.0482793
0.0484704
0.0491361
0.0493859
0.0490488
0.0483608
0.0444734
0.0264972
-0.0240328
0.00161751
0.222456
0.230586
-0.0375263
-0.14979
-0.0686916
0.0671683
0.137907
0.177901
0.2263
0.308627
0.32827
0.22872
0.0375139
-0.125499
-0.221299
-0.216441
-0.158478
-0.0738826
-0.000904603
0.0518289
0.0862881
0.108271
0.118701
0.124936
0.123754
0.122692
0.16742
0.161354
0.160141
0.160932
0.161819
0.162223
0.162198
0.162361
0.161983
0.161743
0.160792
0.15992
0.158321
0.156753
0.154532
0.152317
0.149579
0.146832
0.143699
0.140554
0.137147
0.133731
0.130153
0.126575
0.122907
0.119251
0.115558
0.11189
0.108224
0.104596
0.100994
0.097438
0.0939199
0.0904487
0.0870204
0.0836402
0.0803105
0.0770382
0.0738332
0.0707075
0.0676784
0.0647636
0.0619882
0.059375
0.0569586
0.0547624
0.0528319
0.0511979
0.0498666
0.0489791
0.0483054
0.0482393
0.0480842
0.0481898
0.0488133
0.0489162
0.0485865
0.0475694
0.0431245
0.026727
-0.0153113
0.00830594
0.208845
0.215209
-0.0384286
-0.141767
-0.0581591
0.0670531
0.136597
0.178514
0.227207
0.30072
0.318874
0.210377
0.0199574
-0.13503
-0.220663
-0.217765
-0.155696
-0.0713177
0.000417546
0.0528718
0.0880245
0.110856
0.12328
0.13082
0.132756
0.134224
0.167402
0.161389
0.160152
0.160937
0.161823
0.162226
0.1622
0.162363
0.161984
0.161744
0.160793
0.159921
0.158322
0.156754
0.154533
0.152318
0.149579
0.146832
0.1437
0.140554
0.137147
0.133732
0.130153
0.126575
0.122907
0.119251
0.115558
0.11189
0.108224
0.104596
0.100994
0.0974384
0.0939203
0.0904489
0.0870204
0.08364
0.0803098
0.0770368
0.0738309
0.0707038
0.0676727
0.0647553
0.0619761
0.0593577
0.0569341
0.0547286
0.0527846
0.0511336
0.0497795
0.0488559
0.04815
0.0480034
0.0478323
0.0478346
0.0483922
0.0483332
0.0479516
0.0466111
0.0417081
0.0274604
-0.00552796
0.0153774
0.189266
0.193396
-0.0267843
-0.119261
-0.0414144
0.0683303
0.134547
0.177249
0.22465
0.286555
0.300925
0.189035
0.00677976
-0.137977
-0.211053
-0.207843
-0.144932
-0.0637781
0.00492049
0.0559402
0.0912702
0.114929
0.129308
0.138215
0.142942
0.146682
0.16738
0.161429
0.160166
0.160944
0.161828
0.162229
0.162202
0.162364
0.161986
0.161746
0.160794
0.159922
0.158323
0.156755
0.154533
0.152318
0.149579
0.146833
0.1437
0.140555
0.137147
0.133732
0.130153
0.126575
0.122907
0.119251
0.115558
0.11189
0.108224
0.104596
0.100995
0.0974389
0.0939207
0.0904492
0.0870204
0.0836395
0.0803087
0.0770349
0.0738277
0.0706989
0.0676654
0.0647444
0.0619605
0.0593355
0.0569028
0.0546854
0.0527244
0.0510517
0.0496694
0.0487005
0.0479549
0.0477125
0.047514
0.0473981
0.0478619
0.0476317
0.0471471
0.0455202
0.0404057
0.0285224
0.00411759
0.0228092
0.166041
0.169189
-0.00447142
-0.0827828
-0.0200906
0.070898
0.131352
0.17318
0.216378
0.265243
0.273779
0.167168
0.00300428
-0.125509
-0.185175
-0.17986
-0.121724
-0.0487312
0.0138748
0.0615425
0.0959601
0.119984
0.136053
0.146538
0.154017
0.159765
0.167355
0.161477
0.160182
0.160952
0.161833
0.162233
0.162205
0.162367
0.161988
0.161747
0.160795
0.159924
0.158324
0.156755
0.154534
0.152319
0.14958
0.146833
0.1437
0.140555
0.137147
0.133732
0.130153
0.126575
0.122907
0.119251
0.115558
0.11189
0.108224
0.104597
0.100995
0.0974393
0.093921
0.0904493
0.0870202
0.0836388
0.0803072
0.0770323
0.0738235
0.0706925
0.0676557
0.0647304
0.0619402
0.0593068
0.0568625
0.0546299
0.0526477
0.0509473
0.0495302
0.0485051
0.0477103
0.0473554
0.0471129
0.0468645
0.0472008
0.0467956
0.0461621
0.0443211
0.0392783
0.0296229
0.0130134
0.0299557
0.142359
0.145789
0.0188249
-0.0433969
0.00196618
0.0740933
0.126802
0.16578
0.202131
0.236912
0.239044
0.148011
0.0131694
-0.0914646
-0.137205
-0.130594
-0.0835231
-0.0243978
0.0281733
0.0698365
0.101496
0.124758
0.141871
0.154083
0.164517
0.172874
0.167325
0.161533
0.160201
0.160961
0.16184
0.162237
0.162208
0.162369
0.16199
0.161749
0.160797
0.159925
0.158325
0.156757
0.154535
0.15232
0.14958
0.146834
0.1437
0.140555
0.137147
0.133732
0.130153
0.126575
0.122907
0.119251
0.115558
0.111891
0.108225
0.104597
0.100996
0.0974397
0.0939212
0.0904493
0.0870197
0.0836376
0.080305
0.0770287
0.0738178
0.0706839
0.067643
0.0647119
0.0619138
0.0592696
0.0568105
0.0545584
0.0525495
0.0508138
0.0493533
0.0482586
0.047402
0.0469166
0.0466065
0.0462116
0.0463791
0.0458019
0.0449776
0.0430215
0.0382871
0.0306398
0.0209199
0.0357068
0.1201
0.123804
0.0368387
-0.00870344
0.0220805
0.0769279
0.120688
0.154844
0.183512
0.204908
0.201871
0.133393
0.0356704
-0.0401789
-0.0734084
-0.0687205
-0.0362736
0.00609523
0.046197
0.0799018
0.107196
0.128481
0.14567
0.159231
0.172242
0.183896
0.167289
0.161599
0.160223
0.160971
0.161847
0.162243
0.162211
0.162373
0.161992
0.161752
0.160798
0.159927
0.158326
0.156758
0.154535
0.152321
0.14958
0.146834
0.1437
0.140555
0.137146
0.133732
0.130152
0.126575
0.122906
0.119251
0.115557
0.111891
0.108225
0.104598
0.100996
0.09744
0.0939213
0.090449
0.0870188
0.0836358
0.0803018
0.0770237
0.0738101
0.0706724
0.0676261
0.0646876
0.0618791
0.059221
0.0567428
0.0544657
0.052423
0.0506423
0.0491274
0.0479469
0.0470117
0.0463764
0.0459663
0.045412
0.0453625
0.0446205
0.0435781
0.0416022
0.0373764
0.0315644
0.0274881
0.0395127
0.100281
0.104041
0.0488226
0.018622
0.038854
0.0786389
0.113054
0.140688
0.161669
0.173034
0.166827
0.120289
0.056507
0.00695182
-0.0157747
-0.0136574
0.00649607
0.0346732
0.0634816
0.0893888
0.111805
0.13046
0.146694
0.160627
0.174521
0.187955
0.167248
0.161674
0.16025
0.160983
0.161856
0.162249
0.162215
0.162376
0.161995
0.161755
0.1608
0.159929
0.158327
0.156759
0.154535
0.152321
0.14958
0.146835
0.143699
0.140555
0.137145
0.133731
0.130151
0.126574
0.122905
0.11925
0.115557
0.11189
0.108224
0.104598
0.100996
0.0974402
0.093921
0.0904484
0.0870172
0.0836332
0.0802973
0.0770168
0.0737995
0.0706569
0.0676034
0.0646552
0.0618333
0.0591571
0.0566542
0.0543448
0.0522592
0.0504209
0.0488373
0.0475521
0.0465154
0.0457099
0.0451579
0.0444307
0.0441135
0.043213
0.0419486
0.0400248
0.0364721
0.0323279
0.0322722
0.04146
0.0833605
0.0872846
0.0554988
0.0377025
0.0509421
0.078301
0.103588
0.123956
0.137727
0.142663
0.135103
0.105746
0.067175
0.0372854
0.0234364
0.0248946
0.0375911
0.0561353
0.0763398
0.0956603
0.113375
0.129017
0.143237
0.156028
0.168615
0.180837
0.1672
0.161759
0.160281
0.160996
0.161866
0.162256
0.16222
0.162381
0.161998
0.161758
0.160802
0.159931
0.158328
0.156761
0.154535
0.152323
0.149579
0.146835
0.143698
0.140555
0.137144
0.133731
0.130149
0.126574
0.122904
0.11925
0.115555
0.11189
0.108223
0.104598
0.100995
0.0974399
0.0939202
0.0904471
0.0870147
0.0836292
0.0802908
0.0770071
0.073785
0.0706358
0.067573
0.064612
0.0617723
0.0590725
0.0565378
0.0541864
0.052046
0.0501344
0.0484634
0.047051
0.0458831
0.0448851
0.0441407
0.0432229
0.0425922
0.0415301
0.0400641
0.0382328
0.0354385
0.0327226
0.0349488
0.0417742
0.0693198
0.0735325
0.057489
0.0485897
0.0573146
0.0750226
0.092116
0.1057
0.113788
0.115187
0.108405
0.0911377
0.0698392
0.0534704
0.0461326
0.0476496
0.0559062
0.0680616
0.0818401
0.0956302
0.108793
0.12084
0.131979
0.142061
0.151657
0.160477
0.167146
0.161855
0.160317
0.16101
0.161877
0.162264
0.162225
0.162386
0.162001
0.161761
0.160803
0.159934
0.158328
0.156763
0.154534
0.152324
0.149577
0.146835
0.143695
0.140555
0.137141
0.13373
0.130147
0.126573
0.122901
0.119248
0.115553
0.111889
0.108222
0.104597
0.100994
0.0974392
0.0939186
0.0904449
0.0870108
0.0836233
0.0802817
0.0769937
0.0737651
0.0706072
0.0675319
0.064554
0.0616911
0.0589603
0.0563841
0.0539784
0.0517676
0.0497631
0.0479804
0.0464146
0.0450775
0.0438611
0.0428685
0.0417331
0.0407544
0.0395098
0.0378758
0.0361387
0.0340541
0.0324257
0.0354136
0.0404906
0.0577063
0.0619881
0.0553583
0.0519747
0.0576524
0.0683329
0.0788293
0.0869298
0.0911857
0.0910507
0.086247
0.0768556
0.0660919
0.0579918
0.0546073
0.0559761
0.061113
0.068604
0.0772565
0.0860935
0.0946458
0.10247
0.109594
0.115742
0.121225
0.125578
0.167086
0.161959
0.160357
0.161025
0.161889
0.162273
0.16223
0.162392
0.162004
0.161766
0.160804
0.159937
0.158327
0.156766
0.154533
0.152325
0.149575
0.146836
0.143692
0.140555
0.137137
0.133729
0.130143
0.126571
0.122897
0.119247
0.11555
0.111888
0.108219
0.104596
0.100992
0.0974377
0.0939158
0.0904414
0.0870048
0.0836148
0.0802688
0.076975
0.0737378
0.0705681
0.0674762
0.0644759
0.0615824
0.0588109
0.0561807
0.0537046
0.0514035
0.0492817
0.0473564
0.0456059
0.0440542
0.0425864
0.0412888
0.0398937
0.0385449
0.0370742
0.0352928
0.0335999
0.0320201
0.031053
0.0337153
0.037432
0.047624
0.0514073
0.0495302
0.0488449
0.0522794
0.0580914
0.0637377
0.0678543
0.0696444
0.0689138
0.0658216
0.0608863
0.0556101
0.0516583
0.0499356
0.050488
0.0528889
0.0564595
0.0606058
0.0647551
0.0686177
0.0718339
0.0744048
0.0760247
0.0769296
0.0766189
0.167021
0.16207
0.160402
0.16104
0.161902
0.162284
0.162235
0.162398
0.162007
0.161771
0.160804
0.159942
0.158326
0.156769
0.15453
0.152328
0.149571
0.146838
0.143687
0.140555
0.137132
0.133729
0.130137
0.126569
0.122892
0.119245
0.115545
0.111886
0.108216
0.104594
0.100989
0.0974352
0.0939112
0.090436
0.0869962
0.0836028
0.0802507
0.0769492
0.0737004
0.0705151
0.0674011
0.064371
0.0614371
0.0586123
0.0559118
0.053345
0.050928
0.0486591
0.0465531
0.0445799
0.0427615
0.0409986
0.039341
0.0376269
0.0358876
0.0341227
0.0321664
0.0304002
0.0289925
0.028203
0.0298902
0.0322955
0.0378108
0.0404293
0.040191
0.0401694
0.0417251
0.0441828
0.0464144
0.0477257
0.0477592
0.0464772
0.0440677
0.0409029
0.0376171
0.0348316
0.032891
0.0318022
0.0313829
0.0313137
0.031319
0.0310833
0.0304619
0.0292086
0.02735
0.0246413
0.0212886
0.0168752
0.166955
0.162181
0.160448
0.161056
0.161915
0.162295
0.16224
0.162406
0.162009
0.161778
0.160803
0.159947
0.158323
0.156774
0.154525
0.152332
0.149565
0.14684
0.14368
0.140556
0.137125
0.133728
0.130129
0.126568
0.122884
0.119242
0.115538
0.111883
0.10821
0.104591
0.100983
0.0974311
0.0939042
0.0904281
0.0869835
0.083586
0.0802255
0.0769139
0.0736494
0.0704433
0.0672999
0.0642306
0.0612437
0.0583495
0.0555582
0.0528753
0.0503108
0.0478584
0.0455267
0.0432845
0.0411426
0.0390284
0.0369555
0.0348462
0.0326791
0.0305248
0.028289
0.0262544
0.0246171
0.0234923
0.023842
0.0247256
0.0269142
0.0278286
0.0273573
0.026706
0.026486
0.0264541
0.0261503
0.025272
0.0236819
0.0213827
0.0184806
0.0151504
0.0116247
0.0081044
0.00469777
0.00138923
-0.00189759
-0.00530485
-0.00894203
-0.0129605
-0.0174058
-0.0224103
-0.027919
-0.0340796
-0.0407149
-0.0481109
0.166893
0.162283
0.160493
0.16107
0.161926
0.162307
0.162244
0.162417
0.162009
0.161788
0.160801
0.159958
0.158319
0.156784
0.154519
0.152341
0.149557
0.146847
0.143672
0.140561
0.137115
0.13373
0.130119
0.126567
0.122874
0.11924
0.115528
0.11188
0.108201
0.104587
0.100975
0.097425
0.0938929
0.0904165
0.086965
0.0835624
0.0801903
0.0768656
0.0735799
0.0703466
0.0671641
0.0640437
0.0609877
0.058004
0.0550964
0.0522666
0.0495168
0.0468376
0.0442287
0.041662
0.039135
0.0366005
0.0340494
0.0314533
0.0287824
0.0261103
0.0234063
0.0208361
0.0185486
0.0165774
0.0153281
0.0143562
0.0137599
0.0125894
0.0108671
0.00882738
0.00676661
0.00458884
0.00210643
-0.000801408
-0.00418517
-0.00804307
-0.0123342
-0.0169958
-0.0219528
-0.0271461
-0.0325434
-0.0381522
-0.0439935
-0.0501147
-0.0565403
-0.0633205
-0.0704454
-0.0779614
-0.0858028
-0.0940336
-0.102516
-0.111417
0.166848
0.162352
0.160525
0.161079
0.161934
0.162319
0.162245
0.162431
0.162008
0.161804
0.160798
0.159975
0.158314
0.156803
0.154514
0.152359
0.149551
0.146863
0.143664
0.140573
0.137107
0.133739
0.13011
0.126572
0.122864
0.119242
0.115518
0.111879
0.10819
0.104584
0.100963
0.0974183
0.0938782
0.090403
0.0869418
0.0835347
0.080148
0.0768091
0.073498
0.0702341
0.0670064
0.0638283
0.060694
0.0576105
0.0545736
0.0515825
0.0486311
0.0457081
0.0428043
0.0398954
0.0369689
0.033993
0.0309496
0.0278274
0.0246031
0.0213234
0.0179848
0.014666
0.0114516
0.00833276
0.00544801
0.00255755
-0.000432995
-0.00365673
-0.00690094
-0.0104965
-0.0142608
-0.0182515
-0.0225595
-0.0272322
-0.0322849
-0.0377146
-0.0435035
-0.0496259
-0.056052
-0.062757
-0.069722
-0.0769397
-0.0844031
-0.0921141
-0.100061
-0.108243
-0.116631
-0.125224
-0.133963
-0.142863
-0.151827
-0.160943
0.166827
0.162384
0.160542
0.161085
0.161937
0.16233
0.162244
0.162445
0.162005
0.161822
0.160794
0.159996
0.15831
0.156825
0.154509
0.15238
0.149545
0.146882
0.143656
0.140588
0.137097
0.13375
0.130099
0.126579
0.122851
0.119245
0.115504
0.111879
0.108176
0.104581
0.100948
0.0974111
0.09386
0.0903886
0.0869152
0.0835056
0.0801021
0.0767506
0.0734121
0.0701186
0.0668441
0.0636092
0.0603958
0.0572144
0.0540497
0.0509017
0.0477548
0.0445978
0.0414132
0.0381797
0.0348778
0.0314832
0.0279742
0.0243411
0.0205644
0.0166636
0.0126371
0.00850872
0.00431124
7.40801e-06
-0.00438135
-0.00901957
-0.0140317
-0.0190262
-0.0236504
-0.0286292
-0.0338153
-0.0392514
-0.0449896
-0.0510449
-0.0574157
-0.0640938
-0.0710643
-0.0783083
-0.0858034
-0.0935277
-0.101459
-0.109578
-0.117862
-0.126294
-0.134848
-0.143503
-0.152224
-0.160993
-0.169761
-0.178522
-0.187209
-0.195873
0.166829
0.162381
0.160543
0.161086
0.161935
0.162339
0.16224
0.16246
0.162
0.161842
0.160788
0.16002
0.158303
0.156851
0.154502
0.152406
0.149537
0.146905
0.143648
0.140608
0.137087
0.133765
0.130087
0.12659
0.122838
0.119251
0.115489
0.111881
0.108159
0.104579
0.10093
0.0974053
0.0938389
0.0903752
0.0868858
0.0834772
0.0800534
0.0766921
0.0733233
0.0700026
0.0666789
0.0633895
0.060096
0.0568193
0.0535281
0.0502283
0.0468913
0.0435096
0.0400558
0.0365127
0.0328536
0.0290585
0.0251018
0.0209705
0.0166432
0.0121175
0.0073815
0.00242395
-0.00276103
-0.00822948
-0.0140097
-0.0202354
-0.0270161
-0.0335482
-0.0393737
-0.0455363
-0.0519018
-0.058502
-0.0653665
-0.072492
-0.0798648
-0.0874694
-0.0952862
-0.103293
-0.111465
-0.119777
-0.128201
-0.136711
-0.145279
-0.15388
-0.162485
-0.171066
-0.179592
-0.188042
-0.196375
-0.204583
-0.212618
-0.220517
0.166855
0.162343
0.160528
0.161082
0.161928
0.162345
0.162234
0.162475
0.161992
0.161862
0.16078
0.160045
0.158295
0.156879
0.154493
0.152435
0.149528
0.146932
0.143637
0.140631
0.137075
0.133783
0.130074
0.126603
0.122822
0.11926
0.115472
0.111886
0.10814
0.10458
0.100909
0.0974015
0.093814
0.0903638