/*--------------------------------*- C++ -*----------------------------------*\
| =========                 |                                                 |
| \\      /  F ield         | OpenFOAM: The Open Source CFD Toolbox           |
|  \\    /   O peration     | Version:  2306                                  |
|   \\  /    A nd           | Website:  www.openfoam.com                      |
|    \\/     M anipulation  |                                                 |
\*---------------------------------------------------------------------------*/
FoamFile
{
    version     2.0;
    format      ascii;
    arch        "LSB;label=32;scalar=64";
    class       volScalarField;
    location    "1900";
    object      nut;
}
// * * * * * * * * * * * * * * * * * * * * * * * * * * * * * * * * * * * * * //

dimensions      [0 2 -1 0 0 0 0];

internalField   uniform 0;

boundaryField
{
    inlet
    {
        type            calculated;
        value           uniform 0;
    }
    outlet
    {
        type            calculated;
        value           uniform 0;
    }
    lowerWallStartup
    {
        type            symmetryPlane;
    }
    upperWallStartup
    {
        type            symmetryPlane;
    }
    upperWall
    {
        type            nutUBlendedWallFunction;
        value           nonuniform List<scalar> 
218
(
1.1786e-08
3.96547e-09
2.9063e-09
2.44186e-09
2.16739e-09
1.98812e-09
1.84872e-09
1.74552e-09
1.65685e-09
1.59137e-09
1.53038e-09
1.48587e-09
1.44174e-09
1.40996e-09
1.37762e-09
1.35346e-09
1.33005e-09
1.31014e-09
1.29397e-09
1.27608e-09
1.26606e-09
1.24872e-09
1.24406e-09
1.22644e-09
1.2265e-09
1.20819e-09
1.21232e-09
1.19318e-09
1.20073e-09
1.18088e-09
1.19132e-09
1.17116e-09
1.18411e-09
1.16427e-09
1.17954e-09
1.16072e-09
1.17833e-09
1.16129e-09
1.18163e-09
1.16727e-09
1.19117e-09
1.18062e-09
1.20935e-09
1.20408e-09
1.23934e-09
1.24117e-09
1.28514e-09
1.29615e-09
1.35141e-09
1.37353e-09
1.44245e-09
1.47746e-09
1.56187e-09
1.61279e-09
1.71515e-09
1.78848e-09
1.91195e-09
2.01523e-09
2.15901e-09
2.29882e-09
2.46246e-09
2.64376e-09
2.84427e-09
3.04755e-09
3.2143e-09
3.37013e-09
3.5144e-09
3.65022e-09
3.80605e-09
3.93673e-09
4.09433e-09
4.22863e-09
4.35644e-09
4.49542e-09
4.59902e-09
4.74926e-09
4.8661e-09
5.01013e-09
5.14386e-09
5.23973e-09
5.37278e-09
5.4434e-09
5.56314e-09
5.68576e-09
5.78764e-09
5.94832e-09
6.05054e-09
6.17798e-09
6.3079e-09
6.32895e-09
6.4499e-09
6.44096e-09
6.55352e-09
6.49933e-09
6.61391e-09
6.53317e-09
6.67252e-09
6.58544e-09
6.75215e-09
6.66635e-09
6.84199e-09
6.75154e-09
6.91655e-09
6.80919e-09
6.95246e-09
6.82053e-09
6.94785e-09
6.79456e-09
6.92382e-09
6.75595e-09
6.89457e-09
6.71496e-09
6.85326e-09
6.66543e-09
6.79089e-09
6.60787e-09
6.71711e-09
6.54561e-09
6.64473e-09
6.45135e-09
6.55292e-09
6.29477e-09
6.39992e-09
6.0841e-09
6.20703e-09
5.83542e-09
5.96313e-09
5.64179e-09
5.7815e-09
5.52905e-09
6.06961e-09
4.68494e-09
1.89043e-09
7.60186e-09
1.6437e-08
3.38038e-08
5.55492e-08
5.28491e-08
1.24197e-08
1.10018e-08
2.03739e-08
1.21427e-08
0
2.28348e-09
0
3.4746e-09
5.65814e-09
6.49501e-09
7.52285e-09
7.63954e-09
8.29298e-09
8.10942e-09
8.78556e-09
8.84822e-09
9.18731e-09
9.54488e-09
1.09165e-08
1.56513e-08
1.92356e-08
2.37733e-08
2.36727e-08
2.56742e-08
2.36779e-08
1.38249e-08
0
4.14623e-09
4.97567e-09
2.86617e-09
0
2.58455e-09
5.37375e-09
6.7067e-09
8.5145e-09
9.24177e-09
1.04424e-08
1.08793e-08
1.17782e-08
1.20723e-08
1.28092e-08
1.29979e-08
1.36173e-08
1.37659e-08
1.43086e-08
1.45183e-08
1.48246e-08
1.49224e-08
1.51231e-08
1.49881e-08
1.48108e-08
1.41265e-08
1.33013e-08
1.2154e-08
1.11294e-08
9.26848e-09
9.56411e-09
6.2648e-09
9.0721e-09
8.17936e-09
1.25798e-08
4.18249e-08
1.14529e-07
1.34927e-07
5.0255e-08
2.43703e-08
4.71262e-08
3.74868e-08
9.88908e-09
8.5845e-10
7.615e-09
1.34082e-08
0
0
1.88313e-10
4.17566e-10
0
0
0
0
)
;
    }
    lowerWall
    {
        type            nutUBlendedWallFunction;
        value           nonuniform List<scalar> 
266
(
1.27457e-08
4.24774e-09
3.10261e-09
2.59845e-09
2.30408e-09
2.10807e-09
1.9602e-09
1.84605e-09
1.75345e-09
1.67979e-09
1.61747e-09
1.5665e-09
1.52231e-09
1.48561e-09
1.45342e-09
1.4261e-09
1.40208e-09
1.38115e-09
1.36282e-09
1.34637e-09
1.33202e-09
1.31877e-09
1.30726e-09
1.29642e-09
1.28699e-09
1.27799e-09
1.27009e-09
1.26248e-09
1.2557e-09
1.24917e-09
1.24327e-09
1.23765e-09
1.23255e-09
1.22775e-09
1.22332e-09
1.21908e-09
1.21493e-09
1.21069e-09
1.20611e-09
1.20094e-09
1.19477e-09
1.18724e-09
1.17771e-09
1.16558e-09
1.15017e-09
1.13024e-09
1.10537e-09
1.0743e-09
1.0338e-09
9.90572e-10
9.27448e-10
8.70886e-10
3.26547e-05
0.003078
7.70851e-10
0.00215808
6.52278e-10
0.000554001
8.77392e-10
1.3047e-09
2.80746e-09
1.06134e-08
2.52763e-09
2.33704e-08
2.66025e-08
0
1.457e-08
9.97769e-09
5.31626e-09
6.00314e-09
5.96982e-09
0
1.32168e-08
3.1262e-08
4.4979e-08
3.84232e-08
3.26647e-09
1.0134e-08
1.41374e-08
1.29515e-08
9.47115e-09
5.73999e-09
2.48064e-09
0
1.61019e-09
5.49548e-09
5.8573e-09
1.47383e-08
0.00109179
0
0
0
0
0
0
0
0
0
0
1.73005e-06
0
0
0
0
7.517e-07
5.02608e-06
3.55542e-06
0
0
0
6.64067e-06
0
6.60325e-09
1.21656e-05
1.65073e-05
2.04739e-05
2.14065e-05
2.18153e-05
2.10088e-05
1.99233e-05
1.84168e-05
1.68777e-05
1.53485e-05
1.41119e-05
1.32364e-05
1.28137e-05
1.26948e-05
1.26171e-05
1.21708e-05
1.11672e-05
9.75099e-06
8.29281e-06
7.03202e-06
6.09715e-06
5.56704e-06
5.27582e-06
0
3.55138e-09
7.00537e-10
6.93355e-09
6.6234e-09
3.95066e-09
0
2.79765e-09
3.18303e-09
2.59197e-09
1.49272e-09
0
5.4578e-10
0
4.10279e-09
2.8951e-09
6.0715e-10
2.41207e-11
7.74849e-05
3.2319e-09
4.04776e-09
4.75131e-09
6.16497e-09
0
8.73469e-09
9.93767e-09
0
1.03757e-09
9.20301e-09
1.81471e-08
0
6.98913e-09
1.68254e-09
4.60239e-09
2.59608e-09
1.4892e-09
1.5458e-09
2.10079e-09
2.45492e-09
2.53697e-09
2.37385e-09
1.8846e-09
1.41464e-09
9.75374e-10
6.41774e-10
0.518776
6.02606e-10
9.49532e-10
1.2917e-09
1.70643e-09
2.18001e-09
2.74323e-09
3.41086e-09
4.17208e-09
5.01318e-09
5.87789e-09
6.7333e-09
7.5176e-09
8.19214e-09
8.66792e-09
8.90623e-09
8.88502e-09
8.66622e-09
8.30632e-09
7.87931e-09
7.42276e-09
6.94627e-09
6.44722e-09
5.91179e-09
5.35172e-09
4.75984e-09
4.16085e-09
3.5585e-09
2.99887e-09
2.52362e-09
2.18214e-09
1.94415e-09
1.71021e-09
1.39957e-09
1.08338e-09
8.86412e-10
9.20995e-10
1.15362e-09
1.38168e-09
1.65604e-09
1.90147e-09
1.93755e-09
1.82401e-09
1.69788e-09
1.46786e-09
1.06086e-09
6.47655e-10
6.56898e-10
9.69394e-11
0.00351369
0
0
1.14507e-09
3.41593e-09
6.97987e-09
1.01461e-08
1.01915e-08
6.44605e-09
2.38085e-09
0
9.29863e-10
1.85861e-09
1.90936e-09
9.25648e-10
0.00370618
1.72442e-09
9.61759e-09
6.47299e-09
1.25246e-07
2.87308e-08
4.83561e-08
0
9.25621e-08
9.21971e-09
9.68322e-08
1.43075e-07
1.11008e-07
2.70087e-08
6.28145e-09
2.1979e-08
2.15522e-08
6.4023e-09
6.59634e-09
1.58863e-08
6.62739e-08
)
;
    }
    front
    {
        type            empty;
    }
    back
    {
        type            empty;
    }
}


// ************************************************************************* //
