/*--------------------------------*- C++ -*----------------------------------*\
| =========                 |                                                 |
| \\      /  F ield         | OpenFOAM: The Open Source CFD Toolbox           |
|  \\    /   O peration     | Version:  2306                                  |
|   \\  /    A nd           | Website:  www.openfoam.com                      |
|    \\/     M anipulation  |                                                 |
\*---------------------------------------------------------------------------*/
FoamFile
{
    version     2.0;
    format      ascii;
    arch        "LSB;label=32;scalar=64";
    class       volScalarField;
    location    "1900";
    object      p;
}
// * * * * * * * * * * * * * * * * * * * * * * * * * * * * * * * * * * * * * //

dimensions      [0 2 -2 0 0 0 0];

internalField   nonuniform List<scalar> 
20540
(
162.05
164.376
162.05
164.375
162.05
164.374
162.05
164.372
162.049
164.37
162.049
164.366
162.048
164.362
162.047
164.357
162.046
164.351
162.045
164.344
162.044
164.335
162.042
164.325
162.041
164.313
162.039
164.299
162.036
164.281
162.033
164.259
162.03
164.234
162.026
164.203
162.021
164.167
162.015
164.124
162.008
164.073
162
164.013
161.99
163.944
161.979
163.864
161.967
163.773
161.953
163.671
161.937
163.56
161.921
163.443
161.904
163.325
161.887
163.216
161.873
163.139
161.864
163.102
161.859
163.104
161.859
163.144
161.864
163.223
161.873
163.33
161.883
163.445
161.894
163.56
161.905
163.67
161.917
163.77
161.927
163.861
161.937
163.941
161.945
164.011
161.953
164.071
161.959
164.123
161.965
164.168
161.97
164.206
161.974
164.238
161.978
164.264
161.981
164.287
161.983
164.306
161.986
164.322
161.987
164.335
161.989
164.346
161.99
164.355
161.991
164.363
161.992
164.37
161.993
164.375
161.994
164.38
161.995
164.384
161.995
164.387
161.996
164.389
161.996
164.391
161.996
164.392
161.996
164.393
163.631
157.465
156.383
157.178
158.053
158.452
158.43
158.591
158.223
157.989
157.061
156.21
154.648
153.117
150.948
148.785
146.11
143.427
140.367
137.295
133.967
130.631
127.135
123.64
120.057
116.486
112.878
109.295
105.714
102.17
98.6515
95.1779
91.7414
88.3509
85.0026
81.7015
78.45
75.2551
72.1265
69.0763
66.1218
63.2806
60.5781
58.0369
55.6927
53.5679
51.7127
50.1536
48.9041
48.1158
47.5329
47.6507
47.5106
47.8471
48.5122
49.0861
48.4351
48.5044
46.4238
26.8232
-37.7285
-0.373379
231.627
250.88
21.4409
-134.789
-63.5627
72.1054
136.814
166.899
223.928
314.453
336.451
262.58
140.158
-18.5104
-148.635
-175.453
-131.553
-58.3279
10.5739
57.3874
87.9851
106.464
110.287
108.564
90.0988
48.9089
163.63
157.466
156.383
157.178
158.053
158.452
158.43
158.591
158.223
157.989
157.061
156.21
154.648
153.117
150.948
148.785
146.11
143.427
140.367
137.295
133.967
130.631
127.135
123.64
120.057
116.486
112.878
109.295
105.714
102.17
98.6515
95.1779
91.7414
88.351
85.0026
81.7015
78.45
75.2551
72.1266
69.0763
66.1218
63.2806
60.5781
58.0369
55.6927
53.568
51.7127
50.1536
48.9042
48.1159
47.533
47.6507
47.5105
47.8473
48.5126
49.0863
48.4356
48.5039
46.4242
26.8266
-37.7236
-0.369951
231.598
250.847
21.4513
-134.773
-63.5656
72.0877
136.813
166.9
223.929
314.43
336.421
262.557
140.156
-18.4972
-148.628
-175.463
-131.569
-58.334
10.5698
57.3823
87.9749
106.452
110.279
108.561
90.0556
50.1218
163.629
157.466
156.383
157.178
158.053
158.452
158.43
158.591
158.223
157.989
157.061
156.21
154.648
153.117
150.948
148.785
146.11
143.427
140.367
137.295
133.967
130.631
127.135
123.64
120.057
116.486
112.878
109.295
105.714
102.17
98.6515
95.1779
91.7415
88.351
85.0026
81.7016
78.45
75.2551
72.1266
69.0763
66.1218
63.2807
60.5781
58.037
55.6928
53.568
51.7128
50.1537
48.9042
48.116
47.5331
47.6508
47.5107
47.8475
48.5129
49.0864
48.4361
48.5035
46.4253
26.8308
-37.7208
-0.368534
231.557
250.808
21.4364
-134.801
-63.5997
72.0697
136.815
166.895
223.915
314.396
336.378
262.513
140.127
-18.5482
-148.721
-175.553
-131.618
-58.346
10.5658
57.3739
87.9593
106.439
110.267
108.569
90.0077
51.8986
163.628
157.467
156.383
157.178
158.053
158.452
158.43
158.591
158.223
157.989
157.061
156.21
154.648
153.117
150.948
148.785
146.11
143.427
140.367
137.295
133.967
130.631
127.135
123.64
120.057
116.486
112.878
109.295
105.714
102.17
98.6515
95.1779
91.7415
88.351
85.0026
81.7016
78.4501
75.2551
72.1266
69.0763
66.1218
63.2807
60.5781
58.037
55.6928
53.5681
51.7128
50.1538
48.9043
48.1161
47.5333
47.6509
47.5109
47.8478
48.5132
49.0865
48.4367
48.5031
46.4272
26.835
-37.7208
-0.36338
231.468
250.708
21.3522
-134.914
-63.6951
72.0489
136.827
166.891
223.895
314.338
336.285
262.384
139.988
-18.7947
-149.078
-175.847
-131.712
-58.3608
10.5666
57.3603
87.9295
106.417
110.247
108.596
89.9601
54.3638
163.625
157.468
156.383
157.179
158.053
158.452
158.43
158.591
158.223
157.989
157.061
156.21
154.648
153.117
150.948
148.785
146.11
143.427
140.367
137.295
133.967
130.631
127.135
123.64
120.057
116.486
112.878
109.295
105.714
102.17
98.6515
95.1779
91.7415
88.351
85.0027
81.7016
78.4501
75.2551
72.1266
69.0764
66.1219
63.2807
60.5782
58.037
55.6928
53.5681
51.7129
50.1538
48.9044
48.1162
47.5334
47.651
47.5111
47.848
48.5136
49.0866
48.4373
48.5029
46.4301
26.8372
-37.7273
-0.351782
231.297
250.516
21.1155
-135.21
-63.9076
72.0285
136.844
166.881
223.838
314.197
336.042
262.041
139.544
-19.5541
-150.072
-176.455
-131.85
-58.3815
10.5705
57.333
87.8703
106.379
110.21
108.66
89.956
57.3535
163.623
157.47
156.384
157.179
158.053
158.452
158.431
158.591
158.223
157.99
157.061
156.21
154.649
153.117
150.948
148.785
146.11
143.427
140.367
137.295
133.967
130.631
127.135
123.64
120.057
116.486
112.878
109.295
105.714
102.17
98.6516
95.1779
91.7415
88.351
85.0027
81.7016
78.4501
75.2551
72.1266
69.0764
66.1219
63.2807
60.5782
58.037
55.6929
53.5681
51.7129
50.1539
48.9045
48.1163
47.5335
47.6511
47.5113
47.8482
48.5139
49.0869
48.4378
48.5031
46.4332
26.8347
-37.7441
-0.332913
231.017
250.171
20.4606
-135.918
-64.2642
72.0065
136.856
166.86
223.7
313.887
335.512
261.327
138.654
-21.2126
-152.188
-177.394
-132.033
-58.4228
10.5584
57.2729
87.7577
106.311
110.136
108.777
90.0296
60.7594
163.619
157.472
156.384
157.179
158.054
158.452
158.431
158.591
158.223
157.99
157.061
156.21
154.649
153.117
150.948
148.785
146.11
143.427
140.367
137.295
133.967
130.631
127.135
123.64
120.057
116.486
112.878
109.295
105.714
102.17
98.6516
95.178
91.7415
88.351
85.0027
81.7016
78.4501
75.2552
72.1266
69.0764
66.1219
63.2807
60.5782
58.0371
55.6929
53.5682
51.713
50.1539
48.9045
48.1163
47.5335
47.651
47.5114
47.8484
48.5141
49.0873
48.4381
48.5035
46.4352
26.8251
-37.7722
-0.324059
230.61
249.61
19.3575
-137.229
-64.7437
71.9622
136.849
166.837
223.444
313.285
334.536
260.178
137.25
-24.2547
-155.606
-178.605
-132.296
-58.5214
10.4798
57.1518
87.5755
106.201
110.009
108.956
90.2236
64.4481
163.615
157.475
156.385
157.179
158.054
158.453
158.431
158.591
158.223
157.99
157.061
156.21
154.649
153.117
150.948
148.785
146.11
143.427
140.367
137.295
133.967
130.631
127.135
123.64
120.057
116.486
112.878
109.295
105.714
102.17
98.6516
95.178
91.7415
88.351
85.0027
81.7016
78.4501
75.2552
72.1267
69.0764
66.1219
63.2808
60.5782
58.0371
55.6929
53.5681
51.7129
50.1538
48.9044
48.1162
47.5333
47.6507
47.5113
47.8485
48.5142
49.0878
48.438
48.5045
46.4326
26.807
-37.8099
-0.378726
230.105
248.863
17.7404
-139.148
-65.3213
71.8622
136.815
166.824
223.051
312.155
333.132
258.587
135.114
-29.0629
-160.16
-180.053
-132.724
-58.7395
10.2752
56.9494
87.3148
106.034
109.835
109.204
90.6254
68.2526
163.61
157.479
156.386
157.18
158.054
158.453
158.431
158.592
158.223
157.99
157.061
156.21
154.649
153.117
150.948
148.785
146.11
143.427
140.367
137.295
133.967
130.631
127.135
123.64
120.057
116.486
112.878
109.295
105.714
102.17
98.6516
95.178
91.7416
88.3511
85.0027
81.7016
78.4501
75.2552
72.1267
69.0764
66.1219
63.2807
60.5782
58.037
55.6928
53.568
51.7127
50.1536
48.9041
48.1158
47.5328
47.6499
47.5108
47.8479
48.5139
49.088
48.4373
48.5068
46.4196
26.7856
-37.8372
-0.578892
229.674
248.054
15.4479
-141.556
-66.0763
71.6909
136.762
166.835
222.514
310.295
331.565
256.778
131.922
-35.8744
-165.611
-181.798
-133.457
-59.1494
9.89512
56.6394
86.9574
105.794
109.628
109.519
91.3399
72.0301
163.606
157.485
156.387
157.18
158.054
158.453
158.431
158.592
158.223
157.99
157.061
156.21
154.649
153.117
150.948
148.785
146.11
143.427
140.367
137.295
133.967
130.631
127.136
123.64
120.057
116.486
112.878
109.295
105.714
102.17
98.6516
95.178
91.7416
88.3511
85.0027
81.7017
78.4501
75.2552
72.1267
69.0764
66.1218
63.2807
60.5781
58.0368
55.6926
53.5677
51.7123
50.153
48.9034
48.1148
47.5315
47.6479
47.5093
47.846
48.5127
49.0869
48.4362
48.5125
46.3886
26.7617
-37.8437
-1.02046
229.504
247.316
12.2032
-144.285
-67.2496
71.4522
136.697
166.895
221.761
307.77
330.233
255.243
127.281
-44.7816
-171.803
-184.009
-134.695
-59.8601
9.26502
56.1901
86.5123
105.498
109.408
109.912
92.4267
75.7574
163.601
157.492
156.39
157.181
158.055
158.453
158.431
158.592
158.223
157.99
157.061
156.211
154.649
153.117
150.948
148.785
146.11
143.427
140.367
137.295
133.967
130.631
127.136
123.64
120.057
116.486
112.878
109.295
105.714
102.17
98.6517
95.1781
91.7416
88.3511
85.0028
81.7017
78.4502
75.2552
72.1266
69.0763
66.1217
63.2805
60.5778
58.0365
55.6921
53.5671
51.7114
50.1518
48.9018
48.1126
47.5286
47.6436
47.5058
47.8408
48.5097
49.0814
48.4353
48.5196
46.326
26.7247
-37.8001
-2.01351
229.864
246.747
7.9182
-147.124
-69.1468
71.0875
136.617
167.046
220.757
304.992
329.104
254.3
120.564
-55.5788
-178.648
-186.892
-136.656
-60.9929
8.31686
55.5885
85.9955
105.151
109.231
110.39
93.9578
79.5639
163.597
157.502
156.392
157.183
158.056
158.454
158.432
158.592
158.224
157.99
157.061
156.211
154.649
153.117
150.948
148.785
146.11
143.427
140.367
137.295
133.967
130.631
127.136
123.64
120.058
116.486
112.878
109.295
105.714
102.17
98.6517
95.1781
91.7416
88.3511
85.0028
81.7017
78.4501
75.2551
72.1265
69.0762
66.1215
63.2802
60.5774
58.0358
55.6911
53.5657
51.7096
50.1493
48.8985
48.108
47.5227
47.6348
47.498
47.8294
48.502
49.0652
48.4343
48.5207
46.2203
26.6753
-37.6741
-3.69762
230.732
246.351
2.85583
-150.19
-72.1898
70.3983
136.464
167.362
219.545
302.681
328.154
253.72
111.252
-67.7686
-186.03
-190.553
-139.53
-62.6475
7.00465
54.8252
85.4186
104.763
109.189
111.006
96.0769
83.715
163.591
157.513
156.396
157.185
158.057
158.455
158.432
158.593
158.224
157.99
157.062
156.211
154.649
153.118
150.948
148.785
146.11
143.427
140.367
137.295
133.967
130.631
127.136
123.64
120.058
116.486
112.878
109.295
105.714
102.17
98.6518
95.1782
91.7417
88.3512
85.0028
81.7017
78.4501
75.2551
72.1264
69.0759
66.1211
63.2795
60.5764
58.0345
55.6893
53.5632
51.706
50.1445
48.8921
48.099
47.5111
47.6177
47.4817
47.806
48.4838
49.0279
48.4301
48.498
46.0443
26.6038
-37.3322
-5.64624
231.767
245.764
-3.05443
-152.749
-76.0872
69.2449
136.21
167.983
218.305
301.784
327.153
253.056
99.2489
-80.5874
-193.659
-194.779
-143.364
-64.8412
5.3286
53.9004
84.8063
104.371
109.378
111.87
98.9145
88.5909
163.585
157.527
156.4
157.187
158.058
158.456
158.433
158.593
158.225
157.991
157.062
156.211
154.649
153.118
150.949
148.785
146.11
143.428
140.368
137.295
133.967
130.631
127.136
123.64
120.058
116.486
112.878
109.295
105.714
102.17
98.6519
95.1783
91.7418
88.3513
85.0029
81.7017
78.45
75.2549
72.1261
69.0754
66.1203
63.2784
60.5747
58.0321
55.6858
53.5584
51.6995
50.1356
48.8802
48.0824
47.4897
47.5858
47.4501
47.7615
48.4436
48.952
48.4099
48.4125
45.7473
26.4761
-36.3261
-7.04863
232.118
244.421
-10.4033
-153.795
-79.1035
67.7774
135.888
169.005
217.523
302.45
326.112
250.914
84.9749
-93.2887
-201.026
-198.716
-147.788
-67.4465
3.38314
52.8495
84.2271
104.074
109.919
113.151
102.632
94.4907
163.576
157.543
156.406
157.19
158.06
158.457
158.434
158.594
158.225
157.991
157.062
156.212
154.65
153.118
150.949
148.786
146.111
143.428
140.368
137.296
133.967
130.631
127.136
123.641
120.058
116.486
112.879
109.296
105.714
102.17
98.652
95.1784
91.742
88.3514
85.0029
81.7017
78.4499
75.2546
72.1255
69.0746
66.119
63.2764
60.5718
58.0279
55.6799
53.5503
51.6881
50.1202
48.8595
48.0533
47.4525
47.5299
47.3933
47.6813
48.3633
48.8136
48.3466
48.2046
45.2606
26.2689
-34.0703
-6.77105
230.437
241.213
-19.1495
-153.039
-79.241
66.5366
135.581
170.471
217.705
303.867
325.32
245.77
69.336
-104.599
-207.469
-202.177
-151.673
-70.0543
1.39229
51.7646
83.7995
104.024
111.007
115.067
107.42
101.589
163.566
157.562
156.412
157.193
158.062
158.458
158.435
158.595
158.226
157.992
157.063
156.212
154.65
153.118
150.949
148.786
146.111
143.428
140.368
137.296
133.968
130.631
127.136
123.641
120.058
116.486
112.879
109.296
105.714
102.171
98.6523
95.1787
91.7422
88.3516
85.003
81.7017
78.4497
75.2541
72.1247
69.0732
66.1169
63.2732
60.5672
58.0213
55.6706
53.5374
51.6699
50.0957
48.8261
48.0065
47.3926
47.4387
47.2997
47.548
48.2209
48.5839
48.1971
47.8218
44.5085
26.0189
-29.9262
-3.8526
225.718
235.006
-28.7265
-150.303
-74.6279
66.0021
135.297
172.276
219.03
304.286
324.27
236.914
53.5414
-113.594
-212.696
-206.261
-153.761
-71.8553
-0.240882
50.8792
83.7052
104.463
112.9
117.889
113.462
109.986
163.553
157.586
156.42
157.197
158.065
158.46
158.436
158.596
158.227
157.993
157.064
156.213
154.651
153.119
150.95
148.786
146.111
143.428
140.368
137.296
133.968
130.631
127.136
123.641
120.058
116.486
112.879
109.296
105.715
102.171
98.6526
95.179
91.7425
88.3518
85.0032
81.7016
78.4494
75.2534
72.1235
69.0712
66.1138
63.2686
60.5605
58.0117
55.6569
53.5185
51.6432
50.0598
48.777
47.9374
47.3045
47.3034
47.1602
47.3468
47.9971
48.2411
47.9119
47.2398
43.4425
25.883
-23.4757
1.58001
217.299
225.241
-36.6564
-146.318
-67.0994
65.6114
134.71
173.777
221.054
301.473
320.661
223.418
36.6443
-122.589
-216.169
-211.424
-154.804
-72.17
-0.883634
50.6275
84.288
105.761
115.95
122.04
120.885
119.848
163.539
157.614
156.429
157.201
158.068
158.463
158.438
158.597
158.228
157.994
157.065
156.213
154.652
153.119
150.95
148.787
146.111
143.428
140.368
137.296
133.968
130.632
127.136
123.641
120.058
116.486
112.879
109.296
105.715
102.171
98.653
95.1794
91.7428
88.3521
85.0033
81.7015
78.4489
75.2525
72.1218
69.0685
66.1096
63.2624
60.5514
57.9987
55.6383
53.493
51.6073
50.0111
48.7107
47.8437
47.1857
47.1211
46.9696
47.0728
47.6818
47.7823
47.4602
46.4668
42.1249
26.1075
-14.9564
8.11341
204.004
210.221
-37.5378
-138.481
-56.811
65.4988
133.43
174.376
221.94
293.75
311.483
205.501
19.4948
-131.9
-215.548
-212.717
-152.087
-69.6646
0.407867
51.6463
85.9841
108.286
120.422
127.788
129.679
131.113
163.521
157.648
156.44
157.207
158.072
158.465
158.44
158.599
158.229
157.995
157.066
156.214
154.652
153.12
150.951
148.787
146.112
143.429
140.369
137.296
133.968
130.632
127.136
123.641
120.058
116.487
112.879
109.296
105.715
102.172
98.6534
95.1798
91.7432
88.3523
85.0033
81.7012
78.4482
75.2511
72.1195
69.0649
66.1041
63.2542
60.5395
57.9818
55.6144
53.46
51.561
49.9483
48.6256
47.7234
47.0339
46.8907
46.7236
46.7258
47.2705
47.2128
46.8401
45.5307
40.7413
26.8238
-5.39982
15.021
184.879
188.913
-26.1634
-116.497
-40.4544
66.7464
131.428
173.141
219.442
279.912
293.949
184.653
6.6226
-134.779
-206.161
-203.025
-141.572
-62.2997
4.80643
54.6435
89.1546
112.265
126.31
135.012
139.629
143.282
163.5
157.687
156.453
157.213
158.077
158.468
158.442
158.601
158.231
157.996
157.067
156.215
154.653
153.121
150.951
148.788
146.112
143.429
140.369
137.297
133.968
130.632
127.136
123.641
120.058
116.487
112.879
109.297
105.716
102.172
98.6538
95.1802
91.7436
88.3525
85.0033
81.7008
78.4471
75.2493
72.1164
69.0601
66.0969
63.2437
60.5242
57.9601
55.5838
53.4177
51.5022
49.8683
48.518
47.5716
46.8434
46.6065
46.4126
46.2994
46.7525
46.5276
46.0542
44.465
39.4691
27.8613
4.02214
22.2805
162.192
165.267
-4.36777
-80.8639
-19.6249
69.2546
128.307
169.166
211.362
259.095
267.433
163.293
2.93464
-122.6
-180.883
-175.691
-118.902
-47.6016
13.5532
60.1159
93.7357
117.203
132.899
143.141
150.447
156.061
163.475
157.734
156.469
157.221
158.082
158.472
158.445
158.603
158.233
157.998
157.068
156.217
154.654
153.122
150.952
148.788
146.113
143.43
140.369
137.297
133.968
130.632
127.136
123.641
120.058
116.487
112.879
109.297
105.716
102.172
98.6542
95.1807
91.7439
88.3527
85.0031
81.7
78.4457
75.2467
72.1123
69.0538
66.0875
63.2299
60.5044
57.9321
55.5444
53.3636
51.4273
49.7664
48.3821
47.3807
46.6044
46.2577
46.0208
45.7781
46.1067
45.7109
45.092
43.2937
38.3678
28.9362
12.7117
29.2613
139.059
142.41
18.3885
-42.3909
1.92061
72.3758
123.862
161.937
197.446
231.42
233.502
144.58
12.8641
-89.3444
-134.025
-127.567
-81.587
-23.8323
27.5202
68.2177
99.1434
121.867
138.583
150.512
160.703
168.867
163.446
157.789
156.487
157.23
158.088
158.477
158.448
158.606
158.235
158
157.07
156.218
154.655
153.123
150.952
148.789
146.113
143.43
140.369
137.297
133.968
130.632
127.136
123.641
120.058
116.487
112.879
109.297
105.716
102.173
98.6546
95.1811
91.7441
88.3527
85.0026
81.6989
78.4435
75.2432
72.1067
69.0454
66.075
63.2119
60.4786
57.8958
55.4936
53.2938
51.3314
49.636
48.2093
47.1399
46.3033
45.8291
45.5262
45.1404
45.3041
44.7402
43.935
42.0243
37.3997
29.9296
20.435
34.8791
117.316
120.934
35.9848
-8.5017
21.5687
75.1447
117.89
151.254
179.258
200.158
197.191
130.301
34.8436
-39.2475
-71.7068
-67.1276
-35.4328
5.95395
45.1261
78.0497
104.711
125.503
142.293
155.54
168.249
179.633
163.411
157.853
156.509
157.24
158.096
158.482
158.451
158.609
158.237
158.002
157.071
156.22
154.656
153.124
150.953
148.79
146.113
143.43
140.369
137.297
133.967
130.632
127.135
123.641
120.057
116.486
112.879
109.297
105.716
102.173
98.6548
95.1814
91.7442
88.3524
85.0017
81.6972
78.4404
75.2383
72.0991
69.0342
66.0585
63.1881
60.4447
57.8483
55.4275
53.2032
51.2079
49.4684
47.9886
46.8355
45.922
45.3014
44.9008
44.3594
44.311
43.5862
42.5679
40.6379
36.51
30.8327
26.8509
38.5968
97.9562
101.63
47.6909
18.1903
37.9534
76.8161
110.434
137.427
157.922
169.023
162.96
117.5
55.1971
6.79068
-15.409
-13.3408
6.34549
33.8695
62.01
87.3168
109.213
127.436
143.294
156.903
170.475
183.599
163.371
157.926
156.535
157.251
158.104
158.488
158.455
158.613
158.24
158.005
157.073
156.222
154.657
153.126
150.953
148.791
146.113
143.431
140.368
137.297
133.966
130.632
127.134
123.64
120.056
116.486
112.878
109.297
105.716
102.173
98.6547
95.1815
91.7439
88.3518
85.0001
81.6945
78.436
75.2315
72.0888
69.019
66.0364
63.1565
60.4
57.7858
55.341
53.0851
51.0479
49.2522
47.7053
46.4498
45.4372
44.6503
44.1112
43.4008
43.0909
42.2114
40.9763
39.097
35.6267
31.5786
31.5241
40.4989
81.4282
85.2614
54.2123
36.8285
49.7613
76.486
101.186
121.083
134.535
139.356
131.971
103.295
65.6179
36.4212
22.8932
24.3175
36.7197
54.8341
74.5703
93.4429
110.747
126.026
139.917
152.411
164.707
176.645
163.325
158.01
156.566
157.264
158.114
158.495
158.46
158.617
158.243
158.008
157.074
156.224
154.658
153.127
150.953
148.792
146.112
143.431
140.367
137.297
133.965
130.631
127.132
123.64
120.055
116.485
112.877
109.296
105.715
102.173
98.6543
95.1813
91.7431
88.3506
84.9977
81.6906
78.4297
75.2221
72.0747
68.9985
66.0066
63.1143
60.3405
57.7032
55.2272
52.9304
50.8396
48.9723
47.34
45.9604
44.8195
43.8447
43.1175
42.221
41.6049
40.5674
39.1354
37.3466
34.6171
31.9641
34.1386
40.8058
67.713
71.828
56.1564
47.4634
55.986
73.2836
89.9807
103.25
111.151
112.517
105.893
89.0252
68.2203
52.2309
45.0633
46.5451
54.6103
66.484
79.9431
93.4135
106.272
118.039
128.92
138.768
148.142
156.757
163.272
158.103
156.601
157.278
158.125
158.503
158.465
158.622
158.246
158.012
157.076
156.227
154.658
153.129
150.952
148.793
146.11
143.432
140.364
137.297
133.962
130.63
127.13
123.639
120.052
116.484
112.875
109.295
105.713
102.172
98.6533
95.1806
91.7416
88.3484
84.9938
81.6849
78.4208
75.2089
72.0553
68.9705
65.9665
63.0576
60.2611
57.5936
55.0771
52.7272
50.5676
48.6096
46.8682
45.3387
44.0326
42.8444
41.8748
40.7657
39.8098
38.594
36.9978
35.301
33.2647
31.6741
34.5927
39.552
56.3686
60.5512
54.0751
50.7699
56.316
66.7489
77.0021
84.9148
89.072
88.9402
84.2478
75.0741
64.5599
56.6475
53.3415
54.6786
59.6964
67.0138
75.4657
84.0978
92.4519
100.095
107.054
113.059
118.415
122.667
163.213
158.205
156.64
157.292
158.137
158.512
158.47
158.627
158.249
158.016
157.077
156.23
154.657
153.132
150.951
148.795
146.108
143.433
140.361
137.297
133.959
130.63
127.126
123.637
120.048
116.483
112.871
109.294
105.711
102.171
98.6513
95.1791
91.7388
88.3449
84.9881
81.6767
78.4081
75.1907
72.0286
68.9324
65.9121
62.9813
60.1549
57.4476
54.8784
52.4597
50.2119
48.1394
46.2587
44.5488
43.033
41.5992
40.3317
38.969
37.6514
36.2148
34.4747
32.8211
31.2779
30.3332
32.9338
36.5643
46.5201
50.2157
48.3821
47.7127
51.0676
56.7448
62.2603
66.2814
68.03
67.3163
64.2959
59.475
54.321
50.4609
48.7781
49.3177
51.6629
55.1508
59.2009
63.254
67.0271
70.1688
72.6801
74.2625
75.1464
74.8429
163.15
158.313
156.683
157.307
158.149
158.522
158.475
158.634
158.252
158.021
157.077
156.234
154.656
153.135
150.948
148.797
146.104
143.434
140.356
137.297
133.953
130.629
127.121
123.636
120.043
116.48
112.867
109.292
105.707
102.169
98.648
95.1766
91.7344
88.3397
84.9796
81.6649
78.3904
75.1655
71.992
68.8805
65.8387
62.8789
60.013
57.2536
54.6158
52.1085
49.7474
47.5312
45.474
43.5465
41.7703
40.0483
38.429
36.7547
35.0557
33.3318
31.4207
29.6955
28.3205
27.5492
29.1973
31.5469
36.9343
39.4922
39.2594
39.2383
40.7579
43.1587
45.3386
46.6194
46.6522
45.3998
43.0462
39.9548
36.7452
34.0242
32.1286
31.065
30.6555
30.5878
30.5931
30.3628
29.7558
28.5316
26.716
24.0701
20.7951
16.484
163.085
158.421
156.729
157.322
158.161
158.533
158.479
158.642
158.253
158.028
157.076
156.24
154.653
153.14
150.943
148.801
146.098
143.436
140.35
137.298
133.946
130.628
127.113
123.634
120.036
116.478
112.86
109.289
105.701
102.167
98.6427
95.1727
91.7275
88.332
84.9673
81.6485
78.3659
75.131
71.9422
68.8104
65.7399
62.7417
59.8241
56.9969
54.2704
51.6496
49.1446
46.749
44.4714
42.2811
40.1889
38.1238
36.0988
34.0385
31.9216
29.8173
27.6333
25.6458
24.0464
22.9478
23.2893
24.1524
26.2903
27.1835
26.7232
26.0869
25.872
25.8409
25.5441
24.6862
23.133
20.8871
18.0522
14.7992
11.3552
7.91654
4.58888
1.35702
-1.85361
-5.18188
-8.73475
-12.6601
-17.0023
-21.8908
-27.2718
-33.2897
-39.7711
-46.9957
163.025
158.521
156.773
157.336
158.173
158.545
158.483
158.652
158.254
158.038
157.074
156.25
154.649
153.15
150.938
148.81
146.091
143.443
140.341
137.303
133.937
130.63
127.103
123.634
120.026
116.476
112.85
109.286
105.693
102.163
98.634
95.1667
91.7165
88.3207
84.9492
81.6254
78.3315
75.0839
71.8743
68.7159
65.6073
62.5591
59.574
56.6595
53.8193
51.055
48.369
45.7519
43.2034
40.6963
38.2279
35.7521
33.2601
30.7242
28.1153
25.5051
22.8638
20.3532
18.1186
16.1931
14.9728
14.0234
13.4409
12.2976
10.6152
8.62276
6.60976
4.48247
2.05761
-0.782831
-4.08815
-7.85663
-12.0483
-16.6018
-21.4439
-26.5169
-31.789
-37.2678
-42.9737
-48.953
-55.2297
-61.8527
-68.8125
-76.1543
-83.8139
-91.8539
-100.14
-108.834
162.981
158.589
156.805
157.346
158.18
158.557
158.484
158.665
158.253
158.053
157.071
156.267
154.645
153.168
150.932
148.827
146.085
143.458
140.334
137.314
133.929
130.639
127.094
123.638
120.016
116.478
112.84
109.285
105.682
102.16
98.6226
95.1602
91.7021
88.3075
84.9265
81.5983
78.2901
75.0287
71.7944
68.6061
65.4532
62.3488
59.2871
56.2751
53.3086
50.3868
47.5039
44.6486
41.8121
38.9707
36.112
33.205
30.2322
27.1824
24.0328
20.8292
17.5679
14.326
11.1862
8.13961
5.32172
2.49827
-0.422958
-3.57197
-6.74098
-10.2532
-13.9303
-17.8284
-22.0366
-26.6009
-31.5366
-36.8404
-42.4951
-48.4755
-54.7527
-61.3023
-68.1058
-75.1562
-82.4467
-89.9788
-97.7411
-105.734
-113.927
-122.321
-130.858
-139.552
-148.308
-157.212
162.96
158.62
156.821
157.351
158.183
158.567
158.483
158.68
158.25
158.071
157.067
156.287
154.64
153.19
150.927
148.848
146.078
143.477
140.326
137.33
133.919
130.65
127.083
123.645
120.004
116.481
112.827
109.285
105.668
102.156
98.6079
95.1531
91.6843
88.2934
84.9006
81.57
78.2453
74.9715
71.7104
68.4933
65.2947
62.1348
58.9959
55.8881
52.7968
49.7218
46.6479
43.5641
40.4532
37.2947
34.0693
30.7534
27.3258
23.7769
20.0877
16.2773
12.3441
8.31148
4.21131
0.00723629
-4.27979
-8.81049
-13.7065
-18.5852
-23.1022
-27.9656
-33.0314
-38.3416
-43.9467
-49.8617
-56.0848
-62.6081
-69.417
-76.4931
-83.8145
-91.3597
-99.1071
-107.038
-115.13
-123.367
-131.722
-140.177
-148.695
-157.261
-165.826
-174.384
-182.87
-191.333
162.962
158.617
156.821
157.352
158.181
158.576
158.48
158.694
158.245
158.09
157.061
156.31
154.634
153.215
150.92
148.873
146.071
143.5
140.318
137.349
133.909
130.664
127.072
123.655
119.99
116.487
112.812
109.287
105.652
102.155
98.5905
95.1474
91.6637
88.2803
84.8718
81.5422
78.1977
74.9144
71.6237
68.38
65.1333
61.9201
58.7029
55.5022
52.2873
49.064
45.8043
42.5011
39.1273
35.6664
32.092
28.3849
24.5199
20.4844
16.2574
11.8366
7.2104
2.36777
-2.69703
-8.03872
-13.6849
-19.7663
-26.3899
-32.7706
-38.461
-44.4808
-50.6987
-57.1459
-63.8513
-70.8116
-78.0136
-85.4419
-93.0775
-100.899
-108.881
-117
-125.229
-133.542
-141.912
-150.313
-158.718
-167.101
-175.43
-183.683
-191.823
-199.84
-207.69
-215.405
162.987
158.58
156.807
157.348
158.175
158.582
158.473
158.709
158.237
158.11
157.053
156.335
154.626
153.243
150.912
148.901
146.062
143.526
140.308
137.371
133.898
130.682
127.059
123.669
119.975
116.495
112.795
109.292
105.633
102.156
98.5695
95.1437
91.6394
88.2691
84.8396
81.5166
78.1473
74.8597
71.535
68.2698
64.9721
61.7112
58.4148
55.128
51.792
48.4301
44.9925
41.4843
37.8623
34.1191
30.2174
26.1434
21.8647
17.3661
12.6197
7.60759
2.30483
-3.3225
-9.3042
-15.7057
-22.5728
-30.0178
-38.1218
-45.7649
-52.4311
-59.3988
-66.5409
-73.8775
-81.4209
-89.155
-97.0575
-105.106
-113.277
-121.543
-129.878
-138.253
-146.641
-155.012
-163.34
-171.597
-179.758
-187.797
-195.688
-203.412
-210.941
-218.264
-225.355
-232.241
163.033
158.508
156.777
157.341
158.164
158.587
158.464
158.725
158.228
158.134
157.044
156.365
154.617
153.275
150.904
148.935
146.053
143.557
140.297
137.398
133.886
130.705
127.044
123.686
119.958
116.508
112.774
109.3
105.61
102.16
98.5433
95.1429
91.6095
88.2611
84.8021
81.4946
78.0925
74.8097
71.4437
68.1663
64.8117
61.513
58.1344
54.7732
51.3174
47.8319
44.2236
40.5298
36.6743
32.6733
28.4664
24.0545
19.3895
14.4595
9.22391
3.65623
-2.28304
-8.64162
-15.4639
-22.8202
-30.7608
-39.3837
-48.7456
-57.4463
-64.917
-72.6517
-80.5262
-88.5498
-96.7205
-105.012
-113.395
-121.842
-130.325
-138.814
-147.281
-155.696
-164.032
-172.262
-180.359
-188.3
-196.061
-203.623
-210.965
-218.072
-224.925
-231.517
-237.831
-243.898
163.094
158.407
156.736
157.33
158.15
158.59
158.453
158.742
158.216
158.159
157.034
156.397
154.608
153.312
150.895
148.972
146.044
143.593
140.288
137.43
133.874
130.732
127.029
123.708
119.94
116.525
112.753
109.313
105.584
102.168
98.514
95.1476
91.5761
88.2599
84.7617
81.4817
78.0371
74.773
71.3574
68.0841
64.6669
61.3504
57.889
54.4788
50.9108
47.3346
43.5745
39.7375
35.6809
31.4755
27.0106
22.3261
17.3377
12.0552
6.41268
0.388329
-6.07418
-13.0271
-20.5229
-28.6326
-37.4056
-46.929
-57.2411
-66.7329
-74.7989
-83.0925
-91.4905
-99.9928
-108.586
-117.236
-125.91
-134.578
-143.208
-151.771
-160.237
-168.579
-176.769
-184.783
-192.599
-200.195
-207.551
-214.654
-221.486
-228.037
-234.293
-240.253
-245.905
-251.287
163.158
158.299
156.693
157.317
158.135
158.592
158.442
158.756
158.206
158.181
157.024
156.425
154.6
153.344
150.887
149.005
146.036
143.624
140.278
137.459
133.863
130.756
127.016
123.728
119.924
116.541
112.733
109.325
105.56
102.179
98.4852
95.1551
91.5432
88.2636
84.7228
81.4774
77.9861
74.7512
71.2824
68.0282
64.5475
61.2341
57.6938
54.2639
50.5959
46.9687
43.0809
39.1529
34.9344
30.5907
25.9245
21.0489
15.8144
10.2798
4.33358
-2.02147
-8.8673
-16.2491
-24.2268
-32.869
-42.2235
-52.3713
-63.3398
-73.3814
-81.861
-90.5395
-99.2932
-108.113
-116.979
-125.852
-134.696
-143.48
-152.172
-160.741
-169.159
-177.4
-185.439
-193.254
-200.824
-208.132
-215.161
-221.898
-228.332
-234.455
-240.258
-245.742
-250.9
-255.772
163.22
158.191
156.651
157.304
158.121
158.592
158.432
158.766
158.196
158.198
157.015
156.448
154.592
153.37
150.88
149.032
146.028
143.651
140.27
137.482
133.853
130.777
127.005
123.745
119.909
116.555
112.715
109.337
105.537
102.189
98.459
95.1643
91.5129
88.2708
84.6869
81.4795
77.9403
74.7411
71.2176
67.9932
64.4485
61.1544
57.5377
54.1112
50.3509
46.7046
42.7046
38.7278
34.3732
29.9442
25.1151
20.1131
14.6866
8.97842
2.80283
-3.78625
-10.9138
-18.6024
-26.9246
-35.9426
-45.7033
-56.2863
-67.714
-78.1485
-86.9261
-95.8814
-104.888
-113.93
-122.98
-131.998
-140.947
-149.795
-158.508
-167.058
-175.417
-183.562
-191.468
-199.117
-206.489
-213.568
-220.342
-226.799
-232.93
-238.73
-244.193
-249.321
-254.112
-258.604
163.278
158.09
156.613
157.292
158.108
158.591
158.422
158.774
158.187
158.212
157.008
156.465
154.585
153.391
150.873
149.054
146.021
143.672
140.263
137.502
133.845
130.794
126.995
123.76
119.897
116.567
112.699
109.348
105.519
102.199
98.4361
95.1737
91.4858
88.2794
84.6548
81.485
77.8997
74.7383
71.1618
67.9728
64.366
61.1014
57.4117
54.0047
50.1584
46.5165
42.4154
38.4216
33.9488
29.4751
24.5098
19.4311
13.8501
8.02903
1.67619
-5.07305
-12.4106
-20.3155
-28.8848
-38.1668
-48.2104
-59.0966
-70.847
-81.567
-90.5672
-99.7295
-108.924
-118.127
-127.309
-136.428
-145.447
-154.332
-163.051
-171.574
-179.878
-187.938
-195.736
-203.251
-210.469
-217.373
-223.953
-230.198
-236.102
-241.66
-246.87
-251.732
-256.25
-260.46
163.33
157.996
156.579
157.279
158.096
158.589
158.414
158.779
158.18
158.221
157.001
156.479
154.579
153.406
150.867
149.07
146.016
143.688
140.257
137.517
133.839
130.807
126.987
123.771
119.887
116.577
112.687
109.357
105.503
102.207
98.4166
95.1822
91.4626
88.2879
84.6269
81.492
77.8646
74.7399
71.1142
67.9619
64.2973
61.0671
57.3095
53.9316
50.006
46.384
42.1914
38.2027
33.6258
29.1366
24.0546
18.9361
13.2272
7.33861
0.844965
-6.00886
-13.5068
-21.5609
-30.3099
-39.7761
-50.0162
-61.1132
-73.0903
-84.0223