/*--------------------------------*- C++ -*----------------------------------*\
| =========                 |                                                 |
| \\      /  F ield         | OpenFOAM: The Open Source CFD Toolbox           |
|  \\    /   O peration     | Version:  2306                                  |
|   \\  /    A nd           | Website:  www.openfoam.com                      |
|    \\/     M anipulation  |                                                 |
\*---------------------------------------------------------------------------*/
FoamFile
{
    version     2.0;
    format      ascii;
    arch        "LSB;label=32;scalar=64";
    class       surfaceScalarField;
    location    "1900";
    object      phi;
}
// * * * * * * * * * * * * * * * * * * * * * * * * * * * * * * * * * * * * * //

dimensions      [0 3 -1 0 0 0 0];

oriented        oriented;

internalField   nonuniform List<scalar> 
40747
(
1.75339e-05
-2.65352e-06
7.49413e-06
1.00387e-05
2.11766e-05
-5.82926e-06
1.52912e-05
1.33761e-05
2.55119e-05
-9.56543e-06
2.31077e-05
1.76893e-05
3.06204e-05
-1.38435e-05
3.05541e-05
2.3164e-05
3.65643e-05
-1.85416e-05
3.71401e-05
2.99627e-05
4.33823e-05
-2.33754e-05
4.2312e-05
3.81872e-05
5.11018e-05
-2.7845e-05
4.55422e-05
4.78384e-05
5.98005e-05
-3.12349e-05
4.6495e-05
5.88018e-05
6.97575e-05
-3.27531e-05
4.52618e-05
7.09284e-05
8.17024e-05
-3.1907e-05
4.25809e-05
8.42999e-05
9.70046e-05
-2.90532e-05
3.97943e-05
9.96815e-05
0.00011737
-2.56245e-05
3.82261e-05
0.000118798
0.000143816
-2.33084e-05
3.81608e-05
0.000143706
0.000176033
-2.2563e-05
3.86239e-05
0.000175355
0.000213767
-2.24778e-05
3.86668e-05
0.000213461
0.000258489
-2.22656e-05
3.82708e-05
0.000258564
0.000312566
-2.18754e-05
3.77232e-05
0.000312722
0.000378116
-2.14007e-05
3.7081e-05
0.00037828
0.000457423
-2.08336e-05
3.63053e-05
0.000457619
0.000553362
-2.01527e-05
3.5371e-05
0.000553594
0.00066943
-1.93417e-05
3.42511e-05
0.000669698
0.000809851
-1.83842e-05
3.29137e-05
0.000810155
0.000979737
-1.72643e-05
3.1323e-05
0.000980073
0.00118527
-1.59678e-05
2.94399e-05
0.00118564
0.00143394
-1.4484e-05
2.72216e-05
0.00143432
0.00173479
-1.2807e-05
2.46224e-05
0.00173517
0.00209878
-1.09367e-05
2.15941e-05
0.00209914
0.00253916
-8.85129e-06
1.81936e-05
0.00253946
0.00307194
-6.50246e-06
1.46804e-05
0.00307215
0.00371648
-3.84911e-06
1.10073e-05
0.00371657
0.0035612
-1.64618e-06
7.06143e-06
0.00356118
0.00356128
4.20145e-07
2.97182e-06
0.00356122
0.00356127
2.495e-06
-1.16125e-06
0.00356121
0.00356116
4.74739e-06
-5.07866e-06
0.00356117
0.00360368
7.31909e-06
-8.86405e-06
0.00360381
0.00299765
9.55915e-06
-1.26667e-05
0.0029979
0.00249353
1.15441e-05
-1.63161e-05
0.00249386
0.00207419
1.33121e-05
-1.97029e-05
0.00207457
0.00172538
1.4883e-05
-2.27685e-05
0.00172578
0.00143524
1.627e-05
-2.54915e-05
0.00143564
0.0011939
1.74846e-05
-2.78746e-05
0.00119429
0.000993147
1.8539e-05
-2.99363e-05
0.000993509
0.000826161
1.94462e-05
-3.17036e-05
0.00082649
0.000687259
2.02199e-05
-3.32091e-05
0.000687551
0.000571716
2.08744e-05
-3.44855e-05
0.00057197
0.000475603
2.14228e-05
-3.55588e-05
0.000475821
0.000395651
2.18805e-05
-3.64537e-05
0.000395832
0.000329133
2.22688e-05
-3.72091e-05
0.000329295
0.000273847
2.25489e-05
-3.7845e-05
0.000273991
0.00022797
2.26247e-05
-3.81941e-05
0.000227912
0.000189507
2.28289e-05
-3.80156e-05
0.000188989
0.000156533
2.4116e-05
-3.77112e-05
0.000155946
0.00012849
2.69163e-05
-3.8353e-05
0.000128899
0.000105897
3.02404e-05
-4.04607e-05
0.000107816
8.86291e-05
3.2474e-05
-4.33405e-05
9.13587e-05
7.5458e-05
3.26064e-05
-4.5683e-05
7.76829e-05
6.4901e-05
3.05909e-05
-4.64005e-05
6.55275e-05
5.59134e-05
2.69936e-05
-4.49895e-05
5.44325e-05
4.79771e-05
2.25398e-05
-4.1477e-05
4.44118e-05
4.09026e-05
1.78452e-05
-3.62174e-05
3.56043e-05
3.46384e-05
1.33293e-05
-2.9702e-05
2.80952e-05
2.91614e-05
9.22711e-06
-2.2431e-05
2.18698e-05
2.44363e-05
5.63719e-06
-1.4845e-05
1.68317e-05
2.04069e-05
2.57342e-06
-7.2832e-06
1.28358e-05
1.70025e-05
9.7193e-06
7.14304e-07
9.32313e-06
3.60283e-07
3.52337e-07
2.85722e-07
7.33839e-08
2.47406e-07
3.72053e-08
2.23009e-07
2.34758e-08
2.05484e-07
1.69441e-08
1.91805e-07
1.28165e-08
1.80923e-07
1.05666e-08
1.71966e-07
8.14793e-09
1.64651e-07
7.1645e-09
1.58397e-07
5.60753e-09
1.53197e-07
5.21791e-09
1.48647e-07
4.13433e-09
1.44836e-07
3.9926e-09
1.41441e-07
3.24038e-09
1.38571e-07
3.20293e-09
1.3598e-07
2.69607e-09
1.33765e-07
2.69036e-09
1.31744e-07
2.36326e-09
1.29991e-07
2.36225e-09
1.2838e-07
2.15893e-09
1.2696e-07
2.15358e-09
1.25651e-07
2.0283e-09
1.24479e-07
2.01803e-09
1.23397e-07
1.93954e-09
1.22414e-07
1.92632e-09
1.21501e-07
1.87237e-09
1.2066e-07
1.85252e-09
1.19874e-07
1.80257e-09
1.19144e-07
1.76776e-09
1.18464e-07
1.7099e-09
1.17832e-07
1.66169e-09
1.17246e-07
1.60502e-09
1.167e-07
1.56256e-09
1.16185e-07
1.53154e-09
1.15688e-07
1.52056e-09
1.1519e-07
1.5377e-09
1.14665e-07
1.57896e-09
1.14084e-07
1.66165e-09
1.13407e-07
1.777e-09
1.12587e-07
1.95099e-09
1.11563e-07
2.17565e-09
1.10262e-07
2.48666e-09
1.08598e-07
2.87083e-09
1.06456e-07
3.38587e-09
1.03721e-07
4.00815e-09
1.00276e-07
4.77021e-09
9.58437e-08
5.81117e-09
9.0513e-08
6.80337e-09
8.37434e-08
8.35052e-09
7.57816e-08
9.69536e-09
3.59905e-08
4.17135e-08
5.89833e-10
3.75667e-08
9.31507e-09
-6.4542e-09
8.92619e-09
4.58748e-09
1.24561e-08
-8.24694e-10
1.10857e-08
9.9074e-09
3.93402e-08
-2.53872e-08
9.94796e-08
-4.61706e-08
-5.31639e-08
1.5792e-07
-5.66949e-07
5.31837e-07
-6.47798e-07
8.79262e-08
8.19021e-07
-1.46194e-06
1.81064e-06
-9.99555e-07
9.22806e-07
8.74902e-07
-6.86638e-07
1.58566e-06
-1.06497e-06
3.91951e-07
-6.67289e-07
-3.73648e-07
-5.03739e-07
-1.09843e-07
-5.59671e-07
1.48066e-07
-3.25512e-07
-1.66862e-07
5.24155e-07
-7.70717e-07
1.57336e-06
-1.04131e-06
2.34094e-06
-7.46513e-07
2.52452e-06
-1.93884e-07
1.55196e-06
9.84603e-07
-1.8083e-07
1.74481e-06
-1.05475e-06
9.26113e-07
-1.10341e-06
1.09342e-07
-9.38374e-07
-7.54767e-08
-6.66954e-07
-1.72025e-07
-3.94571e-07
-1.29263e-07
-1.15424e-07
-1.41242e-07
1.12191e-07
-6.44004e-08
3.36128e-07
-1.0877e-07
5.27659e-07
-9.51723e-08
1.02348e-06
-4.25605e-07
-1.65008e-06
2.72526e-06
2.6152e-06
2.00802e-05
1.39956e-06
1.56294e-06
1.10995e-06
3.59438e-07
9.62617e-07
1.8123e-07
8.67742e-07
1.15518e-07
8.00828e-07
8.21252e-08
7.47513e-07
6.34698e-08
7.06177e-07
5.09623e-08
6.712e-07
4.06507e-08
6.43394e-07
3.45422e-08
6.18938e-07
2.81083e-08
5.98977e-07
2.52685e-08
5.8111e-07
2.07713e-08
5.66204e-07
1.94921e-08
5.52787e-07
1.62335e-08
5.4131e-07
1.57407e-08
5.30999e-07
1.33815e-08
5.21959e-07
1.32283e-08
5.13869e-07
1.15575e-08
5.0662e-07
1.15203e-08
5.00147e-07
1.0364e-08
4.94257e-07
1.0335e-08
4.88996e-07
9.54093e-09
4.84168e-07
9.48326e-09
4.79842e-07
8.93637e-09
4.75852e-07
8.84795e-09
4.72248e-07
8.45437e-09
4.68908e-07
8.3241e-09
4.65864e-07
7.99098e-09
4.6304e-07
7.79443e-09
4.60459e-07
7.46449e-09
4.58078e-07
7.21754e-09
4.55903e-07
6.92249e-09
4.53889e-07
6.71172e-09
4.5201e-07
6.55068e-09
4.50199e-07
6.49044e-09
4.4839e-07
6.55922e-09
4.46481e-07
6.74478e-09
4.44361e-07
7.12126e-09
4.41882e-07
7.65332e-09
4.38875e-07
8.45229e-09
4.35115e-07
9.49072e-09
4.30346e-07
1.09146e-08
4.24253e-07
1.26877e-08
4.16433e-07
1.50475e-08
4.06495e-07
1.78772e-08
3.93899e-07
2.1469e-08
3.77968e-07
2.60158e-08
3.58496e-07
3.08555e-08
3.34009e-07
3.77708e-08
3.05947e-07
4.31734e-08
2.42087e-07
1.11647e-07
1.75054e-07
1.12182e-07
1.59456e-07
1.69204e-08
1.15758e-07
6.2792e-08
1.30459e-07
-6.51672e-09
5.61595e-08
1.12028e-07
1.93508e-07
-1.52842e-07
3.15818e-07
-1.24484e-07
-2.12331e-07
7.03169e-07
-1.77888e-06
2.15241e-06
-2.16841e-06
4.95693e-07
2.15415e-06
-5.77643e-06
5.76455e-06
-4.6332e-06
5.63254e-06
9.7998e-07
-9.10559e-07
8.06034e-06
-3.54235e-06
3.06555e-06
-2.55272e-06
-1.28955e-06
-1.84507e-06
-6.75128e-07
-1.43096e-06
-2.95528e-08
-1.04038e-06
-3.87955e-07
1.32661e-06
-2.96464e-06
4.88314e-06
-4.58667e-06
7.52407e-06
-3.35236e-06
8.49253e-06
-1.17934e-06
7.28247e-06
2.22782e-06
1.70944e-06
7.38665e-06
-2.56787e-06
5.32897e-06
-3.49502e-06
1.16822e-06
-3.09508e-06
-2.71124e-07
-2.29306e-06
-7.4268e-07
-1.52288e-06
-5.54209e-07
-6.60484e-07
-6.52729e-07
2.2432e-07
-5.48895e-07
1.01477e-06
-6.43777e-07
1.64844e-06
-5.24708e-07
3.31254e-06
-1.94851e-06
-3.3092e-06
5.06718e-06
5.48761e-06
3.22754e-05
3.10298e-06
3.93878e-06
2.46016e-06
9.95967e-07
2.13338e-06
5.02208e-07
1.92307e-06
3.20751e-07
1.77413e-06
2.28004e-07
1.65623e-06
1.76582e-07
1.56415e-06
1.41385e-07
1.48678e-06
1.13588e-07
1.42468e-06
9.59065e-08
1.37051e-06
7.87961e-08
1.32588e-06
7.00938e-08
1.28624e-06
5.82468e-08
1.25291e-06
5.39192e-08
1.22307e-06
4.53513e-08
1.19743e-06
4.33225e-08
1.17444e-06
3.70847e-08
1.15425e-06
3.61421e-08
1.13616e-06
3.16682e-08
1.11996e-06
3.11816e-08
1.10544e-06
2.80281e-08
1.09224e-06
2.76718e-08
1.08039e-06
2.54572e-08
1.06953e-06
2.50985e-08
1.05975e-06
2.35341e-08
1.05072e-06
2.31432e-08
1.04253e-06
2.19956e-08
1.03493e-06
2.15354e-08
1.02797e-06
2.05754e-08
1.02151e-06
1.99823e-08
1.01558e-06
1.90651e-08
1.01009e-06
1.83737e-08
1.00504e-06
1.75694e-08
1.00036e-06
1.69878e-08
9.95966e-07
1.65352e-08
9.91735e-07
1.63467e-08
9.87522e-07
1.64873e-08
9.83118e-07
1.69391e-08
9.7829e-07
1.78822e-08
9.72726e-07
1.9246e-08
9.66067e-07
2.13043e-08
9.57844e-07
2.40103e-08
9.475e-07
2.77301e-08
9.34379e-07
3.23916e-08
9.17604e-07
3.8609e-08
8.96324e-07
4.61026e-08
8.69451e-07
5.55936e-08
8.35296e-07
6.7737e-08
7.9377e-07
8.05047e-08
7.41206e-07
9.91133e-08
6.80402e-07
1.13636e-07
5.79073e-07
2.23895e-07
4.60689e-07
2.44462e-07
3.99035e-07
9.27174e-08
2.94655e-07
1.94305e-07
2.94047e-07
1.03915e-08
1.50149e-07
3.07579e-07
4.12749e-07
-3.97213e-07
5.7878e-07
-2.12056e-07
-6.61953e-07
1.97502e-06
-3.6401e-06
5.22167e-06
-3.76049e-06
6.41863e-07
5.0254e-06
-1.4553e-05
1.12852e-05
-1.09218e-05
9.81289e-06
2.41954e-06
-2.05618e-06
1.98291e-05
-6.29835e-06
7.3667e-06
-4.38606e-06
-3.09779e-06
-3.34342e-06
-1.52612e-06
-2.58082e-06
-4.80026e-07
-1.08539e-06
-1.6624e-06
3.70043e-06
-7.55907e-06
9.74081e-06
-1.06184e-05
1.44862e-05
-8.06594e-06
1.62059e-05
-2.91697e-06
1.28048e-05
5.66847e-06
1.59704e-06
1.86675e-05
-5.67955e-06
1.27284e-05
-6.01658e-06
1.65237e-06
-5.13429e-06
-9.09576e-07
-3.75587e-06
-1.83629e-06
-2.38488e-06
-1.49016e-06
-7.67076e-07
-1.81288e-06
7.2478e-07
-1.54939e-06
2.18712e-06
-1.82662e-06
3.10591e-06
-1.22479e-06
5.67541e-06
-4.36669e-06
-5.0111e-06
7.48298e-06
9.67643e-06
4.57521e-05
5.80664e-06
7.79386e-06
4.60817e-06
2.1837e-06
3.99699e-06
1.10346e-06
3.60326e-06
7.05687e-07
3.32406e-06
5.01944e-07
3.10364e-06
3.88667e-07
2.93109e-06
3.11063e-07
2.78635e-06
2.50624e-07
2.66978e-06
2.11219e-07
2.5683e-06
1.74245e-07
2.4844e-06
1.54358e-07
2.40998e-06
1.28929e-07
2.34722e-06
1.18621e-07
2.29108e-06
1.00295e-07
2.2427e-06
9.5104e-08
2.19932e-06
8.17632e-08
2.16114e-06
7.90832e-08
2.1269e-06
6.94771e-08
2.09618e-06
6.79328e-08
2.0686e-06
6.11106e-08
2.04351e-06
5.99728e-08
2.02092e-06
5.51302e-08
2.0002e-06
5.40793e-08
1.98147e-06
5.06104e-08
1.96419e-06
4.9552e-08
1.94846e-06
4.69712e-08
1.93386e-06
4.58138e-08
1.92048e-06
4.36547e-08
1.90803e-06
4.22675e-08
1.89658e-06
4.02385e-08
1.88596e-06
3.86916e-08
1.87618e-06
3.6931e-08
1.86707e-06
3.56409e-08
1.85851e-06
3.46237e-08
1.85027e-06
3.41583e-08
1.8421e-06
3.4371e-08
1.83362e-06
3.52361e-08
1.82442e-06
3.71151e-08
1.81396e-06
3.98818e-08
1.80161e-06
4.40906e-08
1.78653e-06
4.96682e-08
1.76775e-06
5.73705e-08
1.7441e-06
6.70658e-08
1.71402e-06
8.00325e-08
1.67596e-06
9.57725e-08
1.62807e-06
1.156e-07
1.56708e-06
1.41374e-07
1.493e-06
1.6819e-07
1.39921e-06
2.07663e-07
1.28928e-06
2.39856e-07
1.13303e-06
3.98707e-07
9.4e-07
4.61559e-07
8.07635e-07
2.49597e-07
6.1037e-07
4.39874e-07
5.80956e-07
6.83554e-08
3.21443e-07
6.59621e-07
7.53607e-07
-7.96871e-07
8.51696e-07
-1.74591e-07
-1.40465e-06
4.28606e-06
-5.88231e-06
9.84403e-06
-5.03561e-06
-1.68092e-07
8.87531e-06
-2.84508e-05
1.80324e-05
-2.01135e-05
1.51185e-05
5.29364e-06
-3.02123e-06
3.78873e-05
-9.23697e-06
1.3658e-05
-6.31695e-06
-5.87858e-06
-4.8966e-06
-2.69999e-06
-3.38366e-06
-1.56387e-06
-1.58103e-10
-4.76861e-06
7.41215e-06
-1.47703e-05
1.58305e-05
-1.90311e-05
2.26998e-05
-1.4904e-05
2.38036e-05
-4.04432e-06
1.30764e-05
1.64291e-05
-3.21372e-06
3.49998e-05
-9.08021e-06
1.87119e-05
-8.47283e-06
1.22076e-06
-7.08572e-06
-1.99674e-06
-5.14846e-06
-3.41339e-06
-3.10538e-06
-2.97842e-06
-5.89612e-07
-3.73154e-06
1.49313e-06
-3.06315e-06
3.65124e-06
-3.67848e-06
4.93509e-06
-2.27231e-06
8.19387e-06
-7.4525e-06
-6.64357e-06
9.94865e-06
1.55933e-05
6.01046e-05
9.97837e-06
1.33855e-05
7.95018e-06
4.19449e-06
6.90045e-06
2.13703e-06
6.22246e-06
1.3691e-06
5.74117e-06
9.74539e-07
5.36178e-06
7.54146e-07
5.06455e-06
6.03544e-07
4.81517e-06
4.87142e-07
4.61401e-06
4.10305e-07
4.43887e-06
3.39321e-07
4.29388e-06
3.00005e-07
4.16518e-06
2.51435e-07
4.05648e-06
2.30616e-07
3.95912e-06
1.95713e-07
3.87511e-06
1.84848e-07
3.79965e-06
1.59459e-07
3.73314e-06
1.53573e-07
3.67336e-06
1.35254e-07
3.61967e-06
1.31697e-07
3.57134e-06
1.18623e-07
3.52731e-06
1.15976e-07
3.48758e-06
1.06626e-07
3.45108e-06
1.04242e-07
3.418e-06
9.74706e-08
3.38744e-06
9.51299e-08
3.35957e-06
9.00239e-08
3.3337e-06
8.75385e-08
3.30993e-06
8.32439e-08
3.28782e-06
8.03852e-08
3.26745e-06
7.63875e-08
3.24853e-06
7.3301e-08
3.23105e-06
6.98588e-08
3.21472e-06
6.72983e-08
3.19938e-06
6.52557e-08
3.1846e-06
6.42302e-08
3.16999e-06
6.44451e-08
3.15495e-06
6.58563e-08
3.13883e-06
6.91135e-08
3.12076e-06
7.40023e-08
3.09972e-06
8.1525e-08
3.07439e-06
9.15681e-08
3.04318e-06
1.05522e-07
3.00423e-06
1.23167e-07
2.95506e-06
1.46827e-07
2.89298e-06
1.75825e-07
2.81525e-06
2.12081e-07
2.71614e-06
2.60066e-07
2.59571e-06
3.09721e-07
2.44358e-06
3.82746e-07
2.26228e-06
4.46614e-07
2.02741e-06
6.62866e-07
1.72986e-06
7.97831e-07
1.49054e-06
5.28636e-07
1.15967e-06
8.51671e-07
1.07626e-06
1.99097e-07
6.38547e-07
1.25608e-06
1.28747e-06
-1.39004e-06
1.09954e-06
2.48417e-07
-2.42262e-06
7.90283e-06
-8.07092e-06
1.57089e-05
-5.10978e-06
-3.07612e-06
1.44612e-05
-4.80065e-05
2.48634e-05
-3.05519e-05
1.38113e-05
1.63055e-05
-7.13346e-06
5.87939e-05
-1.18288e-05
1.84459e-05
-8.04685e-06
-9.47312e-06
-6.01559e-06
-4.3878e-06
-3.06013e-06
-3.86201e-06
2.931e-06
-1.043e-05
1.31119e-05
-2.4782e-05
2.39563e-05
-2.98731e-05
3.22223e-05
-2.31378e-05
2.86457e-05
-4.94222e-07
8.66675e-06
3.64289e-05
-8.52339e-06
5.22289e-05
-1.17983e-05
2.21208e-05
-1.0749e-05
3.9126e-07
-8.78798e-06
-3.57141e-06
-6.336e-06
-5.37458e-06
-3.54184e-06
-4.95659e-06
-5.69864e-08
-6.38466e-06
2.57062e-06
-5.05357e-06
5.38659e-06
-6.14703e-06
7.164e-06
-3.7901e-06
1.10064e-05
-1.10907e-05
-8.08925e-06
1.25929e-05
2.36807e-05
7.45864e-05
1.62294e-05
2.08023e-05
1.30484e-05
7.34913e-06
1.13448e-05
3.816e-06
1.02375e-05
2.45375e-06
9.44952e-06
1.74905e-06
8.82884e-06
1.35298e-06
8.34202e-06
1.08295e-06
7.93325e-06
8.75674e-07
7.60299e-06
7.37361e-07
7.31526e-06
6.11255e-07
7.07675e-06
5.39626e-07
6.86474e-06
4.53765e-07
6.68545e-06
4.15177e-07
6.52457e-06
3.53656e-07
6.38556e-06
3.32938e-07
6.2604e-06
2.88232e-07
6.14996e-06
2.76587e-07
6.05041e-06
2.44276e-07
5.96091e-06
2.36979e-07
5.88008e-06
2.13813e-07
5.80638e-06
2.08317e-07
5.73964e-06
1.91627e-07
5.67826e-06
1.86737e-07
5.62246e-06
1.74515e-07
5.57086e-06
1.69781e-07
5.52367e-06
1.60429e-07
5.47984e-06
1.555e-07
5.43949e-06
1.47573e-07
5.40196e-06
1.42091e-07
5.3673e-06
1.34765e-07
5.33506e-06
1.29019e-07
5.3052e-06
1.22751e-07
5.27726e-06
1.18005e-07
5.25094e-06
1.14175e-07
5.22562e-06
1.12067e-07
5.20068e-06
1.1205e-07
5.17523e-06
1.14044e-07
5.14828e-06
1.19121e-07
5.11853e-06
1.26945e-07
5.08446e-06
1.39176e-07
5.0441e-06
1.55658e-07
4.99506e-06
1.78738e-07
4.93449e-06
2.08093e-07
4.8587e-06
2.47555e-07
4.76336e-06
2.96534e-07
4.64468e-06
3.57171e-07
4.49318e-06
4.39117e-07
4.30892e-06
5.23685e-07
4.07699e-06
6.47083e-07
3.79519e-06
7.64519e-07
3.44968e-06
1.05023e-06
3.00964e-06
1.29436e-06
2.60924e-06
9.87504e-07
2.09681e-06
1.48786e-06
1.90607e-06
4.61835e-07
1.21744e-06
2.19714e-06
2.11545e-06
-2.19736e-06
1.29705e-06
1.48711e-06
-3.52892e-06
1.29039e-05
-9.42281e-06
2.19019e-05
-3.10689e-06
-9.31701e-06
2.21893e-05
-7.32889e-05
3.06108e-05
-3.90102e-05
9.60021e-06
3.72792e-05
-1.11259e-05
7.94886e-05
-1.34642e-05
2.09029e-05
-9.06688e-06
-1.35753e-05
-5.84692e-06
-7.01876e-06
-8.4723e-07
-7.94599e-06
8.32934e-06
-1.93106e-05
2.14202e-05
-3.77491e-05
3.44853e-05
-4.29386e-05
4.18133e-05
-3.04271e-05
2.89333e-05
1.236e-05
1.50174e-06
6.38788e-05
-1.30016e-05
6.67779e-05
-1.389e-05
2.31802e-05
-1.2832e-05
-3.796e-07
-1.0193e-05
-5.68124e-06
-7.22311e-06
-7.62818e-06
-3.56113e-06
-7.3987e-06
9.05439e-07
-9.92511e-06
4.00401e-06
-7.47073e-06
7.42387e-06
-9.18478e-06
9.74337e-06
-5.82666e-06
1.41526e-05
-1.52799e-05
-9.3432e-06
1.5569e-05
3.43255e-05
8.80653e-05
2.52775e-05
2.9803e-05
2.06577e-05
1.19323e-05
1.80307e-05
6.40838e-06
1.62975e-05
4.15449e-06
1.50565e-05
2.97088e-06
1.40785e-05
2.29931e-06
1.33092e-05
1.84151e-06
1.26626e-05
1.49286e-06
1.21386e-05
1.25681e-06
1.16818e-05
1.04519e-06
1.13022e-05
9.20951e-07
1.09644e-05
7.77685e-07
1.06781e-05
7.09257e-07
1.04206e-05
6.06987e-07
1.01979e-05
5.68974e-07
9.99673e-06
4.94771e-07
9.81906e-06
4.72503e-07
9.65833e-06
4.18781e-07
9.51373e-06
4.04305e-07
9.38262e-06
3.65586e-07
9.26301e-06
3.54569e-07
9.15424e-06
3.26435e-07
9.05414e-06
3.16777e-07
8.96276e-06
2.95909e-07
8.8782e-06
2.86733e-07
8.8006e-06
2.7051e-07
8.72852e-06
2.61179e-07
8.662e-06
2.47321e-07
8.60011e-06
2.37306e-07
8.54283e-06
2.24588e-07
8.4895e-06
2.14412e-07
8.43995e-06
2.03593e-07
8.39353e-06
1.95227e-07
8.34972e-06
1.88405e-07
8.30763e-06
1.84321e-07
8.26634e-06
1.83542e-07
8.2246e-06
1.8594e-07
8.18099e-06
1.93156e-07
8.13366e-06
2.0472e-07
8.08046e-06
2.23189e-07
8.01858e-06
2.48395e-07
7.94455e-06
2.84029e-07
7.8543e-06
3.29718e-07
7.74257e-06
3.91266e-07
7.60265e-06
4.68873e-07
7.42967e-06
5.63799e-07
7.20866e-06
6.95156e-07
6.93958e-06
8.30508e-07
6.602e-06
1.02585e-06
6.18362e-06
1.22888e-06
5.68526e-06
1.60212e-06
5.05467e-06
1.9984e-06
4.41294e-06
1.70576e-06
3.66622e-06
2.40223e-06
3.25161e-06
9.74227e-07
2.25124e-06
3.55455e-06
3.37846e-06
-3.1899e-06
1.4722e-06
4.19586e-06
-4.38947e-06
1.9087e-05
-9.24386e-06
2.70687e-05
1.38743e-06
-1.98389e-05
3.04096e-05
-0.000102309
3.44137e-05
-4.3062e-05
4.17219e-06
6.74729e-05
-1.43618e-05
9.79904e-05
-1.39928e-05
2.07098e-05
-8.97316e-06
-1.80568e-05
-3.34472e-06
-1.17657e-05
3.72014e-06
-1.41093e-05
1.53366e-05
-3.07167e-05
2.99517e-05
-5.22553e-05
4.50417e-05
-5.80319e-05
4.8252e-05
-3.3585e-05
2.4143e-05
3.64422e-05
-6.08639e-06
9.41277e-05
-1.60082e-05
7.67604e-05
-1.58232e-05
2.32256e-05
-1.47062e-05
-1.10926e-06
-1.13045e-05
-8.39943e-06
-7.63251e-06
-1.04295e-05
-2.72927e-06
-1.10332e-05
2.53094e-06
-1.44292e-05
5.84188e-06
-1.01451e-05
9.82442e-06
-1.27892e-05
1.27071e-05
-8.40563e-06
1.75777e-05
-1.99291e-05
-1.05641e-05
1.89876e-05
4.77106e-05
9.91116e-05
3.78121e-05
3.96407e-05
3.16867e-05
1.80106e-05
2.78778e-05
1.01727e-05
2.52857e-05
6.70412e-06
2.34036e-05
4.82781e-06
2.19152e-05
3.74575e-06
2.07375e-05
3.00523e-06
1.97457e-05
2.44557e-06
1.89375e-05
2.05915e-06
1.82323e-05
1.72005e-06
1.76438e-05
1.51188e-06
1.71195e-05
1.28376e-06
1.66736e-05
1.1656e-06
1.62719e-05
1.00352e-06
1.59235e-05
9.35051e-07
1.56079e-05
8.177e-07
1.53288e-05
7.757e-07
1.50753e-05
6.90582e-07
1.48471e-05
6.62288e-07
1.46392e-05
6.00562e-07
1.44496e-05
5.78903e-07
1.42762e-05
5.33592e-07
1.41167e-05
5.14974e-07
1.39703e-05
4.80874e-07
1.38349e-05
4.63631e-07
1.37101e-05
4.36686e-07
1.35942e-05
4.19667e-07
1.3487e-05
3.96483e-07
1.33873e-05
3.78904e-07
1.32948e-05
3.57781e-07
1.32086e-05
3.40485e-07
1.31284e-05
3.22603e-07
1.30531e-05
3.08462e-07
1.29821e-05
2.96823e-07
1.29139e-05
2.89324e-07
1.28475e-05
2.8679e-07
1.27809e-05
2.89041e-07
1.27123e-05
2.98425e-07
1.26392e-05
3.14374e-07
1.25586e-05
3.40581e-07
1.24667e-05
3.76977e-07
1.23587e-05
4.29009e-07
1.2229e-05
4.96434e-07
1.20703e-05
5.87434e-07
1.18728e-05
7.04265e-07
1.16304e-05
8.4538e-07
1.13208e-05
1.0455e-06
1.09434e-05
1.25158e-06
1.04707e-05
1.54611e-06
9.8754e-06
1.87727e-06
9.17175e-06
2.36758e-06
8.29142e-06
2.96411e-06
7.29986e-06
2.78633e-06
6.25844e-06
3.64309e-06
5.39857e-06
1.9513e-06
4.05021e-06
5.34191e-06
5.27664e-06
-4.23932e-06
1.7519e-06
9.01601e-06
-4.63804e-06
2.58348e-05
-7.26751e-06
3.01168e-05
6.92935e-06
-3.38314e-05
3.62571e-05
-0.000131648
3.5792e-05
-4.26783e-05
-1.59882e-06
0.000104811
-1.62451e-05
0.000112599
-1.36405e-05
1.83861e-05
-6.86973e-06
-2.41874e-05
1.81379e-06
-1.96208e-05
1.01553e-05
-2.17988e-05
2.25584e-05
-4.29416e-05
3.85183e-05
-6.81067e-05
5.46771e-05
-7.4195e-05
5.03826e-05
-2.92304e-05
1.57851e-05
7.10121e-05
-1.24076e-05
0.000122343
-1.78949e-05
8.23321e-05
-1.78119e-05
2.34491e-05
-1.6301e-05
-2.13075e-06
-1.17808e-05
-1.2173e-05
-6.57145e-06
-1.47758e-05
-8.24389e-07
-1.57796e-05
4.59869e-06
-1.92275e-05
8.21335e-06
-1.32007e-05
1.2704e-05
-1.69228e-05
1.58636e-05
-1.12505e-05
2.09599e-05
-2.47848e-05
-1.21665e-05
2.27849e-05
6.36398e-05
0.000106343
5.42147e-05
4.89908e-05
4.70021e-05
2.51661e-05
4.1942e-05
1.51792e-05
3.83013e-05
1.02932e-05
3.55835e-05
7.51526e-06
3.34108e-05
5.86738e-06
3.1672e-05
4.727e-06
3.02015e-05
3.8686e-06
2.89922e-05
3.26138e-06
2.79349e-05
2.74046e-06
2.70466e-05
2.4033e-06
2.62538e-05
2.05457e-06
2.55761e-05
1.85616e-06
2.4964e-05
1.60954e-06
2.44314e-05
1.4892e-06
2.39472e-05
1.311e-06
2.35183e-05
1.23381e-06
2.31268e-05
1.10426e-06
2.27743e-05
1.05065e-06
2.24514e-05
9.56003e-07
2.21569e-05
9.14858e-07
2.18862e-05
8.44557e-07
2.16372e-05
8.09885e-07
2.14076e-05
7.56135e-07
2.11952e-05
7.24867e-07
2.09987e-05
6.81687e-07
2.08164e-05
6.51768e-07
2.06473e-05
6.14364e-07
2.04902e-05
5.84584e-07
2.03442e-05
5.50726e-07
2.02083e-05
5.22308e-07
2.00816e-05
4.93752e-07
1.99627e-05
4.70643e-07
1.98506e-05
4.51472e-07
1.97434e-05
4.38313e-07
1.96394e-05
4.32314e-07
1.95362e-05
4.33252e-07
1.94315e-05
4.4429e-07
1.93218e-05
4.64865e-07
1.92033e-05
5.00024e-07
1.90709e-05
5.50012e-07
1.89184e-05
6.2244e-07
1.87379e-05
7.17555e-07
1.85202e-05
8.4625e-07
1.82513e-05
1.01454e-06
1.79236e-05
1.21574e-06
1.75055e-05
1.50763e-06
1.69963e-05
1.80797e-06
1.6357e-05
2.23649e-06
1.55459e-05
2.74513e-06
1.45788e-05
3.40047e-06
1.33807e-05
4.25311e-06
1.19195e-05
4.34137e-06
1.0503e-05
5.2715e-06
8.8705e-06
3.70857e-06
7.11964e-06
7.5784e-06
8.15183e-06
-5.07483e-06
2.82453e-06
1.55273e-05
-4.44014e-06
3.34491e-05
-4.60113e-06
3.1252e-05
1.42508e-05
-5.24531e-05
4.16461e-05
-0.000159063
3.59608e-05
-3.70866e-05
-6.53074e-06
0.000147247
-1.59987e-05
0.000122018
-1.12243e-05
1.40017e-05
-4.73713e-07
-3.44317e-05
8.96906e-06
-2.84932e-05
1.7887e-05
-3.02335e-05
3.03911e-05
-5.5274e-05
4.75006e-05
-8.51002e-05
6.27252e-05
-8.94236e-05
4.73439e-05
-1.37922e-05
5.66876e-06
0.000112658
-1.68478e-05
0.000144886
-1.94374e-05
8.50394e-05
-2.00546e-05
2.44561e-05
-1.76842e-05
-3.94085e-06
-1.20444e-05
-1.70605e-05
-5.7983e-06
-2.01884e-05
4.72771e-07
-2.11088e-05
6.09833e-06
-2.42221e-05
1.02753e-05
-1.68077e-05
1.54176e-05
-2.16915e-05
1.89946e-05
-1.44959e-05
2.41033e-05
-2.96228e-05
-1.46475e-05
2.685e-05
8.14866e-05
0.000109083
7.41882e-05
5.61978e-05
6.69891e-05
3.22978e-05
6.10942e-05
2.10119e-05
5.6463e-05
1.48651e-05
5.28277e-05
1.11157e-05
4.98464e-05
8.79007e-06
4.74119e-05
7.14217e-06
4.53306e-05
5.89557e-06
4.35956e-05
4.98849e-06
4.20701e-05
4.224e-06
4.07758e-05
3.7014e-06
3.9616e-05
3.18947e-06
3.86172e-05
2.86966e-06
3.77118e-05
2.50829e-06
3.69199e-05
2.3056e-06
3.61968e-05
2.04455e-06
3.55543e-05
1.90931e-06
3.49648e-05
1.71877e-06
3.44333e-05
1.62246e-06
3.39438e-05
1.482e-06
3.34971e-05
1.40786e-06
3.30845e-05
1.30211e-06
3.27048e-05
1.24056e-06
3.23532e-05
1.15832e-06
3.2028e-05
1.104e-06
3.17264e-05
1.03682e-06
3.14466e-05
9.86191e-07
3.11869e-05
9.2758e-07
3.09457e-05
8.78739e-07
3.07216e-05
8.2594e-07
3.05132e-05
7.80535e-07
3.0319e-05
7.36093e-07
3.01371e-05
6.99317e-07
2.99658e-05
6.68581e-07
2.98027e-05
6.4631e-07
2.96454e-05
6.34046e-07
2.9491e-05
6.31515e-07
2.93363e-05
6.42789e-07
2.91771e-05
6.67466e-07
2.90083e-05
7.12138e-07
2.88236e-05
7.77715e-07
2.86147e-05
8.7433e-07
2.83717e-05
1.00327e-06
2.80824e-05
1.17855e-06
2.77285e-05
1.41155e-06
2.72998e-05
1.68866e-06
2.67546e-05
2.0985e-06
2.60927e-05
2.51839e-06
2.52553e-05
3.12629e-06
2.41972e-05
3.86097e-06
2.29134e-05
4.75073e-06
2.13254e-05
5.93208e-06
1.93007e-05
6.45883e-06
1.74025e-05
7.37841e-06
1.46464e-05
6.58623e-06
1.23524e-05
1.0364e-05
1.19843e-05
-4.50403e-06
5.27822e-06
2.29128e-05
-6.73275e-07
3.97792e-05
5.98674e-07
3.14515e-05
2.2767e-05
-7.44091e-05
4.85309e-05
-0.000184849
3.26969e-05
-2.13325e-05
-9.92912e-06
0.000189815
-1.39927e-05
0.00012601
-6.12531e-06
6.49791e-06
7.42046e-06
-4.75715e-05
1.7783e-05
-3.8403e-05
2.69043e-05
-3.89074e-05
3.95209e-05
-6.77137e-05
5.67001e-05
-0.000102149
6.71784e-05
-9.99042e-05
3.99516e-05
1.34948e-05
-3.52267e-06
0.0001561
-1.94262e-05
0.000160822
-2.11931e-05
8.69691e-05
-2.25197e-05
2.62654e-05
-1.90326e-05
-6.79404e-06
-1.22648e-05
-2.30446e-05
-5.01585e-06
-2.65829e-05
1.87584e-06
-2.70399e-05
7.80729e-06
-2.948e-05
1.26592e-05
-2.10513e-05
1.82107e-05
-2.6836e-05
2.22442e-05
-1.81635e-05
2.71629e-05
-3.4235e-05
-1.8379e-05
3.1211e-05
0.00010057
0.000108101
9.66307e-05
6.0025e-05
9.10104e-05
3.78383e-05
8.53839e-05
2.65663e-05
8.03649e-05
1.98168e-05
7.60895e-05
1.53522e-05
7.24013e-05
1.24129e-05
6.92793e-05
1.02429e-05
6.65471e-05
8.56791e-06
6.42199e-05
7.30697e-06
6.21472e-05
6.25092e-06
6.03624e-05
5.49032e-06
5.87498e-05
4.7751e-06
5.73459e-05
4.28963e-06
5.60649e-05
3.78214e-06
5.49357e-05
3.46137e-06
5.38986e-05
3.09307e-06
5.29721e-05
2.87143e-06
5.21173e-05
2.6006e-06
5.13438e-05
2.43918e-06
5.06278e-05
2.23718e-06
4.99731e-05
2.11212e-06
4.93655e-05
1.95764e-06
4.88058e-05
1.85453e-06
4.82857e-05
1.73218e-06
4.78045e-05
1.64239e-06
4.73572e-05
1.54071e-06
4.69426e-05
1.45851e-06
4.65574e-05
1.36909e-06
4.62003e-05
1.2916e-06
4.58686e-05
1.21124e-06
4.55607e-05
1.14062e-06
4.52741e-05
1.07298e-06
4.50063e-05
1.01587e-06
4.47548e-05
9.6779e-07
4.45163e-05
9.31347e-07
4.42879e-05
9.08543e-07
4.40658e-05
8.99038e-07
4.38459e-05
9.07876e-07
4.3623e-05
9.35027e-07
4.3391e-05
9.88791e-07
4.31415e-05
1.07124e-06
4.28645e-05
1.19533e-06
4.25473e-05
1.36404e-06
4.21744e-05
1.59524e-06
4.17232e-05
1.90653e-06
4.11798e-05
2.27683e-06
4.04905e-05
2.83372e-06
3.96605e-05
3.39703e-06
3.8597e-05
4.24208e-06
3.72703e-05
5.24479e-06
3.56356e-05
6.45055e-06
3.35902e-05
8.06588e-06
3.09726e-05
9.16526e-06
2.84731e-05
1.00754e-05
2.44106e-05
1.07601e-05
2.12975e-05
1.39243e-05
1.79299e-05
-9.54193e-07
9.48563e-06
3.18575e-05
3.42926e-06
4.61857e-05
3.76989e-06
3.21886e-05
3.38709e-05
-0.000104337
5.37347e-05
-0.000204737
2.8495e-05
3.8297e-06
-9.21611e-06
0.000227465
-9.55647e-06
0.000126238
2.9783e-06
-5.75357e-06
1.75204e-05
-6.17664e-05
2.89273e-05
-4.93856e-05
3.82762e-05
-4.78092e-05
5.03341e-05
-7.95811e-05
6.69008e-05
-0.000118565
6.96281e-05
-0.000102631
3.06833e-05
5.25095e-05
-1.02831e-05
0.00019703
-2.04884e-05
0.00017107
-2.2909e-05
8.96139e-05
-2.4609e-05
2.85536e-05
-1.99734e-05
-1.06744e-05
-1.18777e-05
-3.02843e-05
-3.46145e-06
-3.40867e-05
4.11772e-06
-3.36272e-05
1.0486e-05
-3.51215e-05
1.61398e-05
-2.60537e-05
2.17671e-05
-3.20147e-05
2.62373e-05
-2.22266e-05
3.07062e-05
-3.83623e-05
-2.33357e-05
3.60243e-05
0.000121134
0.000105644
0.000120385
6.06356e-05
0.000117469
4.06572e-05
0.000113517
3.0433e-05
0.000109297
2.39596e-05
0.000105237
1.93685e-05
0.000101416
1.61606e-05
9.79777e-05
1.36574e-05
9.48281e-05
1.16519e-05
9.2049e-05
1.00766e-05
8.95069e-05
8.74344e-06
8.72672e-05
7.73445e-06
8.52086e-05
6.80472e-06
8.33871e-05
6.12834e-06
8.17048e-05
5.45682e-06
8.02041e-05
4.99025e-06
7.8813e-05
4.49631e-06
7.75594e-05
4.16263e-06
7.6394e-05
3.79444e-06
7.53331e-05
3.54558e-06
7.43449e-05
3.26651e-06
7.34374e-05
3.07141e-06
7.25912e-05
2.85398e-06
7.18095e-05
2.6928e-06
7.10806e-05
2.5171e-06
7.04051e-05
2.37726e-06
6.97759e-05
2.22863e-06
6.91924e-05
2.10174e-06
6.865e-05
1.96979e-06
6.81472e-05
1.85182e-06
6.76805e-05
1.73323e-06
6.72476e-05
1.62713e-06
6.6845e-05
1.52716e-06
6.64696e-05
1.44134e-06
6.61176e-05
1.36855e-06
6.57852e-05
1.31142e-06
6.54683e-05
1.27245e-06
6.51624e-05
1.25122e-06
6.48625e-05
1.25378e-06
6.45621e-05
1.28073e-06
6.42539e-05
1.34222e-06
6.39276e-05
1.44208e-06
6.35711e-05
1.59636e-06
6.31687e-05
1.81035e-06
6.27012e-05
2.10676e-06
6.21419e-05
2.50981e-06
6.14731e-05
2.99039e-06
6.06273e-05
3.72527e-06
5.96207e-05
4.45199e-06
5.83155e-05
5.59875e-06
5.671e-05
6.90632e-06
5.47236e-05
8.5002e-06
5.21754e-05
1.06992e-05
4.90239e-05
1.24004e-05
4.58105e-05
1.34668e-05
4.05373e-05
1.61291e-05
3.65122e-05
1.83109e-05
2.88071e-05
6.89043e-06
1.88971e-05
4.21887e-05
9.27947e-06
5.60844e-05
9.64907e-06
3.24155e-05
4.93213e-05
-0.000143871
6.08172e-05
-0.000216261
2.71344e-05
3.74319e-05
-4.62946e-06
0.000259163
-2.54842e-06
0.000123994
1.5379e-05
-2.34284e-05
3.12624e-05
-7.73297e-05
4.37263e-05
-6.14274e-05
5.28478e-05
-5.64673e-05
6.40602e-05
-9.05823e-05
7.72937e-05
-0.000131615
6.9536e-05
-9.48756e-05
2.17479e-05
0.000100368
-1.36545e-05
0.000232391
-2.00406e-05
0.000177511
-2.37985e-05
9.36855e-05
-2.57521e-05
3.1257e-05
-1.97696e-05
-1.56531e-05
-1.01817e-05
-3.8881e-05
-3.59063e-07
-4.29146e-05
8.0988e-06
-4.10671e-05
1.50287e-05
-4.12751e-05
2.13881e-05
-3.17231e-05
2.68983e-05
-3.70321e-05
3.17326e-05
-2.66133e-05
3.53178e-05
-4.15745e-05
-2.90773e-05
4.1447e-05
0.000145187
0.000104015
0.000145914
5.97378e-05
0.000145363
4.10899e-05
0.000143695
3.19974e-05
0.000141303
2.62597e-05
0.000138555
2.20656e-05
0.00013559
1.90414e-05
0.000132662
1.6559e-05
0.000129756
1.44844e-05
0.000127044
1.27778e-05
0.000124436
1.12973e-05
0.000122052
1.01224e-05
0.000119788
9.03784e-06
0.000117733
8.20181e-06
0.00011579
7.39094e-06
0.000114026
6.78494e-06
0.000112362
6.17264e-06
0.000110843
5.7219e-06
0.000109412
5.25496e-06
0.000108097
4.90892e-06