/*--------------------------------*- C++ -*----------------------------------*\
| =========                 |                                                 |
| \\      /  F ield         | OpenFOAM: The Open Source CFD Toolbox           |
|  \\    /   O peration     | Version:  2306                                  |
|   \\  /    A nd           | Website:  www.openfoam.com                      |
|    \\/     M anipulation  |                                                 |
\*---------------------------------------------------------------------------*/
FoamFile
{
    version     2.0;
    format      ascii;
    arch        "LSB;label=32;scalar=64";
    class       volSymmTensorField;
    location    "1900";
    object      turbulenceProperties:devReff;
}
// * * * * * * * * * * * * * * * * * * * * * * * * * * * * * * * * * * * * * //

dimensions      [0 2 -2 0 0 0 0];

internalField   nonuniform List<symmTensor> 
20540
(
(-0.0012569 -0.0192546 -0 0.00125523 -0 1.67338e-06)
(0.011823 0.0351801 -0 -0.0117958 -0 -2.72486e-05)
(-0.00124493 -0.0616577 -0 0.00124486 -0 7.74688e-08)
(0.0102082 0.109409 -0 -0.0102217 -0 1.3481e-05)
(-0.00121139 -0.111216 -0 0.00121209 -0 -7.00017e-07)
(0.00845674 0.190921 -0 -0.00846235 -0 5.61289e-06)
(-0.00114669 -0.166154 -0 0.00114751 -0 -8.29137e-07)
(0.00665564 0.275453 -0 -0.00665249 -0 -3.15483e-06)
(-0.00104152 -0.222701 -0 0.00104298 -0 -1.45951e-06)
(0.0048678 0.353926 -0 -0.00486228 -0 -5.5154e-06)
(-0.000886551 -0.273847 -0 0.000888683 -0 -2.13225e-06)
(0.00316307 0.414258 -0 -0.00315617 -0 -6.89823e-06)
(-0.000677906 -0.309416 -0 0.000679983 -0 -2.0774e-06)
(0.00163705 0.441958 -0 -0.00162825 -0 -8.79406e-06)
(-0.000424085 -0.318037 -0 0.000424736 -0 -6.50346e-07)
(0.000406114 0.422718 -0 -0.000396192 -0 -9.92164e-06)
(-0.000154596 -0.291744 -0 0.000152852 -0 1.74467e-06)
(-0.000412088 0.348615 -0 0.000420271 -0 -8.1832e-06)
(7.61199e-05 -0.231824 -0 -7.92967e-05 -0 3.17678e-06)
(-0.000743545 0.228398 -0 0.000746867 -0 -3.32236e-06)
(0.000204135 -0.151964 -0 -0.000206107 -0 1.97254e-06)
(-0.000630484 0.0955468 -0 0.000630693 -0 -2.0889e-07)
(0.00019985 -0.0748624 -0 -0.000199128 -0 -7.22099e-07)
(-0.000282628 -0.00176527 -0 0.000287994 -0 -5.36649e-06)
(0.000109952 -0.0219538 -0 -0.000108064 -0 -1.88803e-06)
(3.92264e-06 -0.0353066 -0 1.10277e-05 -0 -1.49504e-05)
(2.85285e-05 -0.000178924 -0 -2.76006e-05 -0 -9.27856e-07)
(7.57387e-05 -0.0231194 -0 -5.93321e-05 -0 -1.64066e-05)
(2.26653e-06 0.0019523 -0 -2.32823e-06 -0 6.16996e-08)
(2.55716e-05 -0.00517203 -0 -1.46924e-05 -0 -1.08792e-05)
(5.24639e-06 3.41565e-05 -0 -5.61042e-06 -0 3.64033e-07)
(-1.19548e-05 0.000717398 -0 2.07579e-05 -0 -8.80315e-06)
(8.12929e-06 -0.000286024 -0 -8.63316e-06 -0 5.03868e-07)
(-1.78784e-05 0.000392386 -0 2.83746e-05 -0 -1.04963e-05)
(8.01113e-06 -5.14324e-05 -0 -8.56627e-06 -0 5.55139e-07)
(-1.706e-05 -4.283e-05 -0 2.87077e-05 -0 -1.16478e-05)
(7.71541e-06 6.05598e-06 -0 -8.24637e-06 -0 5.30963e-07)
(-1.669e-05 -5.32459e-05 -0 2.8396e-05 -0 -1.1706e-05)
(7.57239e-06 2.30048e-06 -0 -8.11576e-06 -0 5.43372e-07)
(-1.6407e-05 -3.8121e-05 -0 2.79926e-05 -0 -1.15855e-05)
(7.44385e-06 9.69802e-08 -0 -8.02213e-06 -0 5.78284e-07)
(-1.61439e-05 -3.47647e-05 -0 2.76734e-05 -0 -1.15295e-05)
(7.26521e-06 -9.87206e-07 -0 -7.84593e-06 -0 5.80717e-07)
(-1.58371e-05 -3.2393e-05 -0 2.72863e-05 -0 -1.14492e-05)
(7.0369e-06 -1.70186e-06 -0 -7.59114e-06 -0 5.54243e-07)
(-1.54528e-05 -3.02311e-05 -0 2.67606e-05 -0 -1.13078e-05)
(6.7674e-06 -2.09361e-06 -0 -7.27841e-06 -0 5.11015e-07)
(-1.49994e-05 -2.81482e-05 -0 2.61137e-05 -0 -1.11143e-05)
(6.45481e-06 -2.25588e-06 -0 -6.90611e-06 -0 4.51305e-07)
(-1.44885e-05 -2.5972e-05 -0 2.53674e-05 -0 -1.08789e-05)
(6.13634e-06 -2.25011e-06 -0 -6.54874e-06 -0 4.12401e-07)
(-1.3937e-05 -2.35768e-05 -0 2.4553e-05 -0 -1.06161e-05)
(5.86488e-06 -2.11254e-06 -0 -6.30891e-06 -0 4.44029e-07)
(-1.32466e-05 -2.08542e-05 -0 2.34685e-05 -0 -1.02219e-05)
(5.51514e-06 -1.87065e-06 -0 -5.92768e-06 -0 4.12547e-07)
(-1.21007e-05 -1.77083e-05 -0 2.14711e-05 -0 -9.37041e-06)
(4.87714e-06 -1.58666e-06 -0 -4.96912e-06 -0 9.19817e-08)
(-1.05384e-05 -1.40916e-05 -0 1.86251e-05 -0 -8.08666e-06)
(4.36582e-06 -1.31487e-06 -0 -4.23824e-06 -0 -1.27582e-07)
(-9.62601e-06 -9.97996e-06 -0 1.70425e-05 -0 -7.41646e-06)
(4.31477e-06 -9.92466e-07 -0 -4.33828e-06 -0 2.3513e-08)
(-9.88156e-06 -5.67581e-06 -0 1.77159e-05 -0 -7.83433e-06)
(4.31491e-06 -6.04416e-07 -0 -4.4297e-06 -0 1.14788e-07)
(-1.0336e-05 -1.47011e-06 -0 1.86906e-05 -0 -8.35459e-06)
(4.31432e-06 -2.3437e-07 -0 -4.41532e-06 -0 1.00998e-07)
(-1.03489e-05 2.7294e-06 -0 1.86997e-05 -0 -8.35083e-06)
(4.28736e-06 1.40167e-07 -0 -4.2416e-06 -0 -4.57556e-08)
(-1.00098e-05 6.91075e-06 -0 1.79135e-05 -0 -7.90364e-06)
(4.39469e-06 4.94526e-07 -0 -4.23129e-06 -0 -1.63395e-07)
(-1.01241e-05 1.10642e-05 -0 1.79492e-05 -0 -7.82507e-06)
(4.95576e-06 8.14823e-07 -0 -5.05009e-06 -0 9.43305e-08)
(-1.14643e-05 1.50063e-05 -0 2.03663e-05 -0 -8.90204e-06)
(5.48528e-06 1.14155e-06 -0 -5.78411e-06 -0 2.98827e-07)
(-1.32886e-05 1.84558e-05 -0 2.37195e-05 -0 -1.0431e-05)
(5.80103e-06 1.42937e-06 -0 -6.09305e-06 -0 2.92027e-07)
(-1.48542e-05 2.14217e-05 -0 2.65428e-05 -0 -1.16885e-05)
(6.12038e-06 1.63826e-06 -0 -6.42581e-06 -0 3.05434e-07)
(-1.61915e-05 2.39895e-05 -0 2.89089e-05 -0 -1.27174e-05)
(6.42547e-06 1.73505e-06 -0 -6.75398e-06 -0 3.28506e-07)
(-1.73358e-05 2.62465e-05 -0 3.08974e-05 -0 -1.35616e-05)
(6.7053e-06 1.67903e-06 -0 -7.05839e-06 -0 3.53089e-07)
(-1.83071e-05 2.82841e-05 -0 3.25526e-05 -0 -1.42455e-05)
(6.95036e-06 1.41378e-06 -0 -7.32001e-06 -0 3.69643e-07)
(-1.91184e-05 3.02087e-05 -0 3.39036e-05 -0 -1.47851e-05)
(7.16272e-06 8.61295e-07 -0 -7.54105e-06 -0 3.78326e-07)
(-1.97934e-05 3.21535e-05 -0 3.49987e-05 -0 -1.52053e-05)
(7.34354e-06 -5.54979e-08 -0 -7.72073e-06 -0 3.77197e-07)
(-2.03496e-05 3.42963e-05 -0 3.58747e-05 -0 -1.5525e-05)
(7.47392e-06 -1.31925e-06 -0 -7.81727e-06 -0 3.43346e-07)
(-2.07912e-05 3.65198e-05 -0 3.65387e-05 -0 -1.57475e-05)
(7.56833e-06 -4.97261e-06 -0 -7.8598e-06 -0 2.91463e-07)
(-2.11627e-05 4.3461e-05 -0 3.70921e-05 -0 -1.59293e-05)
(7.73456e-06 6.32784e-06 -0 -8.01169e-06 -0 2.7713e-07)
(-2.15141e-05 6.70812e-05 -0 3.76004e-05 -0 -1.60863e-05)
(8.08533e-06 0.00016546 -0 -8.34015e-06 -0 2.54814e-07)
(-2.22531e-05 -9.44389e-05 -0 3.78997e-05 -0 -1.56466e-05)
(7.1447e-06 0.000326617 -0 -7.30004e-06 -0 1.55335e-07)
(-2.19918e-05 -0.000827907 -0 3.60028e-05 -0 -1.4011e-05)
(2.41416e-06 -0.000813344 -0 -2.41046e-06 -0 -3.69262e-09)
(-3.93757e-06 0.00056362 -0 1.75103e-05 -0 -1.35727e-05)
(7.41344e-06 -0.00240776 -0 -6.83907e-06 -0 -5.74368e-07)
(4.91311e-05 0.0119998 -0 -3.1332e-05 -0 -1.77992e-05)
(5.65444e-05 0.00560564 -0 -5.48239e-05 -0 -1.7205e-06)
(6.79707e-05 0.031638 -0 -4.65874e-05 -0 -2.13833e-05)
(0.000149608 0.0383892 -0 -0.00014767 -0 -1.9386e-06)
(-8.78287e-05 0.0306086 -0 0.000103911 -0 -1.60821e-05)
(0.000215942 0.100369 -0 -0.000215824 -0 -1.17846e-07)
(-0.000419855 -0.0256155 -0 0.000427594 -0 -7.73933e-06)
(0.000176996 0.178909 -0 -0.000179032 -0 2.03662e-06)
(-0.000711883 -0.137222 -0 0.000717892 -0 -6.00905e-06)
(1.6249e-05 0.252629 -0 -1.85422e-05 -0 2.29322e-06)
(-0.000701828 -0.267454 -0 0.000711743 -0 -9.91588e-06)
(-0.000223957 0.302618 -0 0.00022335 -0 6.06802e-07)
(-0.000247553 -0.373829 -0 0.000260979 -0 -1.34257e-05)
(-0.000485017 0.319524 -0 0.000486343 -0 -1.32541e-06)
(0.00065196 -0.432423 -0 -0.000638071 -0 -1.38891e-05)
(-0.000722951 0.304712 -0 0.000725174 -0 -2.2226e-06)
(0.00191456 -0.440195 -0 -0.00190232 -0 -1.22448e-05)
(-0.000915775 0.266583 -0 0.000917828 -0 -2.05362e-06)
(0.00343181 -0.406378 -0 -0.00342158 -0 -1.0225e-05)
(-0.00105835 0.215554 -0 0.00105976 -0 -1.4109e-06)
(0.00510079 -0.344315 -0 -0.00509192 -0 -8.8695e-06)
(-0.00115521 0.160525 -0 0.00115611 -0 -9.08413e-07)
(0.00683768 -0.266918 -0 -0.00683067 -0 -7.00753e-06)
(-0.00121507 0.107512 -0 0.00121594 -0 -8.73901e-07)
(0.00858215 -0.184821 -0 -0.00858323 -0 1.088e-06)
(-0.00124618 0.059715 -0 0.00124625 -0 -6.96607e-08)
(0.0102807 -0.106032 -0 -0.0102917 -0 1.10179e-05)
(-0.00125731 0.0186804 -0 0.00125579 -0 1.51994e-06)
(0.0118487 -0.0341539 -0 -0.0118221 -0 -2.66482e-05)
(0.0159029 -3.38031 -0 -0.0158947 -0 -8.16585e-06)
(0.000649759 -1.44212 -0 -0.000673093 -0 2.33338e-05)
(0.000141687 -1.08452 -0 -0.000146308 -0 4.62153e-06)
(7.50476e-05 -0.917604 -0 -7.69386e-05 -0 1.89104e-06)
(4.9462e-05 -0.816291 -0 -5.06226e-05 -0 1.1606e-06)
(3.68765e-05 -0.747098 -0 -3.76904e-05 -0 8.13945e-07)
(2.95176e-05 -0.693892 -0 -2.99704e-05 -0 4.52817e-07)
(2.47583e-05 -0.652126 -0 -2.53276e-05 -0 5.69232e-07)
(2.05581e-05 -0.617802 -0 -2.06661e-05 -0 1.0807e-07)
(1.80381e-05 -0.590106 -0 -1.85073e-05 -0 4.69224e-07)
(1.53518e-05 -0.566461 -0 -1.53693e-05 -0 1.74738e-08)
(1.40039e-05 -0.546844 -0 -1.45169e-05 -0 5.13008e-07)
(1.20902e-05 -0.529705 -0 -1.21944e-05 -0 1.04289e-07)
(1.13087e-05 -0.515246 -0 -1.19463e-05 -0 6.37533e-07)
(9.92063e-06 -0.502478 -0 -1.02212e-05 -0 3.00558e-07)
(9.46298e-06 -0.491476 -0 -1.0264e-05 -0 8.0103e-07)
(8.46605e-06 -0.481743 -0 -9.02499e-06 -0 5.58944e-07)
(8.18564e-06 -0.473153 -0 -9.17259e-06 -0 9.86944e-07)
(7.49211e-06 -0.465585 -0 -8.33748e-06 -0 8.45369e-07)
(7.31724e-06 -0.458734 -0 -8.50692e-06 -0 1.18967e-06)
(6.85329e-06 -0.452729 -0 -7.98923e-06 -0 1.13593e-06)
(6.74024e-06 -0.44717 -0 -8.1452e-06 -0 1.40496e-06)
(6.43587e-06 -0.442317 -0 -7.8546e-06 -0 1.41873e-06)
(6.36107e-06 -0.437754 -0 -7.99202e-06 -0 1.63095e-06)
(6.16739e-06 -0.433776 -0 -7.85784e-06 -0 1.69045e-06)
(6.12665e-06 -0.43 -0 -7.98752e-06 -0 1.86087e-06)
(6.0122e-06 -0.426687 -0 -7.95148e-06 -0 1.93928e-06)
(5.99562e-06 -0.423523 -0 -8.06508e-06 -0 2.06946e-06)
(5.91747e-06 -0.420712 -0 -8.05448e-06 -0 2.13701e-06)
(5.88931e-06 -0.418029 -0 -8.11287e-06 -0 2.22356e-06)
(5.79936e-06 -0.415621 -0 -8.06716e-06 -0 2.2678e-06)
(5.73779e-06 -0.413346 -0 -8.06166e-06 -0 2.32387e-06)
(5.64487e-06 -0.411294 -0 -8.01139e-06 -0 2.36652e-06)
(5.60442e-06 -0.409374 -0 -8.03159e-06 -0 2.42717e-06)
(5.60948e-06 -0.40761 -0 -8.11749e-06 -0 2.50801e-06)
(5.72614e-06 -0.405929 -0 -8.33481e-06 -0 2.60868e-06)
(5.99273e-06 -0.404286 -0 -8.74615e-06 -0 2.75342e-06)
(6.453e-06 -0.402606 -0 -9.36419e-06 -0 2.91119e-06)
(7.1942e-06 -0.400784 -0 -1.03192e-05 -0 3.12497e-06)
(8.26481e-06 -0.398723 -0 -1.16099e-05 -0 3.34504e-06)
(9.81646e-06 -0.396253 -0 -1.34473e-05 -0 3.63086e-06)
(1.19354e-05 -0.393227 -0 -1.586e-05 -0 3.92452e-06)
(1.48768e-05 -0.389397 -0 -1.91741e-05 -0 4.29732e-06)
(1.87082e-05 -0.384509 -0 -2.34029e-05 -0 4.69478e-06)
(2.39534e-05 -0.378284 -0 -2.91489e-05 -0 5.19541e-06)
(3.05639e-05 -0.370212 -0 -3.63138e-05 -0 5.7499e-06)
(3.89461e-05 -0.360061 -0 -4.5477e-05 -0 6.53081e-06)
(5.07837e-05 -0.347346 -0 -5.8023e-05 -0 7.23934e-06)
(6.22447e-05 -0.330494 -0 -7.09848e-05 -0 8.74014e-06)
(8.19131e-05 -0.312268 -0 -9.14759e-05 -0 9.56271e-06)
(9.67464e-05 -0.28522 -0 -0.000108658 -0 1.1912e-05)
(0.000453537 -0.260775 -0 -0.000453894 -0 3.56985e-07)
(0.000396868 -0.127588 -0 -0.00037757 -0 -1.92978e-05)
(-8.80236e-05 -0.104794 -0 6.95702e-05 -0 1.84535e-05)
(4.03587e-05 -0.115102 -0 -7.60062e-05 -0 3.56476e-05)
(-3.1897e-05 -0.0691019 -0 2.23846e-05 -0 9.51234e-06)
(0.000103535 -0.093829 -0 -0.000198322 -0 9.47874e-05)
(-0.000390698 -0.0346834 -0 0.000340059 -0 5.06386e-05)
(-0.00092088 -0.281875 -0 0.000909212 -0 1.16678e-05)
(0.00263483 -0.39985 -0 -0.00239406 -0 -0.000240774)
(0.00847628 0.889001 -0 -0.00888072 -0 0.00040444)
(-0.000173662 2.78325 -0 -6.50802e-05 -0 0.000238742)
(-0.0233311 1.07284 -0 0.0216879 -0 0.00164322)
(-0.0237583 -4.87942 -0 0.0255962 -0 -0.00183786)
(0.0223819 -6.26117 -0 -0.0199865 -0 -0.00239541)
(0.0530443 -1.34061 -0 -0.0628118 -0 0.00976753)
(0.0177883 3.34014 -0 -0.0240832 -0 0.00629498)
(-0.0110173 2.76532 -0 0.0113102 -0 -0.000292874)
(-0.00557166 1.7575 -0 0.00614172 -0 -0.000570059)
(0.0022408 1.67609 -0 -0.00296509 -0 0.000724283)
(-0.00822417 1.69547 -0 0.00526696 -0 0.00295721)
(-0.0321863 0.0850285 -0 0.0314492 -0 0.000737098)
(-0.0447049 -3.0729 -0 0.0474498 -0 -0.00274486)
(-0.0348995 -6.13581 -0 0.0350672 -0 -0.000167628)
(-0.00900408 -8.20326 -0 0.0108319 -0 -0.00182783)
(0.0470843 -7.90209 -0 -0.0448754 -0 -0.00220891)
(0.0990953 -4.00588 -0 -0.113446 -0 0.0143502)
(0.0633038 2.12053 -0 -0.080146 -0 0.0168423)
(0.00932616 3.17379 -0 -0.0165338 -0 0.00720764)
(-0.00691209 3.17888 -0 0.00477939 -0 0.00213269)
(-0.0148356 2.54651 -0 0.0139304 -0 0.000905215)
(-0.0146795 1.76715 -0 0.0113808 -0 0.00329863)
(-0.0158807 1.0015 -0 0.0120008 -0 0.00387989)
(-0.0121327 0.0287378 -0 0.0086963 -0 0.00343639)
(-0.0156462 -0.428012 -0 0.0124859 -0 0.00316026)
(-0.0140899 -1.61473 -0 0.0130507 -0 0.00103922)
(-0.0443058 -1.6073 -0 0.043461 -0 0.000844798)
(-0.0974202 -4.73346 2.69497e-22 0.0580055 -0 0.0394147)
(0.0151841 -2.95176 -0 -0.0151892 -0 5.07573e-06)
(0.00176311 -1.44291 -0 -0.00174709 -0 -1.60203e-05)
(0.000435416 -1.08395 -0 -0.000431432 -0 -3.9837e-06)
(0.000230369 -0.917893 -0 -0.000227319 -0 -3.05018e-06)
(0.000152275 -0.816728 -0 -0.00015038 -0 -1.89577e-06)
(0.000113169 -0.747622 -0 -0.000111401 -0 -1.76837e-06)
(9.10922e-05 -0.694574 -0 -8.96332e-05 -0 -1.45899e-06)
(7.56913e-05 -0.652965 -0 -7.44084e-05 -0 -1.2829e-06)
(6.37702e-05 -0.618743 -0 -6.24252e-05 -0 -1.34505e-06)
(5.50636e-05 -0.591073 -0 -5.41443e-05 -0 -9.19266e-07)
(4.7844e-05 -0.567442 -0 -4.67119e-05 -0 -1.1321e-06)
(4.27344e-05 -0.547757 -0 -4.22168e-05 -0 -5.17594e-07)
(3.78053e-05 -0.530548 -0 -3.6978e-05 -0 -8.27277e-07)
(3.45291e-05 -0.515932 -0 -3.44331e-05 -0 -9.59697e-08)
(3.09871e-05 -0.503024 -0 -3.05518e-05 -0 -4.35286e-07)
(2.88543e-05 -0.491811 -0 -2.91947e-05 -0 3.40373e-07)
(2.6237e-05 -0.481893 -0 -2.62804e-05 -0 4.33695e-08)
(2.48196e-05 -0.47307 -0 -2.56209e-05 -0 8.01267e-07)
(2.28719e-05 -0.465295 -0 -2.34673e-05 -0 5.95317e-07)
(2.19259e-05 -0.458214 -0 -2.32195e-05 -0 1.29352e-06)
(2.04782e-05 -0.452004 -0 -2.16765e-05 -0 1.19822e-06)
(1.98282e-05 -0.446233 -0 -2.16469e-05 -0 1.81873e-06)
(1.87387e-05 -0.441191 -0 -2.05719e-05 -0 1.83323e-06)
(1.8269e-05 -0.436446 -0 -2.0645e-05 -0 2.37598e-06)
(1.74499e-05 -0.4323 -0 -1.99326e-05 -0 2.48264e-06)
(1.71141e-05 -0.428373 -0 -2.00626e-05 -0 2.94849e-06)
(1.65187e-05 -0.424922 -0 -1.96258e-05 -0 3.10712e-06)
(1.62795e-05 -0.42164 -0 -1.97636e-05 -0 3.48416e-06)
(1.58249e-05 -0.418724 -0 -1.94667e-05 -0 3.64182e-06)
(1.55908e-05 -0.415955 -0 -1.95113e-05 -0 3.92049e-06)
(1.51623e-05 -0.413471 -0 -1.92152e-05 -0 4.05296e-06)
(1.48724e-05 -0.411134 -0 -1.91307e-05 -0 4.25835e-06)
(1.44807e-05 -0.409023 -0 -1.88782e-05 -0 4.39754e-06)
(1.42678e-05 -0.407052 -0 -1.88559e-05 -0 4.58813e-06)
(1.41643e-05 -0.405237 -0 -1.89512e-05 -0 4.78691e-06)
(1.43911e-05 -0.403511 -0 -1.94026e-05 -0 5.01147e-06)
(1.50174e-05 -0.401828 -0 -2.03054e-05 -0 5.28793e-06)
(1.62065e-05 -0.400122 -0 -2.17623e-05 -0 5.55584e-06)
(1.81629e-05 -0.39829 -0 -2.40529e-05 -0 5.89004e-06)
(2.10709e-05 -0.396247 -0 -2.72593e-05 -0 6.1884e-06)
(2.53045e-05 -0.393834 -0 -3.18597e-05 -0 6.5552e-06)
(3.11636e-05 -0.390919 -0 -3.80418e-05 -0 6.87819e-06)
(3.92965e-05 -0.387273 -0 -4.65527e-05 -0 7.2562e-06)
(4.99806e-05 -0.382665 -0 -5.75978e-05 -0 7.61714e-06)
(6.4551e-05 -0.376838 -0 -7.25802e-05 -0 8.02921e-06)
(8.3092e-05 -0.369327 -0 -9.14472e-05 -0 8.35517e-06)
(0.000106413 -0.359887 -0 -0.000115622 -0 9.20963e-06)
(0.000139477 -0.34814 -0 -0.000148469 -0 8.99179e-06)
(0.000171574 -0.332491 -0 -0.000182772 -0 1.1198e-05)
(0.000225605 -0.315598 -0 -0.000236342 -0 1.07367e-05)
(0.000265945 -0.290623 -0 -0.000279191 -0 1.32455e-05)
(0.000627612 -0.26733 -0 -0.000659025 -0 3.14133e-05)
(0.000715487 -0.249152 -0 -0.000789246 -0 7.37598e-05)
(0.00020884 -0.204686 -0 -0.000197215 -0 -1.16251e-05)
(0.000370081 -0.16557 -0 -0.000451482 -0 8.14001e-05)
(0.000127412 -0.130763 -0 -3.87334e-05 -0 -8.86786e-05)
(0.000507104 -0.10141 -0 -0.000714295 -0 0.000207191)
(-0.00130804 -0.0718079 -0 0.00141458 -0 -0.000106542)
(-0.00175841 -0.252229 -0 0.00127253 -0 0.000485877)
(0.00784816 -0.262023 -0 -0.00762618 -0 -0.000221984)
(0.0218806 0.861752 -0 -0.0215402 -0 -0.000340418)
(0.00256284 2.13762 -0 -0.00341201 -0 0.000849166)
(-0.0636198 0.620069 -0 0.0610743 -0 0.00254545)
(-0.0723788 -3.7811 -0 0.0691482 -0 0.00323065)
(0.0303676 -5.14624 -0 -0.0252391 -0 -0.00512851)
(0.134086 -1.97298 -0 -0.141858 -0 0.00777264)
(0.0604804 2.41263 -0 -0.057059 -0 -0.00342131)
(-0.0199957 1.94274 -0 0.0201646 -0 -0.000168925)
(-0.0159848 1.37452 -0 0.0149493 -0 0.00103551)
(-0.00233661 1.22433 -0 0.00148375 -0 0.00085286)
(-0.0236042 0.947024 -0 0.0216816 -0 0.00192263)
(-0.080174 -0.384215 -0 0.0792264 -0 0.000947571)
(-0.11406 -2.53754 -0 0.114377 -0 -0.000316484)
(-0.0956603 -4.6829 -0 0.0913309 -0 0.00432935)
(-0.036299 -6.26824 -0 0.0313656 -0 0.00493336)
(0.0717386 -6.34752 -0 -0.0712614 -0 -0.000477118)
(0.232308 -3.92759 -0 -0.24128 -0 0.00897158)
(0.18567 1.81966 -0 -0.187799 -0 0.00212883)
(0.0344347 2.14483 -0 -0.0345339 -0 9.91589e-05)
(-0.0126686 2.08115 -0 0.0121102 -0 0.000558412)
(-0.0343145 1.65668 -0 0.0317394 -0 0.0025751)
(-0.0365415 1.18527 -0 0.0306491 -0 0.00589242)
(-0.045061 0.67676 -0 0.0378496 -0 0.00721144)
(-0.0398685 -0.0695922 -0 0.0334976 -0 0.00637086)
(-0.0497568 -0.368388 -0 0.0420004 -0 0.0077564)
(-0.0351314 -1.31555 -0 0.0302554 -0 0.00487597)
(-0.114328 -1.01019 -0 0.108586 -0 0.00574233)
(-0.140019 -3.12387 -3.43643e-22 0.17302 -0 -0.033001)
(0.0142249 -2.51328 -0 -0.0142219 -0 -3.00156e-06)
(0.0028693 -1.4382 -0 -0.00285363 -0 -1.56726e-05)
(0.000802025 -1.08196 -0 -0.0007976 -0 -4.42509e-06)
(0.000423279 -0.916687 -0 -0.000419028 -0 -4.25159e-06)
(0.000280422 -0.815507 -0 -0.000277909 -0 -2.51324e-06)
(0.000208312 -0.746292 -0 -0.000205672 -0 -2.64002e-06)
(0.000167629 -0.693216 -0 -0.000165524 -0 -2.10427e-06)
(0.000139371 -0.65166 -0 -0.000137541 -0 -1.82977e-06)
(0.000117518 -0.617388 -0 -0.000115477 -0 -2.04122e-06)
(0.00010171 -0.589667 -0 -0.000100545 -0 -1.16494e-06)
(8.83548e-05 -0.565949 -0 -8.66363e-05 -0 -1.71847e-06)
(7.9195e-05 -0.546184 -0 -7.88049e-05 -0 -3.90029e-07)
(7.00069e-05 -0.528905 -0 -6.88767e-05 -0 -1.13017e-06)
(6.42242e-05 -0.514203 -0 -6.467e-05 -0 4.45745e-07)
(5.75764e-05 -0.501248 -0 -5.72407e-05 -0 -3.35677e-07)
(5.38515e-05 -0.489953 -0 -5.51328e-05 -0 1.28138e-06)
(4.89254e-05 -0.480002 -0 -4.95288e-05 -0 6.03375e-07)
(4.6442e-05 -0.471099 -0 -4.85454e-05 -0 2.1034e-06)
(4.27798e-05 -0.463289 -0 -4.44027e-05 -0 1.62293e-06)
(4.10798e-05 -0.456124 -0 -4.39962e-05 -0 2.91637e-06)
(3.83667e-05 -0.449861 -0 -4.10291e-05 -0 2.66244e-06)
(3.71394e-05 -0.443997 -0 -4.08673e-05 -0 3.72794e-06)
(3.51038e-05 -0.438877 -0 -3.87897e-05 -0 3.68598e-06)
(3.41566e-05 -0.434024 -0 -3.8705e-05 -0 4.54837e-06)
(3.26194e-05 -0.429774 -0 -3.72921e-05 -0 4.67272e-06)
(3.18828e-05 -0.425723 -0 -3.7243e-05 -0 5.36018e-06)
(3.07422e-05 -0.422144 -0 -3.63108e-05 -0 5.56864e-06)
(3.01654e-05 -0.418727 -0 -3.6249e-05 -0 6.0836e-06)
(2.92719e-05 -0.41567 -0 -3.55528e-05 -0 6.28095e-06)
(2.87162e-05 -0.412757 -0 -3.53436e-05 -0 6.62746e-06)
(2.78782e-05 -0.410121 -0 -3.4656e-05 -0 6.77775e-06)
(2.7256e-05 -0.40763 -0 -3.42712e-05 -0 7.01518e-06)
(2.65005e-05 -0.405357 -0 -3.36822e-05 -0 7.18176e-06)
(2.60467e-05 -0.403223 -0 -3.34667e-05 -0 7.41997e-06)
(2.58083e-05 -0.401238 -0 -3.35101e-05 -0 7.70179e-06)
(2.61443e-05 -0.399348 -0 -3.4174e-05 -0 8.0297e-06)
(2.71865e-05 -0.397505 -0 -3.56552e-05 -0 8.46865e-06)
(2.9215e-05 -0.395656 -0 -3.81238e-05 -0 8.90881e-06)
(3.25871e-05 -0.393707 -0 -4.20699e-05 -0 9.4828e-06)
(3.76317e-05 -0.391585 -0 -4.76494e-05 -0 1.00176e-05)
(4.50025e-05 -0.389143 -0 -5.5693e-05 -0 1.06905e-05)
(5.52331e-05 -0.386267 -0 -6.65432e-05 -0 1.13101e-05)
(6.94832e-05 -0.382744 -0 -8.15375e-05 -0 1.20543e-05)
(8.82277e-05 -0.378361 -0 -0.000101013 -0 1.27854e-05)
(0.000113894 -0.372885 -0 -0.000127557 -0 1.36637e-05)
(0.000146653 -0.365879 -0 -0.000161083 -0 1.44303e-05)
(0.000187905 -0.3571 -0 -0.000204077 -0 1.61726e-05)
(0.000246884 -0.346226 -0 -0.000263138 -0 1.62535e-05)
(0.000304231 -0.331658 -0 -0.000324756 -0 2.05255e-05)
(0.000401456 -0.315961 -0 -0.000422165 -0 2.07091e-05)
(0.000477895 -0.292627 -0 -0.000503112 -0 2.5217e-05)
(0.000808847 -0.269918 -0 -0.000835721 -0 2.68739e-05)
(0.0009669 -0.250633 -0 -0.000996773 -0 2.9873e-05)
(0.000623617 -0.207699 -0 -0.000642522 -0 1.89049e-05)
(0.000829808 -0.170965 -0 -0.000998642 -0 0.000168833)
(0.000408843 -0.134342 -0 -0.000268648 -0 -0.000140195)
(0.00100797 -0.10145 -0 -0.00145266 -0 0.000444697)
(-0.0021193 -0.0828908 -0 0.00228021 -0 -0.00016091)
(-0.00219554 -0.220037 -0 0.00163033 -0 0.000565212)
(0.0143994 -0.105104 -0 -0.0137649 -0 -0.000634467)
(0.0334949 0.894344 -0 -0.0327847 -0 -0.000710205)
(-0.00490972 1.43029 -0 0.0052701 -0 -0.000360385)
(-0.104738 -0.330657 -0 0.103697 -0 0.00104043)
(-0.115346 -2.94095 -0 0.121512 -0 -0.00616599)
(0.0508849 -3.43768 -0 -0.0380695 -0 -0.0128155)
(0.219131 -0.961835 -0 -0.24146 -0 0.0223287)
(0.0942621 1.71039 -0 -0.098166 -0 0.00390386)
(-0.0397997 1.02489 -0 0.0448787 -0 -0.005079)
(-0.0202225 0.775744 -0 0.0194292 -0 0.000793215)
(-0.00990004 0.785001 -0 0.0104392 -0 -0.000539191)
(-0.044353 0.159618 -0 0.0331993 -0 0.0111537)
(-0.124871 -1.20895 -0 0.120247 -0 0.00462352)
(-0.164979 -2.34785 -0 0.165506 -0 -0.000526892)
(-0.143689 -3.5096 -0 0.141287 -0 0.00240253)
(-0.0553884 -4.41982 -0 0.0532045 -0 0.00218387)
(0.128281 -3.40831 -0 -0.122681 -0 -0.00559994)
(0.381401 1.13635 -0 -0.384466 -0 0.00306491)
(0.254532 2.33616 -0 -0.247244 -0 -0.00728783)
(0.00643762 1.33845 -0 -0.00661377 -0 0.000176156)
(-0.0293485 1.0303 -0 0.0279492 -0 0.00139923)
(-0.0516812 0.74402 -0 0.049188 -0 0.00249323)
(-0.0547526 0.508129 -0 0.0473586 -0 0.00739398)
(-0.0701261 0.122174 -0 0.060674 -0 0.00945215)
(-0.0606435 -0.345403 -0 0.054692 -0 0.00595146)
(-0.0758745 -0.4248 -0 0.0672889 -0 0.00858566)
(-0.0450344 -1.03351 -0 0.0425742 -0 0.00246024)
(-0.149845 -0.662188 -0 0.144803 -0 0.00504245)
(-0.0823425 -1.59597 -0 0.0808587 -0 0.00148377)
(0.0129917 -2.07357 -0 -0.0129821 -0 -9.62112e-06)
(0.00386097 -1.41541 -0 -0.00385197 -0 -8.99564e-06)
(0.00123883 -1.07707 -0 -0.00123465 -0 -4.18047e-06)
(0.000656171 -0.914224 -0 -0.000651595 -0 -4.57592e-06)
(0.000435415 -0.813849 -0 -0.000432729 -0 -2.68548e-06)
(0.000323633 -0.745084 -0 -0.000320628 -0 -3.00485e-06)
(0.000260149 -0.692378 -0 -0.000257709 -0 -2.43997e-06)
(0.000216269 -0.651195 -0 -0.000214093 -0 -2.17636e-06)
(0.000182634 -0.617161 -0 -0.000180131 -0 -2.50351e-06)
(0.00015797 -0.589594 -0 -0.000156543 -0 -1.42687e-06)
(0.000137542 -0.566009 -0 -0.000135396 -0 -2.14586e-06)
(0.000123035 -0.546284 -0 -0.000122574 -0 -4.60912e-07)
(0.00010911 -0.529074 -0 -0.000107701 -0 -1.40968e-06)
(9.97898e-05 -0.51432 -0 -0.000100408 -0 6.18225e-07)
(8.97765e-05 -0.501376 -0 -8.9392e-05 -0 -3.84416e-07)
(8.36638e-05 -0.489971 -0 -8.53919e-05 -0 1.72806e-06)
(7.62652e-05 -0.479982 -0 -7.71218e-05 -0 8.56602e-07)
(7.21469e-05 -0.470937 -0 -7.4999e-05 -0 2.85209e-06)
(6.66363e-05 -0.463049 -0 -6.88712e-05 -0 2.23487e-06)
(6.38164e-05 -0.45573 -0 -6.78095e-05 -0 3.99312e-06)
(5.97098e-05 -0.449359 -0 -6.33812e-05 -0 3.67143e-06)
(5.77017e-05 -0.443342 -0 -6.28572e-05 -0 5.15551e-06)
(5.45955e-05 -0.438095 -0 -5.97105e-05 -0 5.115e-06)
(5.30786e-05 -0.433093 -0 -5.94238e-05 -0 6.34527e-06)
(5.0708e-05 -0.428706 -0 -5.72364e-05 -0 6.52836e-06)
(4.9541e-05 -0.424514 -0 -5.70691e-05 -0 7.52811e-06)
(4.77552e-05 -0.4208 -0 -5.55793e-05 -0 7.82408e-06)
(4.68383e-05 -0.417256 -0 -5.54219e-05 -0 8.58362e-06)
(4.54254e-05 -0.414073 -0 -5.42875e-05 -0 8.86215e-06)
(4.45531e-05 -0.411049 -0 -5.39329e-05 -0 9.37981e-06)
(4.32485e-05 -0.408303 -0 -5.28419e-05 -0 9.59337e-06)
(4.23017e-05 -0.405712 -0 -5.22514e-05 -0 9.94975e-06)
(4.1151e-05 -0.403337 -0 -5.13383e-05 -0 1.01873e-05)
(4.0467e-05 -0.401105 -0 -5.10009e-05 -0 1.05339e-05)
(4.00862e-05 -0.39902 -0 -5.10145e-05 -0 1.09282e-05)
(4.05458e-05 -0.397036 -0 -5.19308e-05 -0 1.13849e-05)
(4.20147e-05 -0.395105 -0 -5.40003e-05 -0 1.19857e-05)
(4.49065e-05 -0.393184 -0 -5.74865e-05 -0 1.258e-05)
(4.97288e-05 -0.391185 -0 -6.30799e-05 -0 1.33511e-05)
(5.69697e-05 -0.389051 -0 -7.10299e-05 -0 1.40603e-05)
(6.75766e-05 -0.38665 -0 -8.25312e-05 -0 1.49546e-05)
(8.23369e-05 -0.383885 -0 -9.81108e-05 -0 1.57739e-05)
(0.000102965 -0.380573 -0 -0.000119727 -0 1.67621e-05)
(0.000130166 -0.376524 -0 -0.000147912 -0 1.7746e-05)
(0.000167475 -0.371538 -0 -0.000186399 -0 1.89237e-05)
(0.000215466 -0.365232 -0 -0.000235457 -0 1.99916e-05)
(0.000275509 -0.357339 -0 -0.000297874 -0 2.23654e-05)
(0.000362667 -0.347702 -0 -0.000385184 -0 2.25176e-05)
(0.000447132 -0.334626 -0 -0.000475546 -0 2.84141e-05)
(0.000590084 -0.320642 -0 -0.00061856 -0 2.8476e-05)
(0.000711115 -0.299899 -0 -0.00074618 -0 3.50654e-05)
(0.00103816 -0.278587 -0 -0.00107925 -0 4.10818e-05)
(0.00131901 -0.260145 -0 -0.00137607 -0 5.70551e-05)
(0.00105367 -0.222972 -0 -0.00106857 -0 1.4899e-05)
(0.00130175 -0.185724 -0 -0.00153267 -0 0.000230919)
(0.000805496 -0.157645 -0 -0.000619579 -0 -0.000185917)
(0.00150991 -0.110269 -0 -0.00212871 -0 0.000618798)
(-0.00282124 -0.106734 -0 0.00300765 -0 -0.000186407)
(-0.00140216 -0.193755 -0 0.000430756 -0 0.000971403)
(0.021769 0.00569132 -0 -0.0209625 -0 -0.000806539)
(0.0413621 0.747712 -0 -0.0406477 -0 -0.000714406)
(-0.014464 0.646172 -0 0.0126731 -0 0.00179095)
(-0.136735 -0.949302 -0 0.138113 -0 -0.00137835)
(-0.133972 -2.07243 -0 0.136624 -0 -0.00265185)
(0.0686447 -1.72794 -0 -0.0544905 -0 -0.0141542)
(0.260431 1.24804 -0 -0.268975 -0 0.00854407)
(0.106012 0.743214 -0 -0.0991784 -0 -0.00683367)
(-0.0470512 0.470097 -0 0.0496087 -0 -0.00255752)
(-0.0225493 0.334573 -0 0.0215373 -0 0.00101194)
(-0.0233482 0.273985 -0 0.0237277 -0 -0.000379448)
(-0.0797758 -0.565249 -0 0.0698073 -0 0.00996847)
(-0.16217 -1.48696 -0 0.161265 -0 0.000904242)
(-0.194634 -1.95604 -0 0.197125 -0 -0.00249052)
(-0.173472 -2.50628 -0 0.172598 -0 0.000873721)
(-0.034955 -2.65512 -0 0.0385884 -0 -0.0036334)
(0.303068 0.205408 -0 -0.292839 -0 -0.0102297)
(0.448749 4.00141 -0 -0.439065 -0 -0.00968359)
(0.168106 1.15968 -0 -0.161941 -0 -0.00616461)
(-0.021758 0.572689 -0 0.0164238 -0 0.00533418)
(-0.0400119 0.374849 -0 0.0379224 -0 0.00208952)
(-0.0598498 0.238655 -0 0.0563495 -0 0.00350031)
(-0.0687824 0.176255 -0 0.0612288 -0 0.00755364)
(-0.0924268 -0.12041 -0 0.0836007 -0 0.00882616)
(-0.073027 -0.346896 -0 0.0679695 -0 0.00505749)
(-0.0941007 -0.345044 -0 0.0866907 -0 0.00741004)
(-0.0515913 -0.667194 -0 0.0488332 -0 0.00275804)
(-0.158504 -0.527291 -0 0.152262 -0 0.00624211)
(-0.0720486 -0.706838 -0 0.0858045 -0 -0.0137559)
(0.011437 -1.64122 -0 -0.0114231 -0 -1.38789e-05)
(0.00463281 -1.35901 -0 -0.00462428 -0 -8.52207e-06)
(0.00173306 -1.06476 -0 -0.00172715 -0 -5.90557e-06)
(0.000931793 -0.908058 -0 -0.000925601 -0 -6.1912e-06)
(0.000620105 -0.809782 -0 -0.000616439 -0 -3.66617e-06)
(0.000461224 -0.742097 -0 -0.000457179 -0 -4.04438e-06)
(0.000370441 -0.69015 -0 -0.000367112 -0 -3.32846e-06)
(0.000307997 -0.649595 -0 -0.000305065 -0 -2.93159e-06)
(0.000260393 -0.615996 -0 -0.000256976 -0 -3.41633e-06)
(0.000225348 -0.588704 -0 -0.000223438 -0 -1.91019e-06)
(0.000196444 -0.565359 -0 -0.000193528 -0 -2.9152e-06)
(0.000175768 -0.545738 -0 -0.000175183 -0 -5.84363e-07)
(0.000156157 -0.528669 -0 -0.00015427 -0 -1.88755e-06)
(0.000142859 -0.513903 -0 -0.000143757 -0 8.98607e-07)
(0.00012879 -0.50102 -0 -0.000128328 -0 -4.62326e-07)
(0.00012005 -0.489534 -0 -0.000122472 -0 2.42129e-06)
(0.00010967 -0.479541 -0 -0.00011092 -0 1.25052e-06)
(0.000103774 -0.470377 -0 -0.000107731 -0 3.95633e-06)
(9.6038e-05 -0.462432 -0 -9.91745e-05 -0 3.13647e-06)
(9.19907e-05 -0.454976 -0 -9.7494e-05 -0 5.50335e-06)
(8.62103e-05 -0.448508 -0 -9.12934e-05 -0 5.08308e-06)
(8.33176e-05 -0.442347 -0 -9.03822e-05 -0 7.06462e-06)
(7.89286e-05 -0.436975 -0 -8.59465e-05 -0 7.01789e-06)
(7.67287e-05 -0.431828 -0 -8.53734e-05 -0 8.64475e-06)
(7.33532e-05 -0.427298 -0 -8.2241e-05 -0 8.88786e-06)
(7.16246e-05 -0.422962 -0 -8.18173e-05 -0 1.01927e-05)
(6.90365e-05 -0.4191 -0 -7.96088e-05 -0 1.05722e-05)
(6.76273e-05 -0.415418 -0 -7.91709e-05 -0 1.15436e-05)
(6.55386e-05 -0.412096 -0 -7.74241e-05 -0 1.18856e-05)
(6.41901e-05 -0.408946 -0 -7.67165e-05 -0 1.25264e-05)
(6.22729e-05 -0.406072 -0 -7.50464e-05 -0 1.27735e-05)
(6.0862e-05 -0.403364 -0 -7.40596e-05 -0 1.31976e-05)
(5.92028e-05 -0.400867 -0 -7.26754e-05 -0 1.34727e-05)
(5.81915e-05 -0.39852 -0 -7.20742e-05 -0 1.38827e-05)
(5.75995e-05 -0.396316 -0 -7.1958e-05 -0 1.43586e-05)
(5.813e-05 -0.39422 -0 -7.30384e-05 -0 1.49084e-05)
(5.99969e-05 -0.392184 -0 -7.5641e-05 -0 1.56442e-05)
(6.37372e-05 -0.390177 -0 -8.01023e-05 -0 1.63651e-05)
(7.00152e-05 -0.388119 -0 -8.73261e-05 -0 1.73109e-05)
(7.94728e-05 -0.385968 -0 -9.76455e-05 -0 1.81727e-05)
(9.33663e-05 -0.383612 -0 -0.000112636 -0 1.92693e-05)
(0.000112727 -0.38097 -0 -0.000132998 -0 2.02705e-05)
(0.000139883 -0.377893 -0 -0.000161371 -0 2.14882e-05)
(0.000175756 -0.374213 -0 -0.000198468 -0 2.27128e-05)
(0.00022502 -0.369768 -0 -0.000249209 -0 2.41886e-05)
(0.000289031 -0.364237 -0 -0.000314601 -0 2.55707e-05)
(0.000368382 -0.357324 -0 -0.000397 -0 2.86183e-05)
(0.000485718 -0.349042 -0 -0.000514634 -0 2.89159e-05)
(0.00059947 -0.337636 -0 -0.000636161 -0 3.66909e-05)
(0.000790249 -0.325518 -0 -0.000827036 -0 3.67873e-05)
(0.0009666 -0.307623 -0 -0.00101299 -0 4.63857e-05)
(0.00129537 -0.288065 -0 -0.00135008 -0 5.47161e-05)
(0.00168684 -0.270652 -0 -0.00176774 -0 8.09066e-05)
(0.00155335 -0.239891 -0 -0.00157575 -0 2.23998e-05)
(0.00181005 -0.201064 -0 -0.00212072 -0 0.000310676)
(0.00131466 -0.183779 -0 -0.00105697 -0 -0.000257688)
(0.002108 -0.120128 -0 -0.00295618 -0 0.000848188)
(-0.00343083 -0.137032 -0 0.00369561 -0 -0.000264777)
(0.000518222 -0.168185 -0 -0.00193825 -0 0.00142003)