/*--------------------------------*- C++ -*----------------------------------*\
| =========                 |                                                 |
| \\      /  F ield         | OpenFOAM: The Open Source CFD Toolbox           |
|  \\    /   O peration     | Version:  2306                                  |
|   \\  /    A nd           | Website:  www.openfoam.com                      |
|    \\/     M anipulation  |                                                 |
\*---------------------------------------------------------------------------*/
FoamFile
{
    version     2.0;
    format      ascii;
    arch        "LSB;label=32;scalar=64";
    class       volVectorField;
    location    "1900";
    object      U;
}
// * * * * * * * * * * * * * * * * * * * * * * * * * * * * * * * * * * * * * //

dimensions      [0 1 -1 0 0 0 0];

internalField   nonuniform List<vector> 
20540
(
(29.9975 -0.000532766 0)
(58.7068 0.00528698 0)
(30.0698 -0.00170902 0)
(58.5747 0.0156994 0)
(30.2625 -0.00311326 0)
(58.2375 0.0263498 0)
(30.6406 -0.00474675 0)
(57.5963 0.0367321 0)
(31.2877 -0.00658757 0)
(56.5409 0.0462736 0)
(32.2958 -0.00856029 0)
(54.9713 0.0542597 0)
(33.7403 -0.010507 0)
(52.8398 0.0599174 0)
(35.6342 -0.0121655 0)
(50.2169 0.0626027 0)
(37.871 -0.0131872 0)
(47.3715 0.0621039 0)
(40.1897 -0.0132525 0)
(44.8092 0.0590177 0)
(42.2146 -0.0123144 0)
(43.1498 0.0549361 0)
(43.5952 -0.010827 0)
(42.7486 0.0519228 0)
(44.2076 -0.00960155 0)
(43.2872 0.0510956 0)
(44.2764 -0.00912577 0)
(43.9373 0.0516172 0)
(44.201 -0.00910624 0)
(44.1817 0.0519439 0)
(44.1867 -0.00906536 0)
(44.1643 0.0516516 0)
(44.2016 -0.00891975 0)
(44.1374 0.05104 0)
(44.2059 -0.00873501 0)
(44.1375 0.0502445 0)
(44.2054 -0.00852265 0)
(44.1399 0.0492786 0)
(44.205 -0.00827219 0)
(44.1413 0.0481291 0)
(44.2047 -0.00796969 0)
(44.1427 0.0467522 0)
(44.2045 -0.00760811 0)
(44.1442 0.0451017 0)
(44.2044 -0.0071832 0)
(44.1459 0.0431344 0)
(44.2044 -0.00668887 0)
(44.1478 0.0408016 0)
(44.2044 -0.00612034 0)
(44.1498 0.0380485 0)
(44.2044 -0.00547518 0)
(44.1521 0.0348123 0)
(44.2044 -0.00473003 0)
(44.1545 0.0310194 0)
(44.2045 -0.00384108 0)
(44.1571 0.0266756 0)
(44.2046 -0.00288296 0)
(44.1597 0.0220387 0)
(44.2047 -0.00207834 0)
(44.162 0.017284 0)
(44.2049 -0.00123113 0)
(44.1636 0.0122077 0)
(44.2049 -0.000284766 0)
(44.1643 0.00677536 0)
(44.205 0.000618709 0)
(44.1642 0.0011989 0)
(44.2051 0.00155361 0)
(44.1632 -0.00423561 0)
(44.2051 0.00233127 0)
(44.1614 -0.00934042 0)
(44.2051 0.00314958 0)
(44.1589 -0.0143617 0)
(44.2051 0.00408358 0)
(44.1562 -0.0193713 0)
(44.2051 0.00489495 0)
(44.1536 -0.0241211 0)
(44.2051 0.00560695 0)
(44.1511 -0.0284745 0)
(44.2051 0.00623102 0)
(44.1488 -0.0323751 0)
(44.2051 0.00677656 0)
(44.1468 -0.0358137 0)
(44.2052 0.00724959 0)
(44.1449 -0.0388056 0)
(44.2053 0.00765607 0)
(44.1432 -0.0413819 0)
(44.2055 0.00800331 0)
(44.1416 -0.0435837 0)
(44.2057 0.00829748 0)
(44.1402 -0.0454527 0)
(44.206 0.00854154 0)
(44.139 -0.0470295 0)
(44.2065 0.00874465 0)
(44.1373 -0.0483596 0)
(44.2058 0.00891925 0)
(44.1345 -0.0494784 0)
(44.1952 0.00907037 0)
(44.1445 -0.050394 0)
(44.1854 0.00915851 0)
(44.1847 -0.051067 0)
(44.2325 0.00914262 0)
(44.1252 -0.0512489 0)
(44.2891 0.00928021 0)
(43.6989 -0.0508289 0)
(44.057 0.0100427 0)
(43.0092 -0.0507621 0)
(43.1953 0.0114105 0)
(42.7425 -0.0524662 0)
(41.618 0.0127379 0)
(43.5503 -0.0560239 0)
(39.5282 0.0133552 0)
(45.4879 -0.0599468 0)
(37.2705 0.0130065 0)
(48.107 -0.0623912 0)
(35.1664 0.011831 0)
(50.8478 -0.0621633 0)
(33.4189 0.0101396 0)
(53.3018 -0.0589363 0)
(32.0977 0.00823442 0)
(55.2693 -0.0530143 0)
(31.1771 0.00633474 0)
(56.7114 -0.0450185 0)
(30.5844 0.00457107 0)
(57.6818 -0.0356522 0)
(30.2359 0.0030051 0)
(58.274 -0.0255556 0)
(30.0569 0.00165416 0)
(58.5875 -0.015234 0)
(29.9891 0.000516911 0)
(58.7114 -0.00512905 0)
(3.05107 0.00686216 0)
(1.22493 9.25271e-05 0)
(0.92139 1.56541e-05 0)
(0.778901 7.18118e-06 0)
(0.692505 4.65113e-06 0)
(0.633445 3.42522e-06 0)
(0.587977 2.39169e-06 0)
(0.552286 2.65903e-06 0)
(0.522923 1.38102e-06 0)
(0.499283 2.31246e-06 0)
(0.479072 9.77146e-07 0)
(0.462392 2.2532e-06 0)
(0.447815 1.03281e-06 0)
(0.435624 2.36335e-06 0)
(0.424864 1.37246e-06 0)
(0.415681 2.5257e-06 0)
(0.407568 1.8228e-06 0)
(0.400467 2.67186e-06 0)
(0.394222 2.25585e-06 0)
(0.388596 2.78103e-06 0)
(0.383674 2.59442e-06 0)
(0.379119 2.84685e-06 0)
(0.375148 2.80902e-06 0)
(0.371398 2.87357e-06 0)
(0.36813 2.90945e-06 0)
(0.365004 2.86559e-06 0)
(0.362254 2.91155e-06 0)
(0.359603 2.80781e-06 0)
(0.357234 2.81561e-06 0)
(0.354948 2.67758e-06 0)
(0.352883 2.63334e-06 0)
(0.350911 2.49254e-06 0)
(0.349121 2.43256e-06 0)
(0.347432 2.34258e-06 0)
(0.345871 2.33767e-06 0)
(0.344376 2.35733e-06 0)
(0.342912 2.47678e-06 0)
(0.341415 2.65372e-06 0)
(0.339794 2.94998e-06 0)
(0.337964 3.32349e-06 0)
(0.335776 3.84927e-06 0)
(0.333098 4.47499e-06 0)
(0.329706 5.3283e-06 0)
(0.325374 6.30498e-06 0)
(0.319848 7.66946e-06 0)
(0.312662 9.26219e-06 0)
(0.303639 1.13435e-05 0)
(0.29226 1.43111e-05 0)
(0.277244 1.75142e-05 0)
(0.260953 2.28063e-05 0)
(0.236572 2.81516e-05 0)
(0.214785 0.000114409 0)
(0.0027156 -7.77683e-05 0)
(0.000829862 3.00825e-06 0)
(0.0534861 2.37336e-05 0)
(0.000582188 1.90604e-05 0)
(0.0699135 0.000123552 0)
(-0.000626376 0.000146303 0)
(0.248976 -0.000807211 0)
(0.378275 -0.000461101 0)
(-0.845059 0.00142904 0)
(-2.63808 -0.00439628 0)
(-0.764131 -0.00120951 0)
(4.85877 -0.0163337 0)
(5.34349 0.00323669 0)
(-0.242544 0.0233018 0)
(-3.44337 0.0233693 0)
(-2.54952 -0.0132674 0)
(-1.49129 -0.00161203 0)
(-1.65129 0.000346646 0)
(-1.74321 0.0129697 0)
(0.0558767 0.00220455 0)
(3.13819 -0.00753488 0)
(6.01682 -0.00734662 0)
(7.85299 -0.00864051 0)
(7.00548 0.0116381 0)
(1.93965 0.0439842 0)
(-2.84341 0.0402105 0)
(-3.3006 -0.00112616 0)
(-3.08288 -0.00141317 0)
(-2.4084 -0.00385635 0)
(-1.59079 0.00112168 0)
(-0.783457 0.00323915 0)
(0.105566 0.00148234 0)
(0.501579 0.00157463 0)
(1.55126 -0.00502851 0)
(1.64422 -0.00634257 0)
(4.65323 0.143206 0)
(9.00197 0.0215253 0)
(3.93326 0.00119559 0)
(2.95769 0.00026443 0)
(2.50331 0.000139314 0)
(2.2274 9.15954e-05 0)
(2.03903 6.81477e-05 0)
(1.89425 5.42257e-05 0)
(1.78059 4.5404e-05 0)
(1.68723 3.73325e-05 0)
(1.61183 3.28307e-05 0)
(1.54749 2.77063e-05 0)
(1.49401 2.54926e-05 0)
(1.44729 2.18412e-05 0)
(1.40774 2.07669e-05 0)
(1.37282 1.80941e-05 0)
(1.34261 1.7719e-05 0)
(1.31588 1.57886e-05 0)
(1.29222 1.58421e-05 0)
(1.27135 1.45117e-05 0)
(1.25243 1.48409e-05 0)
(1.23584 1.39938e-05 0)
(1.22047 1.44863e-05 0)
(1.20706 1.40124e-05 0)
(1.19446 1.45907e-05 0)
(1.18348 1.44071e-05 0)
(1.17308 1.50236e-05 0)
(1.16396 1.50475e-05 0)
(1.15529 1.56307e-05 0)
(1.1476 1.57282e-05 0)
(1.14029 1.61673e-05 0)
(1.13375 1.62181e-05 0)
(1.12759 1.64833e-05 0)
(1.12205 1.65416e-05 0)
(1.11689 1.68022e-05 0)
(1.11215 1.71212e-05 0)
(1.10765 1.76945e-05 0)
(1.10325 1.8594e-05 0)
(1.09875 1.98365e-05 0)
(1.09387 2.16724e-05 0)
(1.08835 2.4057e-05 0)
(1.08172 2.74074e-05 0)
(1.0736 3.17315e-05 0)
(1.06332 3.76214e-05 0)
(1.0502 4.51256e-05 0)
(1.03351 5.52028e-05 0)
(1.0119 6.7769e-05 0)
(0.984695 8.39211e-05 0)
(0.950715 0.000105216 0)
(0.905603 0.000128495 0)
(0.856871 0.000162109 0)
(0.784803 0.000192313 0)
(0.719368 0.000714444 0)
(0.475804 0.000766729 0)
(0.392492 -9.96098e-05 0)
(0.367501 0.000180917 0)
(0.25877 -4.72253e-05 0)
(0.267747 0.000400843 0)
(0.130997 -0.000720368 0)
(0.757242 -0.000708616 0)
(1.0438 0.00460056 0)
(-2.31585 0.015704 0)
(-7.25964 0.00588872 0)
(-3.104 -0.0361702 0)
(12.4442 -0.0317476 0)
(17.0459 0.0291113 0)
(5.32718 0.108077 0)
(-8.37618 0.028764 0)
(-7.29918 -0.0057346 0)
(-4.79543 -0.0106511 0)
(-4.2962 0.00650737 0)
(-4.25764 -0.0200263 0)
(-0.386617 -0.0603284 0)
(7.74239 -0.0851243 0)
(15.761 -0.0572653 0)
(21.3027 -0.0133158 0)
(21.1965 0.0660265 0)
(12.695 0.186725 0)
(-4.52197 0.13345 0)
(-7.9239 0.0459364 0)
(-8.20705 -0.00325958 0)
(-6.6486 -0.0197894 0)
(-4.71131 -0.0165311 0)
(-2.81285 -0.0191653 0)
(-0.235578 -0.0116686 0)
(1.00056 -0.0194136 0)
(4.18683 -0.0164682 0)
(4.04224 -0.0723382 0)
(12.4169 -0.208144 0)
(15.2113 0.0382968 0)
(7.21131 0.00379285 0)
(5.41814 0.000934318 0)
(4.58676 0.000488838 0)
(4.08057 0.000323659 0)
(3.73471 0.000238852 0)
(3.46911 0.000191785 0)
(3.26076 0.00015978 0)
(3.08936 0.000132569 0)
(2.95089 0.000116799 0)
(2.83259 9.8894e-05 0)
(2.73421 9.20882e-05 0)
(2.6482 7.87757e-05 0)
(2.57536 7.64915e-05 0)
(2.51103 6.62673e-05 0)
(2.45532 6.64204e-05 0)
(2.40606 5.86813e-05 0)
(2.36235 5.99208e-05 0)
(2.32386 5.43374e-05 0)
(2.28885 5.59266e-05 0)
(2.25817 5.21576e-05 0)
(2.22967 5.37018e-05 0)
(2.20477 5.13468e-05 0)
(2.18132 5.27023e-05 0)
(2.16084 5.14084e-05 0)
(2.1414 5.25794e-05 0)
(2.12431 5.19982e-05 0)
(2.10802 5.29198e-05 0)
(2.09352 5.25926e-05 0)
(2.07971 5.30676e-05 0)
(2.0673 5.26319e-05 0)
(2.05559 5.26805e-05 0)
(2.04499 5.23383e-05 0)
(2.03508 5.25571e-05 0)
(2.02594 5.3152e-05 0)
(2.01724 5.45909e-05 0)
(2.00875 5.7225e-05 0)
(2.00013 6.10962e-05 0)
(1.99087 6.70311e-05 0)
(1.98053 7.49428e-05 0)
(1.96831 8.6158e-05 0)
(1.95354 0.000100783 0)
(1.93503 0.000120768 0)
(1.91161 0.000146282 0)
(1.88195 0.000180784 0)
(1.84367 0.000223667 0)
(1.79558 0.000279646 0)
(1.73558 0.000352877 0)
(1.65579 0.00043479 0)
(1.56957 0.000554765 0)
(1.44174 0.000657915 0)
(1.3233 0.00155672 0)
(1.03527 0.00170521 0)
(0.84847 0.00044605 0)
(0.739727 0.00120107 0)
(0.540418 -8.04752e-05 0)
(0.489079 0.00215831 0)
(0.297961 -0.00312676 0)
(1.28809 -0.00261457 0)
(1.42883 0.015294 0)
(-4.45109 0.046585 0)
(-11.3786 0.00312483 0)
(-3.08981 -0.12681 0)
(20.4428 -0.162815 0)
(26.2644 0.043486 0)
(7.55159 0.34537 0)
(-13.3668 0.144062 0)
(-10.3778 -0.0610296 0)
(-7.04223 -0.0313179 0)
(-6.65793 -0.00237833 0)
(-5.51673 -0.0249875 0)
(1.89495 -0.162471 0)
(13.6992 -0.251758 0)
(25.244 -0.194479 0)
(33.5034 -0.0676939 0)
(32.859 0.161 0)
(17.5237 0.582429 0)
(-10.7542 0.452027 0)
(-12.0709 0.0676634 0)
(-11.4603 -0.0272627 0)
(-9.04423 -0.0667539 0)
(-6.32041 -0.0514044 0)
(-3.43214 -0.0616485 0)
(0.493252 -0.057371 0)
(2.07046 -0.0718 0)
(6.97606 -0.060272 0)
(5.73634 -0.226084 0)
(17.541 -0.25103 0)
(21.5106 0.0570756 0)
(11.1489 0.00844839 0)
(8.38724 0.00230325 0)
(7.1037 0.00120564 0)
(6.32008 0.000799597 0)
(5.78439 0.000590193 0)
(5.37329 0.000474385 0)
(5.05114 0.000394293 0)
(4.78581 0.000329033 0)
(4.57131 0.000288276 0)
(4.38796 0.000246095 0)
(4.23528 0.000226977 0)
(4.10184 0.00019604 0)
(3.98849 0.000187991 0)
(3.88854 0.000164342 0)
(3.80162 0.000162508 0)
(3.72493 0.000144535 0)
(3.65655 0.000145759 0)
(3.59646 0.000132618 0)
(3.54154 0.00013512 0)
(3.49349 0.000126036 0)
(3.44866 0.000128791 0)
(3.40951 0.000122888 0)
(3.37252 0.00012544 0)
(3.34017 0.000121949 0)
(3.30941 0.000124203 0)
(3.28231 0.000122365 0)
(3.25645 0.000124123 0)
(3.23339 0.000122938 0)
(3.21143 0.000123747 0)
(3.19164 0.000122424 0)
(3.17296 0.00012233 0)
(3.15599 0.000121311 0)
(3.14009 0.000121643 0)
(3.12537 0.000122798 0)
(3.11136 0.000125914 0)
(3.09769 0.000131726 0)
(3.08391 0.000140409 0)
(3.06923 0.000153805 0)
(3.05305 0.00017183 0)
(3.03418 0.00019748 0)
(3.01165 0.000231158 0)
(2.98373 0.000277335 0)
(2.9487 0.000336581 0)
(2.90464 0.000416882 0)
(2.84802 0.000517311 0)
(2.77695 0.000648027 0)
(2.68867 0.000820926 0)
(2.57078 0.00101295 0)
(2.44366 0.00129659 0)
(2.25506 0.00154629 0)
(2.07595 0.00290785 0)
(1.73574 0.0033907 0)
(1.4382 0.00160328 0)
(1.22892 0.0031747 0)
(0.937926 0.000312685 0)
(0.77883 0.00524541 0)
(0.551509 -0.00692286 0)
(1.85492 -0.00323537 0)
(1.54026 0.0384347 0)
(-6.7825 0.0973548 0)
(-14.2542 -0.00900184 0)
(-1.28861 -0.299219 0)
(26.9254 -0.355066 0)
(33.9966 0.095484 0)
(10.1449 0.783091 0)
(-16.7226 0.285028 0)
(-12.2829 -0.1314 0)
(-8.58799 -0.0575207 0)
(-8.11467 -0.0217932 0)
(-4.86785 -0.0795579 0)
(5.78238 -0.356593 0)
(19.3954 -0.506366 0)
(33.0542 -0.410084 0)
(43.0238 -0.142095 0)
(37.4651 0.367799 0)
(5.43134 1.16851 0)
(-16.0395 0.725935 0)
(-14.3968 0.0600356 0)
(-13.1828 -0.0711737 0)
(-10.234 -0.138237 0)
(-7.16623 -0.119023 0)
(-3.35416 -0.150992 0)
(1.50997 -0.136002 0)
(3.11059 -0.169719 0)
(9.28708 -0.117498 0)
(7.33308 -0.424097 0)
(20.4934 -0.417239 0)
(27.6746 0.0774765 0)
(15.7947 0.0155899 0)
(11.9555 0.00473707 0)
(10.1363 0.00248908 0)
(9.02107 0.00165323 0)
(8.2579 0.00122089 0)
(7.67243 0.000980986 0)
(7.21418 0.000814968 0)
(6.83625 0.000681767 0)
(6.53046 0.000596415 0)
(6.26902 0.000510923 0)
(6.05089 0.00046968 0)
(5.86043 0.000407474 0)
(5.698 0.000388901 0)
(5.5551 0.000341544 0)
(5.43012 0.00033584 0)
(5.32021 0.000299862 0)
(5.22155 0.000300682 0)
(5.13514 0.000274264 0)
(5.05566 0.000277977 0)
(4.98627 0.000259535 0)
(4.9212 0.000264016 0)
(4.86441 0.000251811 0)
(4.81055 0.000256052 0)
(4.76339 0.000248557 0)
(4.71846 0.000252268 0)
(4.67878 0.000247982 0)
(4.64093 0.00025073 0)
(4.60707 0.000247738 0)
(4.57487 0.000248685 0)
(4.54575 0.000245519 0)
(4.51828 0.000244819 0)
(4.49323 0.000242373 0)
(4.46974 0.000242599 0)
(4.44791 0.000244432 0)
(4.42713 0.000250083 0)
(4.40688 0.000260926 0)
(4.38658 0.000277351 0)
(4.36516 0.000302876 0)
(4.34187 0.000337448 0)
(4.31509 0.000386836 0)
(4.28356 0.000451972 0)
(4.245 0.0005416 0)
(4.1971 0.000656988 0)
(4.13732 0.000813724 0)
(4.06097 0.00101115 0)
(3.96522 0.00126681 0)
(3.84709 0.00160984 0)
(3.68837 0.00198861 0)
(3.51777 0.00254982 0)
(3.26478 0.00306832 0)
(3.01739 0.00499712 0)
(2.61772 0.00611516 0)
(2.20703 0.0038046 0)
(1.87177 0.00664901 0)
(1.505 0.00127848 0)
(1.1614 0.0106431 0)
(0.95438 -0.0129471 0)
(2.45685 -0.000687359 0)
(1.36677 0.0774356 0)
(-8.9322 0.168668 0)
(-15.0673 -0.0305021 0)
(2.84643 -0.554297 0)
(32.8538 -0.585425 0)
(36.1116 0.166651 0)
(-1.29145 1.17599 0)
(-17.5878 0.421435 0)
(-13.0972 -0.219662 0)
(-8.94424 -0.0940453 0)
(-8.17328 -0.0784343 0)
(-1.88803 -0.212436 0)
(10.9739 -0.65477 0)
(25.5088 -0.861847 0)
(40.2577 -0.720042 0)
(49.1367 -0.192428 0)
(30.4916 1.05697 0)
(-6.5495 1.8867 0)
(-17.3214 0.912355 0)
(-15.3653 0.0324031 0)
(-13.5844 -0.137156 0)
(-10.3796 -0.227423 0)
(-7.31418 -0.21563 0)
(-2.64744 -0.291448 0)
(2.58687 -0.249988 0)
(4.14516 -0.314779 0)
(10.9385 -0.201416 0)
(8.9205 -0.669899 0)
(22.0591 -0.547093 0)
(33.4163 0.0986727 0)
(21.1036 0.0255103 0)
(16.2015 0.00871381 0)
(13.7701 0.00463334 0)
(12.2658 0.00308448 0)
(11.2335 0.00227994 0)
(10.4412 0.00183088 0)
(9.82144 0.00152092 0)
(9.30952 0.0012746 0)
(8.89469 0.0011144 0)
(8.53998 0.000956995 0)
(8.24324 0.000878125 0)
(7.98449 0.000764413 0)
(7.76269 0.000727504 0)
(7.56814 0.000641316 0)
(7.39684 0.000628341 0)
(7.24675 0.000562989 0)
(7.11103 0.000562353 0)
(6.99256 0.000514296 0)
(6.88284 0.000519304 0)
(6.78724 0.00048556 0)
(6.69711 0.000492257 0)
(6.61846 0.000469652 0)
(6.54362 0.000476087 0)
(6.47795 0.000461818 0)
(6.41529 0.000467309 0)
(6.35977 0.000458631 0)
(6.30682 0.000462326 0)
(6.25931 0.000455872 0)
(6.21417 0.000456383 0)
(6.17321 0.000449724 0)
(6.1346 0.000447494 0)
(6.09925 0.000442316 0)
(6.06607 0.000441901 0)
(6.03512 0.00044436 0)
(6.00567 0.0004535 0)
(5.977 0.00047168 0)
(5.94844 0.000499577 0)
(5.91863 0.000543278 0)
(5.88665 0.000602791 0)
(5.85048 0.000688146 0)
(5.8086 0.000801127 0)
(5.75816 0.000957173 0)
(5.69624 0.00115874 0)
(5.61972 0.00143296 0)
(5.52276 0.00178155 0)
(5.40128 0.00222963 0)
(5.25266 0.00284104 0)
(5.05161 0.00351381 0)
(4.83614 0.00450712 0)
(4.51713 0.00548673 0)
(4.19505 0.00811826 0)
(3.72732 0.0102526 0)
(3.20612 0.00756763 0)
(2.71105 0.0122225 0)
(2.29688 0.00332398 0)
(1.66479 0.0194105 0)
(1.5691 -0.0215838 0)
(3.08028 0.00973362 0)
(0.984364 0.13444 0)
(-10.3851 0.258312 0)
(-13.2293 -0.073012 0)
(8.7938 -0.89354 0)
(38.044 -0.821728 0)
(30.4733 0.609812 0)
(-9.84265 1.70347 0)
(-15.6036 0.492792 0)
(-12.8234 -0.315277 0)
(-7.69696 -0.152018 0)
(-6.40245 -0.183808 0)
(3.01669 -0.473185 0)
(16.9554 -1.05055 0)
(32.0434 -1.30568 0)
(46.5112 -1.05654 0)
(49.3289 0.150703 0)
(17.5282 2.07157 0)
(-14.158 2.58103 0)
(-16.2736 1.00094 0)
(-15.401 0.00665067 0)
(-13.1222 -0.224709 0)
(-9.75492 -0.328094 0)
(-6.90704 -0.336498 0)
(-1.45485 -0.479272 0)
(3.59751 -0.393435 0)
(5.17285 -0.501079 0)
(12.0085 -0.320644 0)
(10.2266 -0.956072 0)
(22.7861 -0.653511 0)
(38.3912 0.119295 0)
(26.8729 0.0381583 0)
(21.1471 0.0147554 0)
(18.0739 0.00804035 0)
(16.1323 0.00537891 0)
(14.7905 0.00398368 0)
(13.7582 0.00319873 0)
(12.9501 0.00265778 0)
(12.2811 0.00223206 0)
(11.7375 0.0019508 0)
(11.2725 0.00167988 0)
(10.8821 0.00153866 0)
(10.542 0.00134447 0)
(10.2489 0.00127586 0)
(9.99247 0.00112946 0)
(9.76509 0.00110243 0)
(9.56654 0.000991757 0)
(9.38567 0.000986505 0)
(9.22819 0.000905079 0)
(9.08144 0.000910068 0)
(8.95368 0.000852598 0)
(8.83271 0.000860969 0)
(8.72698 0.000822 0)
(8.62614 0.000830245 0)
(8.53735 0.000804954 0)
(8.45258 0.000811649 0)
(8.37713 0.000795328 0)
(8.30526 0.000798911 0)
(8.24048 0.000786065 0)
(8.17905 0.000784435 0)
(8.1231 0.000771385 0)
(8.07039 0.000765595 0)
(8.02192 0.000755329 0)
(7.97641 0.000752889 0)
(7.93382 0.000755288 0)
(7.89332 0.000768507 0)
(7.85396 0.000796321 0)
(7.81502 0.00083981 0)
(7.77482 0.000908692 0)
(7.73235 0.00100319 0)
(7.6852 0.0011394 0)
(7.63157 0.00132056 0)
(7.56813 0.00157185 0)
(7.49136 0.00189788 0)
(7.39757 0.00234193 0)
(7.27989 0.00291303 0)
(7.13265 0.00364023 0)
(6.95416 0.00465188 0)
(6.71126 0.00576304 0)
(6.45124 0.00739096 0)
(6.06714 0.00912038 0)
(5.66743 0.0126442 0)
(5.1207 0.0162559 0)
(4.49622 0.0136319 0)
(3.80191 0.0205341 0)
(3.37131 0.0074178 0)
(2.32447 0.0325778 0)
(2.45439 -0.0330574 0)
(3.71133 0.0349681 0)
(0.547495 0.209722 0)
(-10.7842 0.3473 0)
(-8.78769 -0.121995 0)
(14.3789 -1.31443 0)
(40.5143 -0.989477 0)
(22.4573 1.23675 0)
(-15.5724 2.19499 0)
(-12.2011 0.532253 0)
(-11.3122 -0.433256 0)
(-5.2646 -0.265062 0)
(-2.45648 -0.332641 0)
(8.61279 -0.826122 0)
(21.0141 -1.53283 0)
(35.6026 -1.83415 0)
(49.3995 -1.2606 0)
(42.1361 0.902933 0)
(4.31676 3.30593 0)
(-16.248 3.12672 0)
(-14.9433 1.03858 0)
(-14.7004 -0.0184692 0)
(-12.2223 -0.342561 0)
(-8.6062 -0.467247 0)
(-5.94588 -0.511109 0)
(0.438278 -0.727821 0)
(4.4709 -0.547946 0)
(6.16966 -0.722308 0)
(12.6488 -0.48256 0)
(11.1928 -1.27371 0)
(22.8039 -0.748614 0)
(42.2277 0.137446 0)
(32.687 0.0528425 0)
(26.673 0.0232284 0)
(23.0519 0.0131821 0)
(20.6663 0.00891303 0)
(18.9906 0.00662953 0)
(17.6929 0.00532918 0)
(16.6731 0.00443188 0)
(15.8257 0.00373354 0)
(15.1339 0.0032622 0)
(14.5413 0.00281989 0)
(14.0412 0.00257659 0)
(13.606 0.00226252 0)
(13.2284 0.00213838 0)
(12.8987 0.00190332 0)
(12.6044 0.00184791 0)
(12.3478 0.00167098 0)
(12.1126 0.00165239 0)
(11.908 0.00152222 0)
(11.7164 0.00152169 0)
(11.5494 0.00142928 0)
(11.3909 0.00143554 0)
(11.2518 0.00137198 0)
(11.1191 0.00137901 0)
(11.0017 0.00133645 0)
(10.8896 0.00134145 0)
(10.7893 0.00131233 0)
(10.694 0.00131257 0)
(10.6076 0.00128851 0)
(10.5259 0.00128098 0)
(10.4512 0.00125685 0)
(10.3809 0.00124367 0)
(10.316 0.00122445 0)
(10.2551 0.00121723 0)
(10.198 0.00121781 0)
(10.1437 0.00123487 0)
(10.0911 0.00127412 0)
(10.0395 0.00133723 0)
(9.9868 0.00143868 0)
(9.93199 0.00157936 0)
(9.87231 0.0017834 0)
(9.80575 0.00205654 0)
(9.72856 0.00243731 0)
(9.63667 0.00293429 0)
(9.52582 0.00361162 0)
(9.38836 0.00449491 0)
(9.21683 0.0056077 0)
(9.01066 0.00718835 0)
(8.72918 0.0089234 0)
(8.42742 0.0114429 0)
(7.98235 0.0143225 0)
(7.50922 0.0190242 0)
(6.87169 0.0246528 0)
(6.15576 0.0229841 0)
(5.22823 0.0321832 0)
(4.79806 0.0155022 0)
(3.20429 0.0506508 0)
(3.65717 -0.0467997 0)
(4.36466 0.0829683 0)
(0.240918 0.289225 0)
(-10.1794 0.405984 0)
(-3.12237 -0.378713 0)
(17.133 -1.73648 0)
(39.2067 -1.03188 0)
(13.613 2.06712 0)
(-17.3649 2.6524 0)
(-9.09993 0.577179 0)
(-8.48497 -0.590412 0)
(-2.04906 -0.468027 0)
(3.03221 -0.547844 0)
(12.4624 -1.20283 0)
(23.3167 -2.05843 0)
(36.9107 -2.3972 0)
(48.5733 -1.33794 0)
(30.5635 2.07702 0)
(-5.18703 4.55519 0)
(-15.0524 3.46807 0)
(-13.9139 1.06893 0)
(-13.5038 -0.0525832 0)
(-10.9852 -0.511373 0)
(-6.86641 -0.665697 0)
(-3.61317 -0.752929 0)
(1.983 -1.00666 0)
(5.32649 -0.729894 0)
(7.16575 -0.966797 0)
(12.9815 -0.671281 0)
(11.5499 -1.61634 0)
(22.0184 -0.860901 0)
(44.6095 0.150966 0)
(37.9171 0.0679601 0)
(32.4087 0.0339654 0)
(28.5507 0.0204253 0)
(25.818 0.0140986 0)
(23.8335 0.010581 0)
(22.2727 0.00853573 0)
(21.0338 0.00711554 0)
(19.9974 0.0060218 0)
(19.1444 0.00526303 0)
(18.4113 0.00457309 0)
(17.7885 0.00416686 0)
(17.2457 0.00368198 0)
(16.7717 0.00346203 0)
(16.3575 0.00310238 0)
(15.9857 0.00299129 0)
(15.6611 0.00272212 0)
(15.3625 0.0026713 0)
(15.1018 0.00247331 0)
(14.8573 0.00245383 0)
(14.6432 0.00231233 0)
(14.44 0.00230649 0)
(14.2606 0.00220753 0)
(14.0897 0.00220538 0)
(13.9374 0.00213684 0)
(13.7924 0.00213313 0)
(13.6618 0.00208354 0)
(13.538 0.0020736 0)
(13.4253 0.00203095 0)
(13.3191 0.00201061 0)
(13.2215 0.00196828 0)
(13.13 0.00194124 0)
(13.0452 0.00190711 0)
(12.9658 0.00189029 0)
(12.8912 0.00188563 0)
(12.8205 0.00190485 0)
(12.7522 0.00195615 0)
(12.6857 0.0020421 0)
(12.6186 0.00218301 0)
(12.5499 0.00238126 0)
(12.4766 0.00267104 0)
(12.3965 0.00306232 0)
(12.3054 0.0036108 0)
(12.1989 0.00433225 0)
(12.0722 0.00531587 0)
(11.9172 0.00661799 0)
(11.7246 0.0082421 0)
(11.4946 0.0105962 0)
(11.1809 0.013181 0)
(10.8436 0.0169127 0)
(10.3448 0.0214399 0)
(9.81295 0.0277644 0)
(9.07753 0.0360375 0)
(8.28629 0.0367633 0)
(7.12033 0.0478527 0)
(6.67336 0.0307118 0)
(4.44263 0.0741082 0)
(5.22596 -0.0601503 0)
(5.1782 0.152633 0)
(-0.0905385 0.399691 0)
(-8.5434 0.400239 0)
(1.87967 -0.550993 0)
(19.1007 -2.14068 0)
(36.7547 -0.95553 0)
(5.5207 3.03185 0)
(-15.7752 2.95672 0)
(-6.46481 0.622086 0)
(-3.4207 -0.78574 0)
(2.39862 -0.706904 0)
(7.75245 -0.806135 0)
(15.183 -1.5936 0)
(24.5747 -2.63773 0)
(36.9066 -2.97351 0)
(44.1339 -0.898619 0)
(17.6652 3.65776 0)
(-9.90858 5.607 0)
(-13.0582 3.64367 0)
(-13.011 1.1106 0)
(-12.2352 -0.138435 0)
(-9.6316 -0.739878 0)
(-5.437 -0.936447 0)
(-2.25975 -1.04221 0)
(2.56564 -1.29135 0)
(5.44245 -0.931041 0)
(7.49431 -1.26202 0)
(12.7329 -0.880037 0)
(11.5 -1.96197 0)
(20.4474 -1.03297 0)
(45.4346 0.158121 0)
(41.8445 0.0810134 0)
(37.6696 0.0457767 0)
(34.1295 0.0296119 0)
(31.3292 0.0211621 0)
(29.169 0.0161586 0)
(27.4137 0.0131419 0)
(25.9906 0.0110145 0)
(24.784 0.00938385 0)
(23.7774 0.00821678 0)
(22.9057 0.00718744 0)
(22.1582 0.00653522 0)
(21.5035 0.00581773 0)
(20.9276 0.00544222 0)
(20.4221 0.00491472 0)
(19.9662 0.00470405 0)
(19.566 0.00431164 0)
(19.1972 0.00419595 0)
(18.8729 0.00390738 0)
(18.5691 0.00384443 0)
(18.3007 0.00363655 0)
(18.0467 0.00359984 0)
(17.8205 0.00345168 0)
(17.6058 0.00342529 0)
(17.4128 0.00331893 0)
(17.2298 0.00329358 0)
(17.0638 0.00321246 0)
(16.9071 0.0031803 0)
(16.7638 0.00310807 0)
(16.6291 0.00306331 0)
(16.5051 0.00299203 0)
(16.3892 0.00294056 0)
(16.2817 0.00288221 0)
(16.1812 0.0028476 0)
(16.0868 0.00283142 0)
(15.9977 0.00284836 0)
(15.912 0.00290982 0)
(15.8292 0.00301956 0)
(15.7467 0.00320472 0)
(15.6635 0.00347039 0)
(15.5762 0.00386272 0)
(15.4828 0.00439859 0)
(15.3786 0.00515449 0)
(15.2592 0.00615824 0)
(15.119 0.00752827 0)
(14.9496 0.00936797 0)
(14.7409 0.0116468 0)
(14.4923 0.0150084 0)
(14.1551 0.0186979 0)
(13.7924 0.0240431 0)
(13.2493 0.0307512 0)
(12.6829 0.0393551 0)
(11.8557 0.0510246 0)
(11.0056 0.0559944 0)
(9.65015 0.0683789 0)
(9.12975 0.0568022 0)
(6.29555 0.103945 0)
(7.3024 -0.0611356 0)
(5.6882 0.231699 0)
(0.988219 0.480441 0)
(-4.97987 0.435828 0)
(5.6759 -0.868835 0)
(21.0066 -2.52894 0)
(32.5633 -0.697149 0)
(-0.559377 4.05445 0)
(-12.665 3.11115 0)
(-3.00485 0.321163 0)
(0.697193 -1.10348 0)
(6.61483 -0.964837 0)
(11.3175 -1.06641 0)
(17.3073 -2.00069 0)
(25.3867 -3.22616 0)
(35.4507 -3.40492 0)
(36.2755 -0.0290402 0)
(7.11712 5.37923 0)
(-10.785 6.37956 0)
(-11.4045 3.73137 0)
(-12.0886 1.15498 0)
(-11.0394 -0.269549 0)
(-8.38329 -1.02005 0)
(-4.26332 -1.25523 0)
(-1.28334 -1.35777 0)
(3.00292 -1.58871 0)
(5.4739 -1.17139 0)
(7.6995 -1.5923 0)
(12.0893 -1.12002 0)
(11.3088 -2.31281 0)
(18.4603 -1.2658 0)
(45.0153 0.158731 0)
(43.9726 0.0893549 0)
(41.6022 0.0562698 0)
(39.0054 0.039471 0)
(36.6046 0.0296464 0)
(34.5638 0.0233135 0)
(32.8015 0.0192732 0)
(31.3131 0.0163297 0)
(30.0166 0.0140534 0)
(28.9098 0.0123673 0)
(27.9365 0.010911 0)
(27.0895 0.00992217 0)
(26.3399 0.00890791 0)
(25.6741 0.00830435 0)
(25.0842 0.00756224 0)
(24.5494 0.00719441 0)
(24.0753 0.00664438 0)
(23.6378 0.00641854 0)
(23.2489 0.00601341 0)
(22.8852 0.00587147 0)
(22.5603 0.00557665 0)
(22.2539 0.00548087 0)
(21.9781 0.00526613 0)
(21.7175 0.00519239 0)
(21.4811 0.00503229 0)
(21.2579 0.00496515 0)
(21.0541 0.00483675 0)
(20.8624 0.00476359 0)
(20.6864 0.00464554 0)
(20.5217 0.00455832 0)
(20.3698 0.0044419 0)
(20.2282 0.0043495 0)
(20.0969 0.0042525 0)
(19.9745 0.00418678 0)
(19.8597 0.00414819 0)
(19.7517 0.00415403 0)
(19.6485 0.0042196 0)
(19.5494 0.00435014 0)
(19.4519 0.00458044 0)
(19.3547 0.00491992 0)
(19.2546 0.00542845 0)
(19.1493 0.00613344 0)
(19.034 0.00713557 0)
(18.9042 0.00848085 0)
(18.7539 0.0103227 0)
(18.5742 0.0128246 0)
(18.3554 0.015917 0)
(18.0948 0.0205452 0)
(17.7437 0.0255975 0)
(17.3686 0.0330645 0)
(16.7932 0.0424399 0)
(16.2184 0.0541724 0)
(15.3263 0.070196 0)
(14.4281 0.0812922 0)
(12.9918 0.0945528 0)
(12.3176 0.0967443 0)
(9.13547 0.141075 0)
(9.99494 -0.0348083 0)
(6.12488 0.342316 0)
(3.17154 0.545823 0)
(-4.60158 0.445315 0)
(9.40867 -1.29284 0)
(22.8023 -2.82365 0)
(27.0144 -0.162359 0)
(-4.17762 5.03196 0)
(-7.77316 3.25837 0)
(0.821174 -0.0910791 0)
(4.71489 -1.51412 0)
(10.22 -1.2819 0)
(14.4495 -1.34301 0)
(19.268 -2.39654 0)
(25.6727 -3.78801 0)
(33.914 -3.7037 0)
(27.4994 1.2338 0)
(0.263695 7.05106 0)
(-9.56895 6.89613 0)
(-10.1141 3.82627 0)
(-10.9163 1.22492 0)
(-9.67308 -0.444237 0)
(-7.05983 -1.36291 0)
(-3.0224 -1.62742 0)
(-0.202822 -1.70512 0)
(3.58518 -1.90572 0)
(5.81283 -1.45816 0)
(8.0878 -1.93081 0)
(11.4988 -1.39176 0)
(11.2694 -2.62621 0)
(16.513 -1.61197 0)
(44.1285 0.155126 0)
(44.4385 0.0918715 0)
(43.6609 0.0627701 0)
(42.3171 0.0475319 0)
(40.7599 0.037857 0)
(39.2338 0.0310454 0)
(37.7756 0.026389 0)
(36.4533 0.0228021 0)
(35.2412 0.0199405 0)
(34.1639 0.0177289 0)
(33.1887 0.0158246 0)
(32.3185 0.0144491 0)
(31.5333 0.0131027 0)
(30.8247 0.0122135 0)
(30.187 0.0112231 0)
(29.6036 0.0106439 0)
(29.0789 0.00990759 0)
(28.5927 0.00952438 0)
(28.1547 0.00897863 0)
(27.7447 0.00871799 0)
(27.3738 0.00831525 0)
(27.0246 0.00812711 0)
(26.7068 0.00782626 0)
(26.4071 0.00767646 0)
(26.1329 0.00744315 0)
(25.8747 0.00730809 0)
(25.6374 0.0071119 0)
(25.4148 0.00697258 0)
(25.2097 0.00678672 0)
(25.0181 0.00663231 0)
(24.8413 0.00644831 0)
(24.6767 0.00629191 0)
(24.5242 0.00613572 0)
(24.3821 0.00601954 0)
(24.2492 0.00594209 0)
(24.1245 0.00592264 0)
(24.0058 0.00598109 0)
(23.8925 0.0061244 0)
(23.7819 0.00639571 0)
(23.6729 0.00681079 0)
(23.5622 0.00744471 0)
(23.4474 0.00834015 0)
(23.3237 0.00962512 0)
(23.1865 0.0113699 0)
(23.0299 0.0137728 0)
(22.8446 0.0170627 0)
(22.6215 0.0211354 0)
(22.3567 0.0273128 0)
(22.0015 0.0339583 0)
(21.6277 0.0441577 0)
(21.0385 0.0566225 0)
(20.4755 0.0723384 0)
(19.5665 0.0941068 0)
(18.6284 0.112454 0)
(17.2539 0.127307 0)
(16.3444 0.150222 0)
(13.2377 0.189633 0)
(13.6685 0.0292753 0)
(7.7001 0.472573 0)
(6.87279 0.66379 0)
(-4.41151 0.275889 0)
(13.094 -1.80905 0)
(25.2697 -3.06544 0)
(22.3531 0.494561 0)
(-4.58287 5.86817 0)
(-3.65879 2.76089 0)
(4.84321 -0.608068 0)
(8.61523 -1.95728 0)
(13.7336 -1.6277 0)
(17.4458 -1.61231 0)
(21.0629 -2.7695 0)
(26.2247 -4.31961 0)
(31.1662 -3.52252 0)
(19.3065 2.91514 0)
(-2.93055 8.55612 0)
(-7.52531 7.20948 0)
(-8.80883 3.96003 0)
(-9.42458 1.25127 0)
(-7.97453 -0.67518 0)
(-5.48245 -1.77045 0)
(-1.5784 -2.06246 0)
(1.15727 -2.09664 0)
(4.52531 -2.25452 0)
(6.57703 -1.79548 0)
(8.70005 -2.25835 0)
(11.3085 -1.67899 0)
(11.4506 -2.89681 0)
(14.8652 -2.0121 0)
(43.6281 0.151358 0)
(44.1089 0.0904938 0)
(44.1479 0.0644967 0)
(43.7825 0.0516211 0)
(43.1311 0.0433552 0)
(42.3416 0.0372196 0)
(41.4594 0.0328157 0)
(40.5654 0.0291895 0)
(39.6722 0.0261457 0)
(38.8238 0.0236628 0)
(38.0146 0.0214784 0)
(37.2612 0.0198074 0)
(36.5574 0.0181956 0)
(35.9043 0.0170414 0)
(35.3013 0.0158264 0)
(34.7396 0.0150263 0)
(34.2239 0.0141085 0)
(33.7408 0.0135469 0)
(33.2977 0.0128566 0)
(32.8806 0.012453 0)
(32.4973 0.0119335 0)
(32.1354 0.0116287 0)
(31.8017 0.0112292 0)
(31.4868 0.0109793 0)
(31.1955 0.0106567 0)
(30.9211 0.0104293 0)
(30.667 0.0101456 0)
(30.4285 0.00991459 0)
(30.2076 0.00963798 0)
(30.0012 0.00938994 0)
(29.8099 0.00911395 0)
(29.6318 0.00886817 0)
(29.4663 0.00862997 0)
(29.3119 0.00844168 0)
(29.1674 0.00830669 0)
(29.0316 0.00824555 0)
(28.9026 0.00828347 0)
(28.7794 0.00842934 0)
(28.66 0.00873533 0)
(28.5428 0.00922575 0)
(28.4248 0.00999222 0)
(28.3037 0.0110978 0)
(28.1749 0.0127007 0)
(28.034 0.0149017 0)
(27.8749 0.0179525 0)
(27.6895 0.0221564 0)
(27.4681 0.0273627 0)
(27.2083 0.0353817 0)
(26.8609 0.043804 0)
(26.5015 0.0573636 0)
(25.9267 0.0732931 0)
(25.3898 0.0936731 0)
(24.5278 0.122853 0)
(23.5625 0.148433 0)
(22.3997 0.168049 0)
(21.1662 0.21582 0)
(18.599 0.245693 0)
(18.3891 0.155576 0)
(11.4941 0.598785 0)
(12.8464 0.808384 0)
(1.20168 0.408258 0)
(17.6276 -2.37314 0)
(27.6669 -3.09395 0)
(18.9266 1.33888 0)
(-2.56069 6.55513 0)
(-2.73201 3.26963 0)
(8.73754 -1.07952 0)
(12.6371 -2.43513 0)
(17.3378 -1.99508 0)
(20.2982 -1.85893 0)
(23.0645 -3.11258 0)
(26.4499 -4.58208 0)
(28.6681 -3.20377 0)
(12.9472 4.86522 0)
(-3.07811 9.78699 0)
(-5.09918 7.45241 0)
(-7.30295 4.19123 0)
(-7.88797 1.26963 0)
(-5.78659 -0.981707 0)
(-3.47826 -2.24995 0)
(0.280468 -2.57596 0)
(2.88309 -2.5411 0)
(5.86279 -2.63252 0)
(7.66832 -2.16328 0)
(9.51596 -2.57878 0)
(11.5643 -1.99113 0)
(11.9283 -3.08138 0)
(13.7662 -2.44548 0)
(43.7545 0.150026 0)
(43.9312 0.0889326 0)
(44.0647 0.0637273 0)
(44.0762 0.0521818 0)
(43.952 0.0452103 0)
(43.7266 0.040139 0)
(43.3953 0.0365713 0)
(42.9986 0.0335215 0)
(42.5451 0.0308607 0)