/*--------------------------------*- C++ -*----------------------------------*\
| =========                 |                                                 |
| \\      /  F ield         | OpenFOAM: The Open Source CFD Toolbox           |
|  \\    /   O peration     | Version:  2306                                  |
|   \\  /    A nd           | Website:  www.openfoam.com                      |
|    \\/     M anipulation  |                                                 |
\*---------------------------------------------------------------------------*/
FoamFile
{
    version     2.0;
    format      ascii;
    arch        "LSB;label=32;scalar=64";
    class       volVectorField;
    location    "1900";
    object      wallShearStress;
}
// * * * * * * * * * * * * * * * * * * * * * * * * * * * * * * * * * * * * * //

dimensions      [0 2 -2 0 0 0 0];

internalField   uniform (0 0 0);

boundaryField
{
    inlet
    {
        type            calculated;
        value           uniform (0 0 0);
    }
    outlet
    {
        type            calculated;
        value           uniform (0 0 0);
    }
    lowerWallStartup
    {
        type            symmetryPlane;
    }
    upperWallStartup
    {
        type            symmetryPlane;
    }
    upperWall
    {
        type            calculated;
        value           nonuniform List<vector> 
218
(
(-3.59446 0.0160893 0)
(-1.4428 0.000341869 0)
(-1.08505 6.66085e-05 0)
(-0.918019 3.64967e-05 0)
(-0.815581 1.93092e-05 0)
(-0.746927 2.19795e-05 0)
(-0.692463 8.05487e-06 0)
(-0.651478 2.0003e-05 0)
(-0.615763 2.95578e-06 0)
(-0.589076 1.99799e-05 0)
(-0.563954 7.60986e-07 0)
(-0.545461 2.03437e-05 0)
(-0.526967 8.95271e-07 0)
(-0.513562 1.99506e-05 0)
(-0.499829 2.92318e-06 0)
(-0.48951 1.8184e-05 0)
(-0.479462 6.27474e-06 0)
(-0.470878 1.49272e-05 0)
(-0.46388 1.02871e-05 0)
(-0.456102 1.04901e-05 0)
(-0.451735 1.43121e-05 0)
(-0.444148 5.42243e-06 0)
(-0.442108 1.77693e-05 0)
(-0.434357 3.58425e-07 0)
(-0.434387 2.0195e-05 0)
(-0.426295 -4.10103e-06 0)
(-0.428126 2.12833e-05 0)
(-0.419635 -7.4724e-06 0)
(-0.422993 2.09073e-05 0)
(-0.414157 -9.43019e-06 0)
(-0.41881 1.90897e-05 0)
(-0.409814 -9.80206e-06 0)
(-0.415601 1.5925e-05 0)
(-0.40673 -8.50886e-06 0)
(-0.413558 1.14933e-05 0)
(-0.405138 -5.5448e-06 0)
(-0.413018 5.77098e-06 0)
(-0.405396 -1.04442e-06 0)
(-0.414492 -1.40494e-06 0)
(-0.408075 4.63708e-06 0)
(-0.418741 -1.03534e-05 0)
(-0.414044 1.08197e-05 0)
(-0.426811 -2.14544e-05 0)
(-0.424478 1.62585e-05 0)
(-0.44004 -3.4784e-05 0)
(-0.440843 1.86832e-05 0)
(-0.460059 -4.97174e-05 0)
(-0.464829 1.46416e-05 0)
(-0.488651 -6.50212e-05 0)
(-0.498087 5.51984e-07 0)
(-0.527291 -7.94624e-05 0)
(-0.541947 -2.51877e-05 0)
(-0.576978 -9.15491e-05 0)
(-0.597838 -6.04589e-05 0)
(-0.639315 -0.000100861 0)
(-0.668625 -9.89721e-05 0)
(-0.717308 -0.000121049 0)
(-0.75742 -0.000125866 0)
(-0.812423 -0.000154634 0)
(-0.865026 -0.000148968 0)
(-0.925603 -0.000187176 0)
(-0.991542 -0.000179185 0)
(-1.06318 -0.000259342 0)
(-1.13449 -0.000242035 0)
(-1.19211 -0.000283562 0)
(-1.24526 -0.000295055 0)
(-1.2939 -0.000254408 0)
(-1.33926 -0.000366438 0)
(-1.3907 -0.000247745 0)
(-1.43352 -0.000510867 0)
(-1.4845 -0.00013722 0)
(-1.52778 -0.00069622 0)
(-1.5683 -0.000159101 0)
(-1.61232 -0.000646838 0)
(-1.6447 -0.000342473 0)
(-1.69145 -0.000237296 0)
(-1.72763 -0.00060067 0)
(-1.77183 0.000284831 0)
(-1.81263 -0.00084728 0)
(-1.84158 0.00036379 0)
(-1.88159 -0.000669702 0)
(-1.90265 2.60821e-05 0)
(-1.93832 -0.000341828 0)
(-1.97471 0.000283457 0)
(-2.00469 -0.000617515 0)
(-2.05221 0.00103056 0)
(-2.08165 -0.00110976 0)
(-2.11896 0.00118293 0)
(-2.16098 -0.0012788 -3.24712e-20)
(-2.17704 0.000849627 0)
(-2.22213 -0.00139131 3.3314e-20)
(-2.22961 0.000567246 -3.34829e-20)
(-2.27296 -0.00146233 0)
(-2.26734 0.000302196 -3.42032e-20)
(-2.31187 -0.00152878 0)
(-2.29848 5.42226e-05 0)
(-2.35072 -0.00144159 0)
(-2.3356 -7.86204e-05 0)
(-2.39629 -0.00116025 3.60524e-20)
(-2.38182 -8.85464e-05 0)
(-2.44561 -0.000798508 -3.68285e-20)
(-2.43003 -4.5848e-05 0)
(-2.49118 -0.000474378 -3.77133e-20)
(-2.47065 -1.4699e-05 3.79794e-20)
(-2.52582 -0.000238801 0)
(-2.49777 -3.24828e-05 3.89343e-20)
(-2.54865 -9.25036e-05 0)
(-2.51381 -9.42155e-05 -3.9844e-20)
(-2.56585 3.46063e-05 0)
(-2.5261 -0.00015167 0)
(-2.58164 0.000218189 0)
(-2.53775 -0.000148645 0)
(-2.59382 0.000446274 0)
(-2.54675 -8.20206e-05 0)
(-2.5994 0.000635822 0)
(-2.55317 -3.01408e-06 4.3348e-20)
(-2.60119 0.000704462 -4.38826e-20)
(-2.55803 7.10041e-05 4.40713e-20)
(-2.60323 0.00061913 -4.45894e-20)
(-2.5522 0.000162002 0)
(-2.59865 0.000457008 -4.52007e-20)
(-2.52502 0.000193547 0)
(-2.57316 0.000428602 -4.56626e-20)
(-2.47825 0.000113599 0)
(-2.53301 0.000450163 0)
(-2.41638 9.68022e-05 -4.57838e-20)
(-2.47348 -4.06728e-05 0)
(-2.37186 -0.000100317 -4.56219e-20)
(-2.43394 0.000286178 0)
(-2.35623 -0.0025478 -4.5303e-20)
(-2.56557 0.00488991 0)
(-2.07573 -0.00201721 -4.47608e-20)
(-1.53468 0.0236549 0)
(-3.25406 0.0131653 0)
(-5.85514 -0.0570051 -3.67559e-20)
(-10.0681 -0.0521081 0)
(-14.5348 -0.0344792 -5.1904e-20)
(-14.1004 0.0514086 0)
(-5.64651 0.217383 -1.1088e-19)
(5.65012 0.222748 0)
(7.10531 -0.0347258 -1.01984e-19)
(4.9517 -0.0767992 0)
(1.73467 -0.0769154 0)
(1.13691 -0.00755913 -5.61638e-20)
(-1.03267 -0.0334631 0)
(-1.7369 -0.0133298 -4.83332e-20)
(-2.63151 -0.0102288 0)
(-2.96423 -0.0056895 -4.75926e-20)
(-3.36501 -0.00308355 0)
(-3.42594 -0.00188595 0)
(-3.68406 0.000820179 -4.95951e-20)
(-3.63662 -0.00176502 -4.9921e-20)
(-3.90605 0.00476664 0)
(-3.94691 -0.0030635 -5.09408e-20)
(-4.1037 0.0109049 0)
(-4.24301 0.00270185 -5.18015e-20)
(-4.74738 -0.00540051 0)
(-6.33037 -0.00790426 -4.87203e-20)
(-7.46258 -0.0243264 0)
(-8.80349 -0.0118137 -5.12002e-20)
(-8.82401 -0.00831117 -5.83084e-20)
(-9.43404 -0.0157256 0)
(-8.92815 0.0170324 -7.3972e-20)
(-5.97164 0.0546258 0)
(0.09672 0.0910821 -1.00284e-19)
(2.43466 0.033652 0)
(2.71711 0.0162844 0)
(1.62289 -0.00575886 -8.078e-20)
(-0.467398 -0.0504324 7.34664e-20)
(-1.55583 -0.0175967 -6.42397e-20)
(-2.91193 -0.0209324 6.34598e-20)
(-3.4759 -0.0100103 0)
(-4.25324 -0.00997337 0)
(-4.56783 -0.00562212 0)
(-5.06772 -0.00627963 6.19548e-20)
(-5.26527 -0.00411121 0)
(-5.64017 -0.00538991 0)
(-5.78387 -0.00395925 0)
(-6.09541 -0.00510746 0)
(-6.20133 -0.00437655 0)
(-6.46903 -0.00467717 0)
(-6.56227 -0.00467248 0)
(-6.80261 -0.00444732 -6.72516e-20)
(-6.92049 -0.00411321 6.79748e-20)
(-7.07501 -0.0032159 0)
(-7.13904 -0.00317724 0)
(-7.22859 -0.00399405 -1.82912e-20)
(-7.19569 -0.00384938 1.60526e-20)
(-7.14906 -0.00324098 2.86032e-20)
(-6.91236 -0.00209763 2.54801e-20)
(-6.61886 -0.00216735 4.56699e-20)
(-6.19129 -0.000578713 4.08519e-20)
(-5.80219 -0.000747654 3.63895e-20)
(-5.03852 0.00134799 0)
(-5.20035 0.00317098 5.60903e-20)
(-3.72104 -0.0115547 0)
(-5.10991 0.0247277 -8.24038e-20)
(-4.70481 -0.0106659 0)
(-6.74608 0.0262303 0)
(-16.8203 -0.0493666 0)
(-35.0608 -0.130561 0)
(-40.0006 -0.0666096 0)
(-20.2135 0.0115971 0)
(12.1678 0.0705339 5.05314e-18)
(20.2945 0.12889 0)
(17.7164 0.102424 -5.1795e-18)
(6.71405 0.0415704 2.79612e-18)
(-1.02734 -0.0106358 -2.16551e-18)
(5.95947 0.0415477 0)
(10.055 0.118944 -2.78614e-18)
(3.00033 0.108114 0)
(2.71051 0.072823 0)
(-0.951093 0.0123499 0)
(0.69504 -0.00586643 0)
(2.1042 0.137131 0)
(-0.358317 0.0677381 0)
(-2.18878 -0.143291 -5.16921e-19)
(-1.80756 -0.0764302 0)
)
;
    }
    lowerWall
    {
        type            calculated;
        value           nonuniform List<vector> 
266
(
(-3.59394 -0.0160855 0)
(-1.44209 -0.000354106 0)
(-1.08466 -7.02681e-05 0)
(-0.916892 -3.56608e-05 0)
(-0.815174 -2.34029e-05 0)
(-0.745643 -1.73983e-05 0)
(-0.692115 -1.34432e-05 0)
(-0.650098 -1.22373e-05 0)
(-0.615531 -8.98489e-06 0)
(-0.587701 -9.48622e-06 0)
(-0.563908 -6.64557e-06 0)
(-0.544273 -8.03368e-06 0)
(-0.527114 -5.61661e-06 0)
(-0.512763 -7.26653e-06 0)
(-0.500096 -5.36098e-06 0)
(-0.489287 -6.85149e-06 0)
(-0.479736 -5.49669e-06 0)
(-0.471377 -6.59305e-06 0)
(-0.464026 -5.75616e-06 0)
(-0.457403 -6.4073e-06 0)
(-0.45161 -5.97768e-06 0)
(-0.446247 -6.24648e-06 0)
(-0.441573 -6.08105e-06 0)
(-0.437159 -6.08666e-06 0)
(-0.433311 -6.05857e-06 0)
(-0.429631 -5.91933e-06 0)
(-0.426395 -5.92717e-06 0)
(-0.423274 -5.71544e-06 0)
(-0.420485 -5.67911e-06 0)
(-0.417795 -5.42423e-06 0)
(-0.415363 -5.31006e-06 0)
(-0.413043 -5.04988e-06 0)
(-0.410935 -4.91055e-06 0)
(-0.408947 -4.73564e-06 0)
(-0.407109 -4.70266e-06 0)
(-0.40535 -4.73884e-06 0)
(-0.403626 -4.96693e-06 0)
(-0.401864 -5.34546e-06 0)
(-0.399956 -5.98623e-06 0)
(-0.397802 -6.85595e-06 0)
(-0.395227 -8.10309e-06 0)
(-0.392074 -9.69357e-06 0)
(-0.388081 -1.1889e-05 0)
(-0.382982 -1.45665e-05 0)
(-0.376477 -1.82896e-05 0)
(-0.368018 -2.2808e-05 0)
(-0.357398 -2.86083e-05 0)
(-0.344004 -3.69756e-05 0)
(-0.326327 -4.53227e-05 0)
(-0.307152 -5.99102e-05 0)
(-0.278454 -7.24603e-05 0)
(-0.252808 -0.000330619 0)
(-0.00988621 -5.15994e-05 0)
(-0.193711 0.00610223 0)
(-0.0629543 -3.8817e-05 0)
(-0.0954926 -0.00224447 0)
(-0.0822893 -0.000196813 0)
(0.0269594 -0.00301156 0)
(-0.293051 0.00157768 0)
(-0.445256 -0.000234957 0)
(0.994788 -0.00493407 0)
(3.10704 0.00704128 0)
(0.899522 0.0102245 0)
(-5.72718 0.0329884 0)
(-6.29992 -0.0133611 0)
(0.285417 -0.0509928 0)
(4.05661 -0.0405421 0)
(3.00268 0.0244108 0)
(1.75575 0.00419836 0)
(1.94421 -0.0010499 0)
(2.05248 -0.0166324 0)
(-0.0656963 0.00751491 0)
(-3.69664 0.0258329 0)
(-7.09577 0.0231526 0)
(-9.26942 0.0159975 0)
(-8.26573 -0.03478 0)
(-2.2835 -0.0972925 0)
(3.34898 -0.07864 0)
(3.8884 0.00106206 0)
(3.63147 0.00523694 0)
(2.83631 0.0113055 0)
(1.87295 0.00423401 0)
(0.922246 0.00150395 0)
(-0.124237 0.00286347 0)
(-0.590359 0.00379815 0)
(-1.82637 0.0129388 0)
(-1.937 0.0250129 0)
(-5.40934 -0.179289 -0)
(-0.215866 -43.7021 0)
(-0.206218 -0.211239 0)
(0.0308941 0.0206971 -1.11776e-21)
(-0.150086 0.0620648 9.98878e-22)
(-0.0826825 -0.15697 0)
(-0.13069 -0.381228 0)
(-0.188799 -0.363307 0)
(-0.217925 -0.12752 0)
(-0.202226 0.12052 0)
(-0.149473 0.255909 -4.38921e-21)
(-0.0663685 0.300411 4.49091e-21)
(0.031068 0.332362 -6.23583e-21)
(0.122427 0.250365 6.44353e-21)
(0.196087 0.15516 0)
(0.236714 -0.000700106 -1.76673e-21)
(0.211262 -0.0931887 -1.79278e-21)
(0.195523 -0.256591 -0)
(-0.0323626 -0.458837 0)
(-0.253807 -0.470084 0)
(-0.459733 -0.335641 2.45895e-20)
(-0.70325 -0.267571 -2.01593e-20)
(-0.771744 0.286686 1.02309e-20)
(0.487013 0.667407 -1.63991e-20)
(0.0839726 -0.0672374 0)
(-0.206746 0.0859757 -1.07881e-20)
(-0.433735 0.565175 -7.34251e-21)
(-0.327395 0.781713 0)
(-0.281229 1.01221 0)
(-0.125445 1.0724 0)
(-0.0135446 1.09414 0)
(0.104458 1.0451 0)
(0.189921 0.975989 0)
(0.256216 0.883672 9.09501e-20)
(0.296016 0.783452 1.18368e-20)
(0.311052 0.675835 -1.23214e-19)
(0.302187 0.56789 0)
(0.271106 0.457281 0)
(0.217741 0.343696 0)
(0.141139 0.222763 0)
(0.0412582 0.0956327 -0)
(-0.0753462 -0.0291017 9.2943e-20)
(-0.195113 -0.134184 -1.02231e-19)
(-0.302904 -0.203904 -0)
(-0.391872 -0.238053 0)
(-0.465667 -0.243523 0)
(-0.534585 -0.224945 -1.5351e-19)
(-0.594321 -0.186437 1.71885e-19)
(-0.587136 -0.118528 0)
(-0.832247 -1.39836 0)
(-6.54712 0.026267 -1.56546e-22)
(1.39494 -0.0427763 0)
(11.4485 -0.0401696 -2.93506e-22)
(10.999 0.00920422 -0)
(7.05631 0.0308323 0)
(-0.481386 0.0409219 0)
(-5.13446 0.0146386 0)
(-5.79486 -0.00615528 0)
(-4.76702 -0.00530264 -5.48985e-23)
(-2.68975 -0.00850637 0)
(-0.961057 0.00724466 0)
(1.30699 -0.0137989 0)
(0.438863 0.060707 0)
(-7.81434 0.0788704 0)
(-5.30491 -0.0122287 0)
(0.886686 -0.0139016 0)
(-0.180592 -0.00199996 0)
(-0.222314 0.0229701 0)
(-6.01193 0.0390463 -0)
(-7.22777 -0.00708086 6.51317e-22)
(-8.65323 -0.0569975 -0)
(-10.5394 -0.0709669 9.30582e-22)
(0.19453 -0.0912196 0)
(13.8791 -0.0654148 7.33135e-22)
(15.4359 -0.0347348 0)
(1.14487 0.126704 1.33986e-22)
(-2.80518 0.0592852 0)
(-14.5775 0.112138 0)
(-24.6246 -0.0490685 0)
(-4.12562 -0.1706 1.49496e-21)
(12.1608 0.129251 1.00329e-21)
(-6.57803 0.176683 1.04217e-21)
(-8.08607 0.00152776 1.33696e-21)
(-4.79376 -0.0145765 1.40914e-21)
(-2.81504 -0.0141098 0)
(-2.93725 0.0136367 0)
(-3.9813 0.0171171 1.48085e-21)
(-4.73727 0.025549 1.54158e-21)
(-4.80153 0.0181259 1.624e-21)
(-4.41922 0.00619926 1.74084e-21)
(-3.47379 -0.00251928 1.87493e-21)
(-2.53732 -0.00496722 2.00998e-21)
(-1.5706 -0.00361891 0)
(-0.755532 -0.00524591 2.25123e-21)
(1894.73 -142.429 7.82305e-17)
(0.789703 -0.00627625 2.43706e-21)
(1.56212 -0.00634293 2.50717e-21)
(2.323 -0.00811536 2.5598e-21)
(3.15947 -0.00927222 2.59376e-21)
(4.06005 -0.0105344 0)
(5.075 -0.0123372 2.5987e-21)
(6.20711 -0.0123215 2.56754e-21)
(7.43814 -0.01348 2.51045e-21)
(8.72866 -0.0117574 2.43234e-21)
(10.0008 -0.0117824 2.3319e-21)
(11.2091 -0.00955352 2.21436e-21)
(12.2817 -0.00852104 0)
(13.1793 -0.00561135 1.93475e-21)
(13.8005 -0.00303203 0)
(14.1087 -0.000260029 0)
(14.0827 0.00166996 0)
(13.8019 0.00263809 -1.35793e-21)
(13.3346 0.00316334 -0)
(12.7724 0.00283521 0)
(12.1615 0.00296534 0)
(11.5125 0.00289783 -0)
(10.8191 0.00333284 0)
(10.0583 0.00361953 0)
(9.24186 0.00409107 -7.08658e-22)
(8.35326 0.0043551 -0)
(7.42329 0.00464598 0)
(6.45159 0.00444263 0)
(5.50974 0.00367209 -5.30154e-22)
(4.67433 0.002148 -0)
(4.04986 0.00104869 0)
(3.59955 0.00194204 -0)
(3.14678 0.00394997 0)
(2.51908 0.00471372 -0)
(1.82625 0.00152557 0)
(1.41005 -0.00246512 -4.34893e-22)
(1.51996 -0.00509196 -0)
(1.98522 -0.000933526 0)
(2.4767 -0.00291876 -3.75203e-22)
(3.0463 0.00103075 0)
(3.56186 0.00678647 -3.03527e-22)
(3.63863 0.00901753 0)
(3.396 0.00674335 0)
(3.15593 0.00742367 2.15352e-22)
(2.73235 0.0103911 0)
(1.81642 0.00776695 -1.63469e-22)
(0.493964 0.00379803 -0)
(-0.652631 0.00221895 -0)
(-0.431656 -0.0061598 0)
(-0.523515 0.451757 0)
(0.71028 -0.0142132 0)
(0.194244 -0.00949669 -1.00128e-22)
(-2.02324 0.00775646 0)
(-6.15248 0.0340885 0)
(-11.2006 0.0370153 -1.19645e-20)
(-14.9278 0.0438618 -5.38428e-20)
(-14.6539 0.0113989 0)
(-9.84098 -0.0205333 0)
(-4.03591 -0.0271088 0)
(-0.44552 -0.0153284 0)
(1.47033 -0.0106837 -0)
(2.78975 -0.00807813 3.57185e-19)
(2.71325 -0.00184383 -0)
(1.09874 0.00394846 3.68603e-19)
(0.248837 0.00254345 -1.56408e-20)
(2.10129 -0.00948406 0)
(9.17012 -0.0121872 0)
(-7.39316 0.165565 0)
(-52.551 0.266794 -5.55397e-18)
(-16.6607 -0.0851048 9.78521e-18)
(22.1315 -0.163755 0)
(-3.43697 0.149683 -6.49344e-18)
(-28.0217 0.213883 0)
(-4.61804 0.0436387 -2.92526e-17)
(22.0967 -0.168259 -0)
(25.0662 -0.308228 0)
(17.9002 -0.237002 0)
(5.5423 -0.0771137 0)
(-1.43386 0.00492981 0)
(-3.20761 0.0239306 2.74213e-18)
(-2.5625 0.00941265 1.04831e-18)
(-0.816469 -0.00676352 -0)
(-0.651889 -0.00275592 1.49673e-18)
(-1.03228 0.00201696 0)
(-2.32578 0.0102869 0)
)
;
    }
    front
    {
        type            empty;
    }
    back
    {
        type            empty;
    }
}


// ************************************************************************* //
