0.0508 	-148.418 	45.5801 	-0.188923 	0 	-0.162968 	-0.0817979 	0 	0.163704 	0 	-0.000735634
