0 	60.3586 	0 	0 	0 	-0.000717692 	-0.785473 	-5.14681e-25 	0.000453585 	2.72008e-23 	0.000264107
1.15767e-05 	60.3582 	0.6155 	-0.000388944 	-1.7425e-22 	-0.00195572 	-0.813309 	-1.12417e-23 	0.00191295 	-9.33916e-23 	4.27713e-05
2.48888e-05 	60.3572 	1.32623 	-0.00160155 	2.23698e-22 	-0.0040367 	-0.841326 	1.89851e-23 	0.00393114 	5.72364e-22 	0.000105554
4.02163e-05 	60.3559 	2.1674 	-0.00404618 	-1.49628e-21 	-0.00656017 	-0.860828 	-1.54613e-22 	0.00647732 	4.70642e-22 	8.2846e-05
5.78882e-05 	60.3527 	3.10275 	-0.00838251 	-4.3612e-22 	-0.0106433 	-0.879891 	-4.34537e-24 	0.0107174 	-1.43884e-21 	-7.40283e-05
7.82917e-05 	60.3441 	3.97752 	-0.0152299 	1.45306e-21 	-0.0201737 	-0.953154 	1.41745e-22 	0.0204426 	1.37428e-21 	-0.000268919
0.000101883 	60.3237 	4.63764 	-0.0244649 	-1.88913e-21 	-0.0419751 	-1.08372 	-2.33622e-21 	0.0422114 	4.8931e-22 	-0.000236296
0.000129201 	60.2849 	5.08652 	-0.0358021 	1.28758e-22 	-0.0824642 	-1.21881 	3.92238e-21 	0.0824093 	3.08719e-21 	5.49283e-05
0.000160882 	60.2228 	5.40763 	-0.0494829 	-3.32846e-21 	-0.145685 	-1.35615 	-2.84915e-20 	0.145421 	6.58647e-21 	0.000263988
0.000197681 	60.1345 	5.6614 	-0.0659288 	-2.50856e-21 	-0.234457 	-1.51775 	-4.00981e-21 	0.234223 	-2.33922e-20 	0.000234025
0.000240493 	60.0171 	5.88009 	-0.0855494 	3.38194e-21 	-0.351807 	-1.71488 	4.03723e-20 	0.351692 	-3.30387e-20 	0.00011467
0.000290379 	59.8662 	6.08131 	-0.108816 	5.66812e-21 	-0.501703 	-1.95406 	1.45397e-19 	0.501682 	1.48098e-20 	2.06691e-05
0.000348605 	59.6764 	6.27575 	-0.13632 	-2.40321e-22 	-0.689102 	-2.24198 	-5.31418e-20 	0.689145 	6.09174e-20 	-4.21458e-05
0.000416677 	59.4412 	6.47089 	-0.168788 	-4.46555e-21 	-0.919757 	-2.58679 	-1.5062e-19 	0.919855 	3.9319e-20 	-9.78798e-05
0.000496392 	59.1533 	6.67269 	-0.207099 	-5.93516e-21 	-1.19998 	-2.99859 	-3.58188e-19 	1.20014 	-1.21411e-20 	-0.000161442
0.000589899 	58.8046 	6.88666 	-0.252305 	-4.97897e-22 	-1.53631 	-3.48978 	3.40919e-20 	1.53655 	-7.8528e-20 	-0.000240128
0.000699764 	58.3869 	7.11841 	-0.305663 	3.80024e-21 	-1.93505 	-4.07539 	2.24422e-19 	1.93539 	-8.01791e-21 	-0.000338722
0.000829066 	57.8918 	7.37421 	-0.368668 	-1.02365e-22 	-2.40139 	-4.7736 	7.538e-21 	2.40185 	-1.22668e-19 	-0.000457653
0.000981493 	57.3122 	7.66154 	-0.443092 	1.90559e-20 	-2.93827 	-5.60612 	1.97345e-18 	2.93887 	-1.54055e-19 	-0.000596823
0.00116147 	56.643 	7.98971 	-0.531035 	4.50772e-22 	-3.54468 	-6.59869 	-1.71552e-20 	3.54544 	3.31671e-19 	-0.000758171
0.00137434 	55.8823 	8.37074 	-0.634965 	-1.6171e-20 	-4.21345 	-7.78117 	-1.79415e-18 	4.21439 	-4.45658e-19 	-0.000933898
0.00162648 	55.0336 	8.82054 	-0.757761 	6.85576e-20 	-4.92843 	-9.18709 	9.26654e-18 	4.92941 	-1.49944e-18 	-0.000984852
0.00192562 	54.1073 	9.36066 	-0.902717 	3.86027e-20 	-5.66132 	-10.8524 	5.85958e-18 	5.66187 	3.10738e-19 	-0.000551945
0.00228106 	53.1211 	10.0208 	-1.07351 	-3.89082e-20 	-6.36811 	-12.8104 	-4.37296e-18 	6.36781 	6.38364e-19 	0.000296744
0.00270401 	52.1663 	10.7814 	-1.25965 	1.5317e-20 	-6.9487 	-14.9048 	4.78441e-18 	6.94923 	-1.23494e-18 	-0.00052972
0.00308362 	51.3537 	11.5649 	-1.43904 	2.37018e-20 	-7.33132 	-16.8714 	6.97158e-18 	7.3333 	3.54185e-19 	-0.00197494
0.00344943 	50.6781 	12.3487 	-1.60621 	-9.47581e-20 	-7.54366 	-18.6543 	-3.21582e-17 	7.54552 	3.85362e-18 	-0.0018663
0.0038084 	50.0882 	13.1577 	-1.76667 	4.67971e-20 	-7.62429 	-20.2989 	2.3761e-17 	7.62575 	-3.99715e-18 	-0.00146498
0.00416715 	49.5563 	14.0074 	-1.92305 	-4.87136e-20 	-7.59357 	-21.8185 	-2.55523e-17 	7.59485 	5.34053e-18 	-0.001275
0.00453208 	49.0605 	14.9146 	-2.07757 	-8.81768e-20 	-7.46233 	-23.2175 	-3.84373e-17 	7.46342 	4.06226e-18 	-0.00108848
0.00490948 	48.5826 	15.8981 	-2.23197 	5.08839e-20 	-7.23422 	-24.4867 	2.02065e-17 	7.2352 	-3.76579e-18 	-0.00097698
0.00530563 	48.1045 	16.9789 	-2.38751 	-1.01213e-20 	-6.90814 	-25.5988 	-7.55639e-18 	6.90921 	5.70983e-19 	-0.00106849
0.00572698 	47.6062 	18.1797 	-2.54482 	1.0948e-19 	-6.48356 	-26.5171 	4.60572e-17 	6.48462 	-6.28927e-18 	-0.001062
0.00618017 	47.0656 	19.5245 	-2.70369 	-4.41628e-20 	-5.95593 	-27.1721 	-1.53151e-17 	5.95703 	3.50315e-18 	-0.00109278
0.00667222 	46.4826 	20.9755 	-2.85675 	-4.33827e-20 	-5.34834 	-27.4722 	-1.39189e-17 	5.3496 	1.17428e-18 	-0.00125563
0.0071306 	45.877 	22.4378 	-2.9936 	4.39616e-20 	-4.71521 	-27.3791 	1.74207e-17 	4.71638 	-2.41484e-18 	-0.0011758
0.00758188 	45.2435 	23.8811 	-3.11294 	-4.03565e-20 	-4.08343 	-26.909 	-2.09664e-17 	4.08439 	3.23459e-18 	-0.000961378
0.00802708 	44.5637 	25.3127 	-3.21694 	-1.34926e-20 	-3.46175 	-26.0903 	-8.2218e-18 	3.46256 	3.59149e-19 	-0.000813449
0.00846704 	43.8295 	26.7192 	-3.30592 	2.76138e-20 	-2.86451 	-24.9553 	1.36028e-17 	2.86522 	-2.19928e-18 	-0.000716065
0.00890252 	43.0345 	28.0866 	-3.38031 	4.08261e-20 	-2.30409 	-23.5461 	2.20315e-17 	2.30475 	-2.42516e-18 	-0.00065819
0.00933414 	42.1742 	29.4003 	-3.44073 	-1.2371e-22 	-1.79086 	-21.9135 	2.21871e-19 	1.79147 	4.40716e-19 	-0.000607354
0.00976245 	41.2461 	30.6463 	-3.48801 	-1.44081e-20 	-1.3327 	-20.1164 	-7.40103e-18 	1.33325 	8.45242e-19 	-0.000556174
0.0101879 	40.2499 	31.8111 	-3.52315 	0 	-0.934711 	-18.2212 	-3.5672e-21 	0.935228 	-1.1589e-19 	-0.000516629
0.0106109 	39.188 	32.8831 	-3.54739 	0 	-0.598917 	-16.2988 	-1.61618e-20 	0.599393 	2.03052e-20 	-0.000475811
0.0110319 	38.0649 	33.8527 	-3.56213 	-2.69395e-21 	-0.324022 	-14.4209 	-2.03496e-18 	0.324452 	1.70144e-19 	-0.000429984
0.011451 	36.8875 	34.7137 	-3.56888 	5.7219e-21 	-0.105495 	-12.6549 	4.10325e-18 	0.105879 	-4.51832e-19 	-0.000384246
0.0118686 	35.6645 	35.4645 	-3.56923 	2.75208e-21 	0.0640206 	-11.0561 	1.98867e-18 	-0.0637119 	-1.22421e-19 	-0.000308682
0.0122849 	34.4061 	36.1081 	-3.56469 	-5.66379e-21 	0.193731 	-9.66219 	-4.15022e-18 	-0.193531 	4.31217e-19 	-0.0001993
0.0127 	33.1533 	36.6409 	-3.55683 	5.32498e-22 	0.291804 	-8.50791 	6.31208e-19 	-0.291651 	-7.60757e-20 	-0.000152891
0.0130748 	31.9283 	37.0761 	-3.547 	-3.46266e-21 	0.366745 	-7.5867 	-3.78146e-18 	-0.366538 	4.70699e-19 	-0.000207344
0.0134728 	30.6686 	37.4525 	-3.53544 	-1.34209e-20 	0.429671 	-6.83008 	-1.57408e-17 	-0.429404 	1.47676e-18 	-0.000267279
0.0138957 	29.3264 	37.7908 	-3.52203 	-4.69817e-21 	0.488078 	-6.19626 	-6.42331e-18 	-0.4878 	2.93619e-19 	-0.000278826
0.0143452 	27.9025 	38.0951 	-3.50689 	2.09868e-20 	0.545342 	-5.68273 	2.78459e-17 	-0.545062 	-2.68327e-18 	-0.000279943
0.0148233 	26.398 	38.3702 	-3.49012 	7.9178e-21 	0.604376 	-5.28007 	1.0123e-17 	-0.604083 	-7.51604e-19 	-0.000293254
0.0153318 	24.8138 	38.6212 	-3.47167 	1.24207e-21 	0.666961 	-4.9701 	2.81205e-18 	-0.666662 	-1.2503e-19 	-0.000299662
0.0158732 	23.1513 	38.8534 	-3.45145 	2.79307e-22 	0.735015 	-4.73879 	-1.47316e-19 	-0.734708 	9.88855e-20 	-0.000306841
0.0164499 	21.4116 	39.0706 	-3.42931 	-9.31222e-21 	0.810202 	-4.57375 	-1.57856e-17 	-0.809875 	1.3586e-18 	-0.000327437
0.0170647 	19.5958 	39.2763 	-3.40506 	3.45663e-21 	0.893211 	-4.46014 	1.0787e-17 	-0.89287 	-1.23481e-18 	-0.000340894
0.0177206 	17.7048 	39.4732 	-3.37851 	2.3131e-20 	0.984522 	-4.38628 	6.56832e-17 	-0.984162 	-5.56081e-18 	-0.000359533
0.018421 	15.7393 	39.6634 	-3.34943 	9.11599e-21 	1.08428 	-4.34183 	3.31512e-17 	-1.08381 	-2.33697e-18 	-0.000462201
0.0191698 	13.7 	39.8485 	-3.3176 	-2.03187e-20 	1.19255 	-4.31714 	-5.51975e-17 	-1.19209 	4.82604e-18 	-0.000467445
0.0199712 	11.5117 	40.0362 	-3.28144 	-1.24247e-20 	1.3136 	-4.30537 	-4.33107e-17 	-1.31331 	3.47191e-18 	-0.000289134
0.0209503 	9.0952 	40.2328 	-3.23899 	-7.71519e-21 	1.45158 	-4.29951 	-4.96913e-17 	-1.4513 	3.87637e-18 	-0.000278712
0.0220143 	6.51723 	40.4324 	-3.19074 	-2.49785e-21 	1.60241 	-4.29304 	-3.99535e-17 	-1.602 	3.04623e-18 	-0.000402112
0.0231718 	3.84836 	40.6299 	-3.1374 	3.77913e-21 	1.76124 	-4.28155 	3.94311e-17 	-1.76078 	-3.20263e-18 	-0.000454763
0.0244326 	1.09493 	40.8256 	-3.0786 	2.42501e-21 	1.92628 	-4.25969 	3.9505e-17 	-1.9258 	-3.05385e-18 	-0.000484449
0.0258078 	-1.73538 	41.0195 	-3.01395 	2.26714e-21 	2.09546 	-4.22261 	2.33017e-19 	-2.09495 	1.17231e-19 	-0.000511001
0.0273099 	-4.63314 	41.2115 	-2.94307 	1.05221e-22 	2.26628 	-4.16583 	2.15842e-19 	-2.26575 	-4.34117e-20 	-0.000531389
0.0289533 	-7.58722 	41.4012 	-2.8656 	6.55508e-21 	2.43578 	-4.08521 	-7.74269e-17 	-2.43524 	5.16533e-18 	-0.000537095
0.0307544 	-10.5847 	41.5883 	-2.78115 	-8.77061e-21 	2.60046 	-3.97692 	7.39538e-17 	-2.59994 	-4.7477e-18 	-0.000528824
0.0327322 	-13.6107 	41.7721 	-2.68935 	2.64981e-21 	2.75634 	-3.8375 	3.64227e-18 	-2.75582 	-7.58495e-19 	-0.000513701
0.0349085 	-16.6486 	41.9518 	-2.58986 	1.70917e-20 	2.89889 	-3.66397 	-1.30805e-16 	-2.89839 	8.15324e-18 	-0.000500479
0.0373085 	-19.6801 	42.1265 	-2.48232 	-7.80209e-21 	3.02317 	-3.45392 	6.95531e-17 	-3.02268 	-4.12347e-18 	-0.000493424
0.0399613 	-22.685 	42.2947 	-2.36641 	-6.49549e-21 	3.12385 	-3.20553 	5.3436e-17 	-3.12335 	-3.13646e-18 	-0.000502931
0.0429011 	-25.6424 	42.4549 	-2.24181 	-7.30527e-22 	3.19522 	-2.91757 	-3.54051e-19 	-3.19474 	-1.21068e-19 	-0.000484299
0.0461675 	-28.5305 	42.6049 	-2.10819 	7.33687e-21 	3.23092 	-2.58971 	-4.56798e-17 	-3.23037 	2.11048e-18 	-0.000548922
0.0498071 	-31.3338 	42.7419 	-1.96524 	-8.68529e-21 	3.21955 	-2.22017 	5.17409e-17 	-3.21896 	-2.08646e-18 	-0.000597402
0.0538744 	-34.0367 	42.8626 	-1.81255 	-7.76041e-21 	3.14671 	-1.80818 	4.81712e-17 	-3.14615 	-2.23004e-18 	-0.000551221
0.0584337 	-36.5677 	42.9604 	-1.65293 	4.03996e-21 	3.01775 	-1.3734 	-2.58226e-17 	-3.01723 	1.25622e-18 	-0.000511473
0.0631441 	-38.8196 	43.0279 	-1.49323 	-2.06067e-22 	2.8544 	-0.944097 	1.63717e-18 	-2.85392 	-5.77475e-20 	-0.000479884
0.0680914 	-40.8036 	43.0618 	-1.33444 	4.65875e-21 	2.65628 	-0.518882 	-2.34042e-17 	-2.65572 	7.97612e-19 	-0.000559404
0.0732937 	-42.5748 	43.0567 	-1.17539 	2.65047e-21 	2.41488 	-0.0902021 	-9.50232e-18 	-2.41451 	2.3771e-19 	-0.000365182
0.0787704 	-44.1499 	43.0019 	-1.01498 	1.31679e-21 	2.12899 	0.346556 	-5.51097e-18 	-2.12856 	1.30097e-19 	-0.000423645
0.0845614 	-45.5594 	42.8782 	-0.8537 	-2.10928e-21 	1.79742 	0.78734 	5.80497e-18 	-1.79711 	-1.10877e-19 	-0.000307625
0.0903998 	-46.7042 	42.6746 	-0.704876 	-1.21213e-20 	1.46116 	1.18727 	1.75968e-17 	-1.46076 	-2.99054e-19 	-0.000406154
0.0945097 	-47.487 	42.4238 	-0.588166 	5.59873e-21 	1.18299 	1.50925 	-8.93609e-19 	-1.18245 	-5.45562e-20 	-0.000546401
0.0979158 	-48.0535 	42.1291 	-0.495408 	7.02857e-21 	0.953075 	1.78535 	-9.77586e-18 	-0.952753 	1.72699e-19 	-0.00032149
0.100739 	-48.4771 	41.7777 	-0.417874 	-2.75247e-21 	0.760693 	2.02649 	2.92082e-18 	-0.760393 	-1.25652e-20 	-0.00029978
0.103078 	-48.7989 	41.3637 	-0.352419 	-1.47242e-21 	0.603922 	2.24049 	-2.85763e-19 	-0.603772 	9.64158e-21 	-0.000149709
