0 	-103.134 	0 	0 	0 	-0.000315971 	1.56595 	-3.0002e-24 	-2.08821e-05 	1.2053e-22 	0.000336853
1.15903e-05 	-103.135 	-1.17042 	-0.000107559 	-1.2068e-22 	-0.00123007 	1.45293 	-7.89155e-24 	0.00109538 	7.18552e-22 	0.000134686
2.51959e-05 	-103.136 	-2.38981 	-0.000868886 	-1.32484e-21 	-0.0027896 	1.32135 	-1.09841e-22 	0.00265542 	-2.0447e-21 	0.000134181
4.11938e-05 	-103.137 	-3.66723 	-0.00264059 	4.85334e-21 	-0.00479619 	1.15586 	3.9817e-22 	0.00470943 	-2.08973e-21 	8.67536e-05
6.0036e-05 	-103.139 	-4.88789 	-0.00611906 	2.04344e-21 	-0.00827384 	0.971836 	7.16057e-23 	0.00835467 	9.57115e-22 	-8.08303e-05
8.22644e-05 	-103.147 	-5.82671 	-0.0122089 	2.99362e-21 	-0.0169254 	0.820493 	1.65769e-21 	0.0172288 	-4.68829e-21 	-0.0003034
0.00010853 	-103.167 	-6.36068 	-0.0210065 	8.9474e-21 	-0.0379975 	0.672198 	4.10537e-21 	0.038305 	1.09965e-20 	-0.000307556
0.000139617 	-103.207 	-6.59627 	-0.0321973 	-4.63635e-21 	-0.0790177 	0.459989 	-1.28863e-20 	0.0790217 	1.90017e-20 	-4.04772e-06
0.000176466 	-103.272 	-6.67996 	-0.0460245 	-4.77597e-21 	-0.144971 	0.191921 	-6.5499e-21 	0.144714 	-2.58831e-20 	0.000256739
0.000220213 	-103.366 	-6.68633 	-0.063019 	5.21978e-21 	-0.239375 	-0.115319 	3.31981e-20 	0.23913 	-1.46934e-20 	0.000245475
0.000272229 	-103.493 	-6.64549 	-0.0837385 	6.43455e-22 	-0.366076 	-0.467056 	-5.70782e-21 	0.365963 	3.21098e-20 	0.000113513
0.000334164 	-103.658 	-6.56926 	-0.108836 	-2.79864e-21 	-0.530112 	-0.875336 	-3.07001e-20 	0.530104 	-4.93601e-20 	7.27922e-06
0.000408017 	-103.868 	-6.46161 	-0.139135 	1.09242e-20 	-0.737718 	-1.35388 	2.10605e-19 	0.737779 	8.70317e-20 	-6.12264e-05
0.000496201 	-104.131 	-6.32252 	-0.175665 	-1.86985e-20 	-0.995981 	-1.91804 	-4.8268e-19 	0.996104 	1.75559e-19 	-0.000123097
0.000601635 	-104.456 	-6.14933 	-0.219691 	-1.84041e-20 	-1.31238 	-2.58547 	-3.75392e-19 	1.31257 	-2.52591e-19 	-0.000194208
0.000727854 	-104.851 	-5.93716 	-0.272752 	1.7795e-20 	-1.69416 	-3.37675 	5.10657e-19 	1.69444 	-1.81972e-19 	-0.000279336
0.000879141 	-105.325 	-5.67876 	-0.336729 	6.57617e-21 	-2.14741 	-4.31588 	1.91571e-19 	2.14779 	-9.81439e-21 	-0.000380701
0.00106069 	-105.884 	-5.36391 	-0.413917 	2.21271e-20 	-2.67569 	-5.43059 	6.40783e-19 	2.67618 	4.00576e-19 	-0.000497818
0.00127878 	-106.532 	-4.97852 	-0.50713 	-4.28365e-20 	-3.27826 	-6.75284 	-1.14777e-18 	3.27885 	-3.67004e-19 	-0.000593203
0.00154107 	-107.266 	-4.50298 	-0.619828 	6.41277e-20 	-3.94809 	-8.31943 	1.29434e-18 	3.94861 	-7.93823e-19 	-0.000519391
0.00185682 	-108.076 	-3.9096 	-0.7563 	8.64315e-20 	-4.66925 	-10.1704 	2.0168e-18 	4.66964 	1.59352e-19 	-0.000396204
0.0022373 	-108.946 	-3.15846 	-0.922023 	8.96691e-20 	-5.41457 	-12.3412 	3.08712e-19 	5.41512 	2.43843e-18 	-0.000545673
0.00269619 	-109.853 	-2.19154 	-1.12406 	-1.85059e-19 	-6.15509 	-14.8748 	-1.51674e-18 	6.15537 	8.87457e-19 	-0.000271737
0.00325013 	-110.764 	-0.923475 	-1.3716 	-1.37473e-19 	-6.85326 	-17.7895 	-1.92252e-18 	6.85249 	-1.72234e-18 	0.00076578
0.00391934 	-111.567 	0.610392 	-1.64904 	6.06913e-20 	-7.40469 	-20.7387 	2.61092e-18 	7.40492 	-9.93398e-19 	-0.000225631
0.00447964 	-112.149 	2.19546 	-1.9155 	-5.09674e-20 	-7.74954 	-23.2467 	1.7859e-20 	7.75141 	-1.83171e-18 	-0.00187047
0.00498729 	-112.541 	3.73572 	-2.15836 	2.13309e-19 	-7.94179 	-25.263 	-7.20372e-18 	7.94328 	4.77351e-18 	-0.00148907
0.00545308 	-112.809 	5.26539 	-2.3866 	-1.35265e-19 	-8.03107 	-26.904 	7.98582e-18 	8.03187 	-1.00918e-19 	-0.000794326
0.0058867 	-112.979 	6.79449 	-2.60393 	-1.42524e-19 	-8.04121 	-28.2263 	5.44014e-18 	8.04166 	-4.06164e-18 	-0.00044321
0.00629695 	-113.071 	8.33782 	-2.8138 	1.45389e-22 	-7.98346 	-29.2699 	3.4387e-18 	7.98371 	-1.8312e-18 	-0.000247006
0.00669189 	-113.094 	9.91461 	-3.01946 	2.005e-21 	-7.86181 	-30.0594 	1.52153e-19 	7.86191 	-5.71525e-20 	-9.0458e-05
0.00707907 	-113.055 	11.5477 	-3.22396 	-4.26279e-21 	-7.67715 	-30.6117 	3.47738e-18 	7.67714 	-2.34158e-18 	3.34169e-06
0.00746565 	-112.955 	13.2633 	-3.43006 	2.25739e-19 	-7.42434 	-30.9206 	-2.44491e-17 	7.4241 	2.18381e-18 	0.00024004
0.00785851 	-112.792 	15.0909 	-3.64019 	3.83064e-19 	-7.09324 	-30.9562 	-4.07805e-17 	7.09263 	1.21849e-17 	0.000609831
0.00826444 	-112.57 	16.9963 	-3.84919 	-7.16194e-20 	-6.68728 	-30.6921 	5.01845e-18 	6.68673 	6.19756e-18 	0.00055869
0.00863691 	-112.307 	18.8847 	-4.04622 	-5.46951e-19 	-6.2313 	-30.1503 	6.80032e-17 	6.23118 	-1.27059e-17 	0.00011228
0.00899519 	-112.015 	20.728 	-4.22867 	-3.06941e-19 	-5.73801 	-29.3427 	4.24233e-17 	5.73806 	-1.57359e-17 	-4.79347e-05
0.0093413 	-111.704 	22.5396 	-4.39823 	3.09699e-19 	-5.21231 	-28.2755 	-4.13944e-17 	5.21219 	4.13962e-18 	0.000120951
0.00967694 	-111.38 	24.311 	-4.55433 	2.32796e-19 	-4.6664 	-26.982 	-3.46475e-17 	4.66623 	9.64521e-18 	0.000170712
0.0100036 	-111.048 	26.0315 	-4.69632 	-7.94152e-20 	-4.10926 	-25.483 	1.28296e-17 	4.10917 	1.76101e-19 	9.20576e-05
0.0103226 	-110.715 	27.6899 	-4.82358 	-7.76658e-20 	-3.55151 	-23.807 	1.26729e-17 	3.55145 	-3.44537e-18 	6.00576e-05
0.0106349 	-110.385 	29.274 	-4.9356 	7.95226e-20 	-3.00396 	-21.9888 	-1.2754e-17 	3.00392 	1.18286e-18 	4.14038e-05
0.0109416 	-110.063 	30.7718 	-5.03204 	6.255e-20 	-2.47693 	-20.0689 	-1.04374e-17 	2.4769 	2.19739e-18 	2.37866e-05
0.0112433 	-109.75 	32.1714 	-5.11281 	-8.54148e-22 	-1.97975 	-18.0928 	-2.34809e-19 	1.97974 	1.05322e-18 	7.2683e-06
0.0115409 	-109.448 	33.4623 	-5.17806 	-8.58958e-20 	-1.52024 	-16.1105 	1.33632e-17 	1.52024 	-2.18751e-18 	-7.61042e-06
0.0118349 	-109.158 	34.6355 	-5.22823 	1.1522e-20 	-1.10409 	-14.1741 	-1.68371e-18 	1.1041 	-4.90179e-19 	-9.09201e-06
0.0121258 	-108.877 	35.6846 	-5.26406 	2.82718e-20 	-0.73433 	-12.3354 	-4.22194e-18 	0.734262 	7.87265e-19 	6.87771e-05
0.012414 	-108.603 	36.6066 	-5.28657 	-1.12553e-20 	-0.411214 	-10.6429 	1.71796e-18 	0.411098 	-9.093e-21 	0.000115561
0.0127 	-108.338 	37.3861 	-5.297 	-1.10718e-20 	-0.137114 	-9.16254 	1.85733e-18 	0.137012 	-4.12651e-19 	0.000101875
0.0129587 	-108.082 	38.0325 	-5.29754 	1.08392e-20 	0.0929071 	-7.9097 	-1.86622e-18 	-0.0930561 	1.38268e-19 	0.000149056
0.0132347 	-107.816 	38.5936 	-5.2898 	5.4319e-21 	0.297706 	-6.82015 	-1.05314e-18 	-0.297869 	5.17489e-19 	0.000163409
0.0135296 	-107.527 	39.0926 	-5.27399 	-5.02698e-20 	0.489043 	-5.86608 	9.50739e-18 	-0.489165 	-1.55491e-18 	0.000121914
0.0138449 	-107.214 	39.5296 	-5.25043 	5.84606e-20 	0.668682 	-5.05779 	-1.1255e-17 	-0.668813 	1.78222e-18 	0.000130587
0.0141825 	-106.874 	39.9093 	-5.21968 	-1.08325e-19 	0.839489 	-4.39586 	2.34866e-17 	-0.839626 	-1.78197e-18 	0.000136991
0.0145445 	-106.507 	40.2394 	-5.18236 	-1.34227e-19 	1.00404 	-3.86944 	2.68054e-17 	-1.00406 	-4.35034e-18 	1.23754e-05
0.0149331 	-106.115 	40.5287 	-5.13902 	4.09904e-20 	1.16345 	-3.45748 	-7.14328e-18 	-1.16338 	-2.4625e-19 	-6.83513e-05
0.0153511 	-105.696 	40.7861 	-5.09002 	6.51177e-20 	1.31882 	-3.13703 	-1.62382e-17 	-1.31888 	2.47512e-18 	6.53636e-05
0.0158015 	-105.247 	41.0189 	-5.03555 	-2.95958e-20 	1.47484 	-2.89036 	8.53839e-18 	-1.47502 	-4.70194e-19 	0.000180754
0.0162878 	-104.763 	41.2326 	-4.97564 	-5.30256e-21 	1.63655 	-2.70208 	-3.88713e-19 	-1.63668 	-5.24337e-19 	0.00013093
0.016814 	-104.239 	41.4312 	-4.91023 	5.88529e-20 	1.80568 	-2.55603 	-1.69044e-17 	-1.80575 	6.5155e-19 	7.46038e-05
0.0173849 	-103.673 	41.6178 	-4.83911 	2.18125e-19 	1.98321 	-2.4399 	-7.01956e-17 	-1.98333 	7.06854e-18 	0.000114096
0.018006 	-103.039 	41.8001 	-4.75956 	1.70045e-19 	2.17583 	-2.34333 	-5.63595e-17 	-2.17598 	8.25164e-18 	0.000149793
0.0187638 	-102.313 	41.9834 	-4.66845 	-1.03121e-19 	2.38921 	-2.257 	3.15044e-17 	-2.38938 	-2.0125e-18 	0.000165765
0.0196001 	-101.502 	42.1628 	-4.56719 	-8.22238e-20 	2.61716 	-2.17641 	3.33314e-17 	-2.61737 	-1.84982e-18 	0.000207575
0.0205255 	-100.619 	42.3348 	-4.4575 	-4.14031e-19 	2.85312 	-2.09907 	1.65239e-16 	-2.85339 	-1.63987e-17 	0.000265199
0.0215519 	-99.6582 	42.5002 	-4.339 	-1.72322e-19 	3.09439 	-2.02021 	6.65135e-17 	-3.09481 	-1.13494e-17 	0.0004128
0.0226935 	-98.6162 	42.6592 	-4.21131 	3.57242e-19 	3.33743 	-1.93701 	-1.67966e-16 	-3.33788 	1.46062e-17 	0.000447179
0.023967 	-97.49 	42.8122 	-4.0741 	1.47293e-19 	3.57709 	-1.8474 	-6.71014e-17 	-3.57742 	9.28275e-18 	0.000334168
0.0253917 	-96.2777 	42.9593 	-3.92706 	-5.71856e-20 	3.80843 	-1.74833 	3.48569e-17 	-3.80858 	-2.69665e-18 	0.000143214
0.0269906 	-94.9782 	43.1004 	-3.76984 	8.25407e-20 	4.02519 	-1.63666 	-6.85397e-17 	-4.02516 	5.67532e-18 	-3.7908e-05
0.0287908 	-93.5918 	43.235 	-3.60222 	-9.62433e-20 	4.21838 	-1.51097 	9.68607e-17 	-4.21825 	-6.64658e-18 	-0.000123265
0.0308242 	-92.1205 	43.3628 	-3.42406 	-5.9165e-20 	4.3789 	-1.37111 	3.79362e-17 	-4.37867 	-4.44763e-18 	-0.000231442
0.033129 	-90.5683 	43.4829 	-3.2354 	9.74277e-20 	4.49769 	-1.21713 	-9.81859e-17 	-4.49735 	7.47457e-18 	-0.000332441
0.0357502 	-88.9421 	43.5946 	-3.03637 	-4.45504e-20 	4.56591 	-1.04931 	6.24038e-17 	-4.56547 	-3.78666e-18 	-0.000432715
0.0387416 	-87.2523 	43.6967 	-2.82722 	3.15514e-20 	4.5754 	-0.867949 	-5.38772e-17 	-4.57488 	2.91704e-18 	-0.000514436
0.042167 	-85.5138 	43.7875 	-2.60835 	8.74378e-21 	4.51907 	-0.673327 	-6.63855e-18 	-4.51854 	1.04039e-18 	-0.000529474
0.0461029 	-83.748 	43.8647 	-2.38022 	-5.40267e-20 	4.3909 	-0.465106 	1.04246e-16 	-4.39028 	-5.61127e-18 	-0.00062572
0.0506405 	-81.9994 	43.9249 	-2.14334 	-1.24068e-21 	4.17242 	-0.240575 	3.39962e-18 	-4.17175 	-2.22804e-19 	-0.000673278
0.0558892 	-80.37 	43.9618 	-1.90558 	1.8716e-20 	3.8645 	-0.00655556 	-4.52909e-17 	-3.864 	2.16781e-18 	-0.000503917
0.061146 	-78.9742 	43.97 	-1.68336 	9.10567e-21 	3.52796 	0.219229 	-2.29891e-17 	-3.52758 	1.08618e-18 	-0.000380914
0.0665609 	-77.7982 	43.9491 	-1.47651 	-4.09532e-21 	3.18651 	0.440144 	1.06639e-17 	-3.18603 	-2.83247e-19 	-0.000470345
0.0721458 	-76.8411 	43.8951 	-1.28077 	4.26316e-21 	2.82392 	0.667397 	-8.44049e-18 	-2.82358 	1.77154e-19 	-0.000342552
0.0779136 	-76.0935 	43.799 	-1.0929 	4.03349e-21 	2.43702 	0.911581 	-1.11505e-17 	-2.43665 	3.23712e-19 	-0.000372134
0.0839163 	-75.5728 	43.6457 	-0.913292 	8.76693e-22 	2.02979 	1.17078 	7.61153e-19 	-2.02951 	-2.56405e-20 	-0.000278957
0.0895906 	-75.2768 	43.4342 	-0.755365 	-1.14251e-20 	1.64693 	1.41959 	9.49261e-18 	-1.64654 	-1.37012e-19 	-0.000396173
0.0938129 	-75.1505 	43.1875 	-0.631129 	-4.73916e-21 	1.33312 	1.64518 	8.25624e-18 	-1.3324 	-2.68924e-19 	-0.000721256
0.0973169 	-75.1308 	42.904 	-0.531842 	2.71782e-20 	1.07307 	1.8591 	-1.57833e-17 	-1.07245 	2.0825e-19 	-0.000619416
0.100225 	-75.1571 	42.5724 	-0.449353 	-3.50824e-21 	0.856555 	2.05873 	-3.55902e-19 	-0.856092 	2.02544e-19 	-0.000463444
0.102638 	-75.208 	42.1864 	-0.380039 	-4.23287e-20 	0.679762 	2.24289 	1.40018e-17 	-0.679496 	-1.82629e-19 	-0.000266148
