/*--------------------------------*- C++ -*----------------------------------*\
| =========                 |                                                 |
| \\      /  F ield         | OpenFOAM: The Open Source CFD Toolbox           |
|  \\    /   O peration     | Version:  2306                                  |
|   \\  /    A nd           | Website:  www.openfoam.com                      |
|    \\/     M anipulation  |                                                 |
\*---------------------------------------------------------------------------*/
FoamFile
{
    version     2.0;
    format      ascii;
    arch        "LSB;label=32;scalar=64";
    class       volScalarField;
    location    "0.3";
    object      p;
}
// * * * * * * * * * * * * * * * * * * * * * * * * * * * * * * * * * * * * * //

dimensions      [0 2 -2 0 0 0 0];

internalField   nonuniform List<scalar> 
400
(
4.62794e-06
-0.00872907
-0.0194828
-0.0277292
-0.0307926
-0.027479
-0.0176983
-0.00214395
0.0179514
0.0409885
0.0651333
0.0884375
0.108968
0.124963
0.135024
0.138359
0.135073
0.126497
0.115519
0.106797
0.0086643
-0.000320662
-0.00874504
-0.0144125
-0.016027
-0.0127543
-0.00448407
0.00828846
0.0246339
0.0433122
0.0628773
0.0817833
0.0985012
0.111654
0.120173
0.123475
0.121679
0.115729
0.10711
0.0981665
0.0200439
0.00760762
-0.00149472
-0.00670487
-0.00800923
-0.00496401
0.00242527
0.0136849
0.028012
0.0443555
0.0614879
0.0780887
0.0928407
0.104544
0.112238
0.115346
0.113856
0.108318
0.0989645
0.0865592
0.03039
0.013224
0.00192873
-0.00400025
-0.00560703
-0.00279445
0.00426202
0.015011
0.028661
0.0442303
0.0605862
0.076503
0.0907364
0.102116
0.109643
0.112618
0.11083
0.104486
0.0928081
0.0755844
0.0372051
0.0150696
0.00115866
-0.00581155
-0.00779146
-0.00498772
0.00224385
0.0132351
0.0271524
0.0430226
0.0597424
0.0761104
0.0908793
0.102827
0.110838
0.114019
0.111927
0.104455
0.0899626
0.0675667
0.0386701
0.0115089
-0.0051146
-0.01311
-0.0152506
-0.0120241
-0.00397508
0.00808518
0.0232452
0.040499
0.0587277
0.0767052
0.0931259
0.106655
0.115992
0.119989
0.117926
0.109381
0.0919148
0.0641315
0.0332135
0.000935026
-0.0183392
-0.0270984
-0.0289414
-0.0246496
-0.0149775
-0.00090432
0.0165554
0.0363385
0.0572859
0.0781181
0.0974354
0.113743
0.125495
0.131218
0.129846
0.120588
0.100159
0.0666875
0.0191913
-0.0183784
-0.0401046
-0.0491123
-0.0499303
-0.0436939
-0.0314088
-0.0142497
0.00665194
0.0301718
0.0551103
0.0801328
0.103735
0.124232
0.139782
0.148499
0.148869
0.139605
0.116395
0.0768072
-0.0053622
-0.0484868
-0.0722981
-0.0807264
-0.0794594
-0.0701062
-0.0539913
-0.0325156
-0.00692845
0.0216046
0.0518738
0.082521
0.111958
0.138311
0.159396
0.172823
0.176477
0.168365
0.142797
0.0965513
-0.0429681
-0.0919803
-0.117227
-0.123786
-0.118908
-0.104872
-0.08342
-0.0562087
-0.0245861
0.0102928
0.0472776
0.0850618
0.12204
0.156188
0.184966
0.205384
0.21453
0.209384
0.182295
0.128798
-0.0970191
-0.152255
-0.177756
-0.180405
-0.169688
-0.148854
-0.120179
-0.0855962
-0.0464969
-0.00392841
0.0411397
0.0875844
0.133913
0.178054
0.217155
0.247556
0.265328
0.265962
0.238934
0.17769
-0.172333
-0.233937
-0.257477
-0.252916
-0.233058
-0.202532
-0.164269
-0.120447
-0.0723848
-0.0208591
0.033529
0.0900438
0.147518
0.204036
0.25658
0.300835
0.331649
0.342439
0.318411
0.24935
-0.276245
-0.34357
-0.360899
-0.343706
-0.309783
-0.265613
-0.214819
-0.159687
-0.101235
-0.0397097
0.0249244
0.0926071
0.162811
0.234114
0.303656
0.366669
0.416707
0.444467
0.42888
0.353206
-0.420927
-0.490757
-0.49354
-0.454782
-0.399514
-0.336408
-0.269566
-0.200992
-0.130989
-0.0588917
0.016338
0.0956848
0.179683
0.267912
0.358251
0.44604
0.523839
0.579183
0.582218
0.504634
-0.628249
-0.689876
-0.661521
-0.586621
-0.499598
-0.410873
-0.324169
-0.24036
-0.158326
-0.075939
0.00927997
0.0997833
0.197668
0.304192
0.418909
0.538429
0.655451
0.754836
0.795786
0.730205
-0.938379
-0.961768
-0.870134
-0.736271
-0.603502
-0.481576
-0.371709
-0.271997
-0.17878
-0.0877682
0.00542097
0.105104
0.215435
0.34014
0.481773
0.640282
0.811155
0.979255
1.09376
1.07616
-1.4252
-1.33401
-1.12118
-0.895868
-0.700285
-0.537863
-0.403353
-0.289235
-0.187717
-0.0915806
0.0058272
0.110927
0.230285
0.370871
0.539942
0.744002
0.98596
1.25682
1.50676
1.62274
-2.25654
-1.84022
-1.39827
-1.0419
-0.768652
-0.563161
-0.407617
-0.284866
-0.181199
-0.0859876
0.00964145
0.114008
0.236001
0.386254
0.57847
0.829916
1.15781
1.5731
2.0729
2.5462
-3.8782
-2.4973
-1.59597
-1.07867
-0.741943
-0.514939
-0.359009
-0.244811
-0.152831
-0.0701901
0.0128123
0.104965
0.216012
0.358913
0.553413
0.830059
1.23011
1.82417
2.81455
4.29843
-6.63774
-3.13689
-1.50293
-0.865742
-0.542309
-0.353953
-0.239038
-0.161372
-0.100716
-0.0457661
0.0110709
0.0764078
0.157793
0.266353
0.422037
0.662496
1.05683
1.79115
3.53923
7.15537
)
;

boundaryField
{
    movingWall
    {
        type            zeroGradient;
    }
    fixedWalls
    {
        type            zeroGradient;
    }
    frontAndBack
    {
        type            empty;
    }
}


// ************************************************************************* //
