/*--------------------------------*- C++ -*----------------------------------*\
| =========                 |                                                 |
| \\      /  F ield         | OpenFOAM: The Open Source CFD Toolbox           |
|  \\    /   O peration     | Version:  2306                                  |
|   \\  /    A nd           | Website:  www.openfoam.com                      |
|    \\/     M anipulation  |                                                 |
\*---------------------------------------------------------------------------*/
FoamFile
{
    version     2.0;
    format      ascii;
    arch        "LSB;label=32;scalar=64";
    class       surfaceScalarField;
    location    "0.3";
    object      phi;
}
// * * * * * * * * * * * * * * * * * * * * * * * * * * * * * * * * * * * * * //

dimensions      [0 3 -1 0 0 0 0];

oriented        oriented;

internalField   nonuniform List<scalar> 
760
(
1.44424e-08
-1.4469e-08
-2.16683e-08
3.61106e-08
-1.13672e-07
9.20039e-08
-2.45225e-07
1.31553e-07
-3.96414e-07
1.51189e-07
-5.48263e-07
1.5185e-07
-6.84411e-07
1.36147e-07
-7.91801e-07
1.0739e-07
-8.60873e-07
6.90722e-08
-8.8561e-07
2.47372e-08
-8.63619e-07
-2.19908e-08
-7.96293e-07
-6.73263e-08
-6.89018e-07
-1.07275e-07
-5.51347e-07
-1.37671e-07
-3.9699e-07
-1.54358e-07
-2.43406e-07
-1.53584e-07
-1.10655e-07
-1.32751e-07
-1.9141e-08
-9.15136e-08
1.54125e-08
-3.45533e-08
1.54125e-08
-3.37098e-08
1.92408e-08
-1.79285e-07
1.81685e-07
-4.32841e-07
3.45559e-07
-7.6393e-07
4.62643e-07
-1.1328e-06
5.20059e-07
-1.49889e-06
5.17943e-07
-1.82556e-06
4.62812e-07
-2.08258e-06
3.64413e-07
-2.24743e-06
2.33924e-07
-2.3059e-06
8.32088e-08
-2.25253e-06
-7.53686e-08
-2.09094e-06
-2.28911e-07
-1.8342e-06
-3.64017e-07
-1.50479e-06
-4.67084e-07
-1.13407e-06
-5.2507e-07
-7.60679e-07
-5.2698e-07
-4.27131e-07
-4.66299e-07
-1.74172e-07
-3.44473e-07
-3.14338e-08
-1.77292e-07
-1.60211e-08
-9.15104e-08
1.10751e-07
-3.55542e-07
4.45717e-07
-7.63171e-07
7.53188e-07
-1.26809e-06
9.67557e-07
-1.81579e-06
1.06777e-06
-2.3515e-06
1.05365e-06
-2.82554e-06
9.36846e-07
-3.19667e-06
7.35547e-07
-3.43402e-06
4.7127e-07
-3.51806e-06
1.67256e-07
-3.44134e-06
-1.52093e-07
-3.20891e-06
-4.61344e-07
-2.83869e-06
-7.34239e-07
-2.36138e-06
-9.4439e-07
-1.81957e-06
-1.06688e-06
-1.26545e-06
-1.0811e-06
-7.56503e-07
-9.75246e-07
-3.48871e-07
-7.52105e-07
-8.8253e-08
-4.37909e-07
-1.04274e-07
-1.44317e-07
2.55068e-07
-5.23912e-07
8.25312e-07
-1.0806e-06
1.30988e-06
-1.74813e-06
1.63509e-06
-2.45707e-06
1.7767e-06
-3.14082e-06
1.73741e-06
-3.74032e-06
1.53634e-06
-4.20706e-06
1.20229e-06
-4.50489e-06
7.69101e-07
-4.61098e-06
2.73348e-07
-4.51646e-06
-2.46607e-07
-4.22697e-06
-7.50834e-07
-3.76308e-06
-1.19814e-06
-3.16038e-06
-1.54709e-06
-2.46881e-06
-1.75844e-06
-1.75054e-06
-1.79937e-06
-1.07588e-06
-1.64991e-06
-5.17047e-07
-1.31094e-06
-1.40392e-07
-8.14564e-07
-2.44666e-07
-1.927e-07
4.47768e-07
-6.83974e-07
1.31659e-06
-1.38618e-06
2.01209e-06
-2.21071e-06
2.45961e-06
-3.07207e-06
2.63807e-06
-3.89254e-06
2.55788e-06
-4.60555e-06
2.24935e-06
-5.15771e-06
1.75445e-06
-5.50976e-06
1.12115e-06
-5.63694e-06
4.00526e-07
-5.52932e-06
-3.54226e-07
-5.19228e-06
-1.08787e-06
-4.64718e-06
-1.74323e-06
-3.93205e-06
-2.26223e-06
-3.10161e-06
-2.58887e-06
-2.22626e-06
-2.67473e-06
-1.3889e-06
-2.48727e-06
-6.7966e-07
-2.02018e-06
-1.88813e-07
-1.30541e-06
-4.33479e-07
-2.39337e-07
6.87105e-07
-8.40932e-07
1.91818e-06
-1.68746e-06
2.85862e-06
-2.66622e-06
3.43837e-06
-3.67468e-06
3.64652e-06
-4.62431e-06
3.50751e-06
-5.44252e-06
3.06756e-06
-6.07302e-06
2.38494e-06
-6.47527e-06
1.5234e-06
-6.62383e-06
5.49085e-07
-6.50794e-06
-4.70115e-07
-6.13189e-06
-1.46393e-06
-5.51604e-06
-2.35907e-06
-4.69848e-06
-3.07979e-06
-3.73649e-06
-3.55086e-06
-2.70722e-06
-3.70399e-06
-1.70634e-06
-3.48815e-06
-8.43835e-07
-2.88268e-06
-2.3684e-07
-1.91241e-06
-6.70319e-07
-2.86958e-07
9.74063e-07
-1.0009e-06
2.63212e-06
-1.99275e-06
3.85047e-06
-3.12371e-06
4.56934e-06
-4.2735e-06
4.7963e-06
-5.3436e-06
4.57761e-06
-6.25735e-06
3.98131e-06
-6.95792e-06
3.08551e-06
-7.40571e-06
1.9712e-06
-7.576e-06
7.19371e-07
-7.45754e-06
-5.88574e-07
-7.05262e-06
-1.86885e-06
-6.37862e-06
-3.03308e-06
-5.47087e-06
-3.98754e-06
-4.38632e-06
-4.63542e-06
-3.20673e-06
-4.88357e-06
-2.04005e-06
-4.65483e-06
-1.01791e-06
-3.90483e-06
-2.87999e-07
-2.64231e-06
-9.58318e-07
-3.38082e-07
1.31215e-06
-1.16958e-06
3.46362e-06
-2.30886e-06
4.98975e-06
-3.58816e-06
5.84864e-06
-4.86915e-06
6.07729e-06
-6.04523e-06
5.7537e-06
-7.03878e-06
4.97486e-06
-7.79595e-06
3.84268e-06
-8.28109e-06
2.45633e-06
-8.47219e-06
9.10471e-07
-8.35815e-06
-7.02614e-07
-7.93833e-06
-2.28866e-06
-7.22464e-06
-3.74677e-06
-6.24598e-06
-4.9662e-06
-5.05465e-06
-5.82675e-06
-3.73329e-06
-6.20493e-06
-2.40018e-06
-5.98794e-06
-1.20988e-06
-5.09513e-06
-3.4569e-07
-3.50651e-06
-1.30401e-06
-3.95183e-07
1.70733e-06
-1.35216e-06
4.42059e-06
-2.64028e-06
6.27788e-06
-4.05881e-06
7.26717e-06
-5.45185e-06
7.47033e-06
-6.7084e-06
7.01024e-06
-7.75497e-06
6.02144e-06
-8.54585e-06
4.63355e-06
-9.0536e-06
2.96409e-06
-9.2618e-06
1.11867e-06
-9.16056e-06
-8.03856e-07
-8.74543e-06
-2.70379e-06
-8.01988e-06
-4.47231e-06
-7.00153e-06
-5.98456e-06
-5.73176e-06
-7.09651e-06
-4.28772e-06
-7.64897e-06
-2.79363e-06
-7.48203e-06
-1.42704e-06
-6.46172e-06
-4.13311e-07
-4.52023e-06
-1.71732e-06
-4.61287e-07
2.16862e-06
-1.55401e-06
5.51332e-06
-2.98912e-06
7.71298e-06
-4.52767e-06
8.80573e-06
-5.99854e-06
8.9412e-06
-7.29277e-06
8.30447e-06
-8.34891e-06
7.07758e-06
-9.13661e-06
5.42126e-06
-9.64245e-06
3.46993e-06
-9.85937e-06
1.33559e-06
-9.78038e-06
-8.82849e-07
-9.39656e-06
-3.08761e-06
-8.69972e-06
-5.16916e-06
-7.69008e-06
-6.9942e-06
-6.38956e-06
-8.39702e-06
-4.85989e-06
-9.17865e-06
-3.2228e-06
-9.11912e-06
-1.67612e-06
-8.0084e-06
-4.94758e-07
-5.7016e-06
-2.21208e-06
-5.41056e-07
2.70967e-06
-1.78204e-06
6.7543e-06
-3.3549e-06
9.28584e-06
-4.97716e-06
1.0428e-05
-6.46836e-06
1.04324e-05
-7.73263e-06
9.56874e-06
-8.73196e-06
8.0769e-06
-9.46101e-06
6.15031e-06
-9.92739e-06
3.9363e-06
-1.0138e-05
1.54617e-06
-1.00909e-05
-9.29899e-07
-9.77273e-06
-3.40579e-06
-9.16052e-06
-5.78137e-06
-8.23049e-06
-7.92422e-06
-6.97424e-06
-9.65328e-06
-5.42376e-06
-1.07291e-05
-3.68372e-06
-1.08592e-05
-1.96388e-06
-9.72824e-06
-5.95357e-07
-7.07012e-06
-2.80743e-06
-6.42584e-07
3.35226e-06
-2.04616e-06
8.15788e-06
-3.73319e-06
1.09729e-05
-5.37483e-06
1.20696e-05
-6.7947e-06
1.18523e-05
-7.92771e-06
1.07017e-05
-8.77494e-06
8.92414e-06
-9.36752e-06
6.74289e-06
-9.74151e-06
4.31029e-06
-9.92229e-06
1.72695e-06
-9.91574e-06
-9.36448e-07
-9.70454e-06
-3.617e-06
-9.24932e-06
-6.23659e-06
-8.49639e-06
-8.67715e-06
-7.39508e-06
-1.07546e-05
-5.92883e-06
-1.21954e-05
-4.16196e-06
-1.2626e-05
-2.29726e-06
-1.15929e-05
-7.23407e-07
-8.64397e-06
-3.53084e-06
-7.80321e-07
4.13258e-06
-2.36015e-06
9.7377e-06
-4.1099e-06
1.27226e-05
-5.66169e-06
1.36214e-05
-6.87032e-06
1.30609e-05
-7.7285e-06
1.15599e-05
-8.29581e-06
9.49145e-06
-8.65113e-06
7.09821e-06
-8.86474e-06
4.5239e-06
-8.98343e-06
1.84565e-06
-9.02294e-06
-8.96938e-07
-8.96411e-06
-3.67583e-06
-8.75216e-06
-6.44854e-06
-8.30095e-06
-9.12837e-06
-7.50747e-06
-1.15481e-05
-6.28495e-06
-1.34179e-05
-4.62355e-06
-1.42874e-05
-2.68211e-06
-1.35344e-05
-8.92653e-07
-1.04334e-05
-4.42349e-06
-9.79283e-07
5.11186e-06
-2.73829e-06
1.14967e-05
-4.44499e-06
1.44293e-05
-5.72685e-06
1.49033e-05
-6.52031e-06
1.38544e-05
-6.91317e-06
1.19528e-05
-7.04322e-06
9.62151e-06
-7.04389e-06
7.09888e-06
-7.0198e-06
4.49981e-06
-7.03784e-06
1.86369e-06
-7.12396e-06
-8.10819e-07
-7.26056e-06
-3.53923e-06
-7.38311e-06
-6.32599e-06
-7.37783e-06
-9.13364e-06
-7.08698e-06
-1.18389e-05
-6.33484e-06
-1.417e-05
-4.99443e-06
-1.56278e-05
-3.11646e-06
-1.54124e-05
-1.12549e-06
-1.24244e-05
-5.54899e-06
-1.27807e-06
6.38993e-06
-3.17718e-06
1.33958e-05
-4.63009e-06
1.58822e-05
-5.35542e-06
1.56286e-05
-5.45469e-06
1.39536e-05
-5.15293e-06
1.1651e-05
-4.67674e-06
9.14532e-06
-4.20805e-06
6.63019e-06
-3.87482e-06
4.16657e-06
-3.75508e-06
1.74396e-06
-3.88189e-06
-6.84009e-07
-4.24362e-06
-3.17749e-06
-4.7779e-06
-5.79171e-06
-5.36005e-06
-8.55149e-06
-5.79175e-06
-1.14072e-05
-5.80523e-06
-1.41566e-05
-5.11489e-06
-1.63182e-05
-3.5665e-06
-1.69608e-05
-1.45332e-06
-1.45376e-05
-7.00231e-06
-1.71579e-06
8.10572e-06
-3.58908e-06
1.52691e-05
-4.3868e-06
1.66799e-05
-4.12836e-06
1.53702e-05
-3.19282e-06
1.30181e-05
-1.96725e-06
1.04255e-05
-7.49219e-07
7.92729e-06
2.61328e-07
5.61964e-06
9.40913e-07
3.48698e-06
1.21926e-06
1.46561e-06
1.06411e-06
-5.28862e-07
4.76835e-07
-2.59022e-06
-5.00119e-07
-4.81475e-06
-1.76273e-06
-7.28888e-06
-3.11281e-06
-1.00571e-05
-4.22409e-06
-1.30453e-05
-4.64159e-06
-1.59007e-05
-3.89234e-06
-1.771e-05
-1.8966e-06
-1.65333e-05
-8.8989e-06
-2.25794e-06
1.03637e-05
-3.60722e-06
1.66184e-05
-3.04409e-06
1.61168e-05
-1.24825e-06
1.35743e-05
1.04021e-06
1.07296e-05
3.31873e-06
8.14695e-06
5.29373e-06
5.9523e-06
6.81169e-06
4.10168e-06
7.79844e-06
2.50023e-06
8.21825e-06
1.0458e-06
8.05151e-06
-3.62123e-07
7.28712e-06
-1.82583e-06
5.92852e-06
-3.45616e-06
4.01704e-06
-5.3774e-06
1.67974e-06
-7.71984e-06
-7.93028e-07
-1.05725e-05
-2.85397e-06
-1.38397e-05
-3.65543e-06
-1.69085e-05
-2.37844e-06
-1.78103e-05
-1.12773e-05
-2.5491e-06
1.29128e-05
-2.08845e-06
1.61577e-05
9.03465e-07
1.31249e-05
4.72473e-06
9.75308e-06
8.41943e-06
7.03491e-06
1.15797e-05
4.98671e-06
1.40683e-05
3.46364e-06
1.58674e-05
2.30258e-06
1.69983e-05
1.36938e-06
1.74821e-05
5.61971e-07
1.73223e-05
-2.02267e-07
1.64974e-05
-1.001e-06
1.4963e-05
-1.9217e-06
1.26641e-05
-3.07855e-06
9.5749e-06
-4.63061e-06
5.78879e-06
-6.7864e-06
1.70108e-06
-9.75201e-06
-1.67194e-06
-1.35355e-05
-2.47164e-06
-1.70106e-05
-1.3749e-05
-6.98101e-07
1.36109e-05
4.30232e-06
1.11573e-05
1.06069e-05
6.8203e-06
1.6138e-05
4.22204e-06
2.04911e-05
2.68173e-06
2.37486e-05
1.72926e-06
2.60918e-05
1.12042e-06
2.76858e-05
7.08589e-07
2.86496e-05
4.05535e-07
2.90537e-05
1.57932e-07
2.89217e-05
-7.03313e-08
2.82309e-05
-3.10161e-07
2.69069e-05
-5.9766e-07
2.48154e-05
-9.87069e-07
2.17567e-05
-1.57197e-06
1.74894e-05
-2.51904e-06
1.18597e-05
-4.12233e-06
5.235e-06
-6.91084e-06
-2.61524e-07
-1.15141e-05
-1.40105e-05
1.36109e-05
2.47682e-05
3.15885e-05
3.58105e-05
3.84923e-05
4.02215e-05
4.13419e-05
4.20505e-05
4.24561e-05
4.2614e-05
4.25437e-05
4.22335e-05
4.16358e-05
4.06488e-05
3.90768e-05
3.65578e-05
3.24354e-05
2.55246e-05
1.40105e-05
)
;

boundaryField
{
    movingWall
    {
        type            calculated;
        value           uniform 0;
    }
    fixedWalls
    {
        type            calculated;
        value           uniform 0;
    }
    frontAndBack
    {
        type            empty;
        value           nonuniform List<scalar> 0();
    }
}


// ************************************************************************* //
