/*--------------------------------*- C++ -*----------------------------------*\
| =========                 |                                                 |
| \\      /  F ield         | OpenFOAM: The Open Source CFD Toolbox           |
|  \\    /   O peration     | Version:  2306                                  |
|   \\  /    A nd           | Website:  www.openfoam.com                      |
|    \\/     M anipulation  |                                                 |
\*---------------------------------------------------------------------------*/
FoamFile
{
    version     2.0;
    format      ascii;
    arch        "LSB;label=32;scalar=64";
    class       volVectorField;
    location    "0.3";
    object      U;
}
// * * * * * * * * * * * * * * * * * * * * * * * * * * * * * * * * * * * * * //

dimensions      [0 1 -1 0 0 0 0];

internalField   nonuniform List<vector> 
400
(
(0.000255257 -0.000251993 0)
(0.000148737 0.000108834 0)
(-0.00116466 0.000564438 0)
(-0.0034713 0.000888259 0)
(-0.00637748 0.00105126 0)
(-0.00948208 0.00106724 0)
(-0.0124253 0.000960987 0)
(-0.01491 0.000759873 0)
(-0.0167087 0.000490442 0)
(-0.0176651 0.000178102 0)
(-0.0176944 -0.000151818 0)
(-0.0167859 -0.000472846 0)
(-0.015007 -0.00075647 0)
(-0.0125071 -0.000971903 0)
(-0.00952034 -0.00108687 0)
(-0.00636276 -0.00107015 0)
(-0.00341786 -0.000897049 0)
(-0.00110443 -0.000558988 0)
(0.000185549 -9.47745e-05 0)
(0.000264952 0.000259971 0)
(-7.27942e-05 -0.000177505 0)
(-0.00159493 0.00163329 0)
(-0.00566788 0.00361551 0)
(-0.0116997 0.00504665 0)
(-0.0188922 0.00576399 0)
(-0.0264244 0.00578068 0)
(-0.0335107 0.00518277 0)
(-0.0394729 0.00408903 0)
(-0.0437787 0.00263007 0)
(-0.0460584 0.000941105 0)
(-0.0461134 -0.000838388 0)
(-0.043924 -0.00256282 0)
(-0.0396563 -0.00407963 0)
(-0.0336671 -0.00523166 0)
(-0.0265001 -0.00586495 0)
(-0.0188677 -0.00584519 0)
(-0.0115988 -0.00508677 0)
(-0.00554843 -0.00359709 0)
(-0.00151601 -0.00157625 0)
(-4.95016e-05 0.000216189 0)
(-0.000521632 0.00107093 0)
(-0.0036882 0.00571038 0)
(-0.0105567 0.010221 0)
(-0.0199707 0.0134338 0)
(-0.0307712 0.0149912 0)
(-0.0418602 0.0148823 0)
(-0.0521801 0.0132784 0)
(-0.0608079 0.0104473 0)
(-0.0670151 0.00670293 0)
(-0.0702944 0.00238258 0)
(-0.0703732 -0.00216057 0)
(-0.0672256 -0.00655819 0)
(-0.0610807 -0.010429 0)
(-0.0524268 -0.0133885 0)
(-0.0420044 -0.0150722 0)
(-0.0307781 -0.0151776 0)
(-0.0198629 -0.0135331 0)
(-0.0104069 -0.010191 0)
(-0.00357976 -0.0055872 0)
(-0.000487131 -0.000975864 0)
(-0.0009191 0.00344226 0)
(-0.0056644 0.0121791 0)
(-0.0152711 0.0199218 0)
(-0.0279095 0.0252482 0)
(-0.0420198 0.0276766 0)
(-0.0562557 0.0272114 0)
(-0.0693543 0.0241447 0)
(-0.0802255 0.0189343 0)
(-0.0880159 0.0121241 0)
(-0.0921324 0.00430408 0)
(-0.0922557 -0.00390523 0)
(-0.0883511 -0.0118574 0)
(-0.0806791 -0.018886 0)
(-0.0698025 -0.0243228 0)
(-0.0565835 -0.0275383 0)
(-0.0421603 -0.0280135 0)
(-0.0278701 -0.0254486 0)
(-0.0151328 -0.0199024 0)
(-0.0055403 -0.0119843 0)
(-0.000874714 -0.00327248 0)
(-0.00126864 0.00682109 0)
(-0.0075118 0.0209016 0)
(-0.0197937 0.0325279 0)
(-0.0355724 0.0401958 0)
(-0.0528474 0.0434203 0)
(-0.0700208 0.0423049 0)
(-0.0856531 0.0373233 0)
(-0.0985343 0.0291685 0)
(-0.107734 0.01865 0)
(-0.112611 0.00663957 0)
(-0.112817 -0.00594953 0)
(-0.108304 -0.0181674 0)
(-0.0993362 -0.0290334 0)
(-0.0865047 -0.0375598 0)
(-0.0707399 -0.0428064 0)
(-0.0533062 -0.0439797 0)
(-0.0357397 -0.0405801 0)
(-0.0197478 -0.0325835 0)
(-0.00740177 -0.0206602 0)
(-0.00121853 -0.00656832 0)
(-0.00159836 0.011142 0)
(-0.00930924 0.0318288 0)
(-0.0242485 0.048016 0)
(-0.0431346 0.0582389 0)
(-0.0634941 0.0621424 0)
(-0.0834704 0.0600413 0)
(-0.101468 0.052675 0)
(-0.116195 0.0410288 0)
(-0.126684 0.0262118 0)
(-0.13228 0.00939482 0)
(-0.132622 -0.00820885 0)
(-0.127641 -0.0253405 0)
(-0.117578 -0.040694 0)
(-0.103009 -0.0529353 0)
(-0.0848821 -0.0607647 0)
(-0.0645474 -0.0630381 0)
(-0.043724 -0.058953 0)
(-0.0244281 -0.0482787 0)
(-0.00926716 -0.0316185 0)
(-0.00155197 -0.0108178 0)
(-0.00193596 0.016397 0)
(-0.0111475 0.0449703 0)
(-0.0287848 0.0663951 0)
(-0.0507753 0.0793517 0)
(-0.0741407 0.083763 0)
(-0.0967677 0.0802936 0)
(-0.116936 0.0700544 0)
(-0.133316 0.0543904 0)
(-0.144956 0.0347422 0)
(-0.151224 0.012584 0)
(-0.151763 -0.0105829 0)
(-0.14648 -0.0332077 0)
(-0.135562 -0.0536659 0)
(-0.119518 -0.0702623 0)
(-0.0992552 -0.0812878 0)
(-0.0761531 -0.0851546 0)
(-0.0520833 -0.0806223 0)
(-0.029382 -0.0670923 0)
(-0.0112563 -0.0449486 0)
(-0.00190954 -0.0160474 0)
(-0.00230689 0.0226311 0)
(-0.0131135 0.0604001 0)
(-0.0335395 0.0877024 0)
(-0.0586261 0.103487 0)
(-0.0848531 0.108141 0)
(-0.109871 0.102851 0)
(-0.131889 0.0892281 0)
(-0.149615 0.0690536 0)
(-0.162176 0.0441249 0)
(-0.169017 0.0162073 0)
(-0.169815 -0.0129464 0)
(-0.164448 -0.0415367 0)
(-0.153015 -0.0676544 0)
(-0.135894 -0.0892471 0)
(-0.113867 -0.104152 0)
(-0.0882562 -0.11023 0)
(-0.0610218 -0.105633 0)
(-0.0348058 -0.0891815 0)
(-0.0134883 -0.0608345 0)
(-0.00232482 -0.022354 0)
(-0.00273751 0.0299388 0)
(-0.0152935 0.0782525 0)
(-0.0386291 0.111984 0)
(-0.0667453 0.130535 0)
(-0.09554 0.135008 0)
(-0.122479 0.127338 0)
(-0.145799 0.109795 0)
(-0.164348 0.0846748 0)
(-0.177437 0.0541451 0)
(-0.184657 0.0202259 0)
(-0.185759 -0.0151457 0)
(-0.180597 -0.0500006 0)
(-0.169142 -0.0822137 0)
(-0.151563 -0.10941 0)
(-0.128399 -0.128944 0)
(-0.100783 -0.138017 0)
(-0.0706423 -0.133962 0)
(-0.0408658 -0.114728 0)
(-0.0160816 -0.0795478 0)
(-0.00283351 -0.0299023 0)
(-0.00326294 0.0384674 0)
(-0.01779 0.0987127 0)
(-0.044159 0.139251 0)
(-0.0751037 0.16024 0)
(-0.105908 0.163864 0)
(-0.133961 0.153107 0)
(-0.157681 0.131082 0)
(-0.176219 0.100679 0)
(-0.189197 0.0644257 0)
(-0.196453 0.0245277 0)
(-0.197867 -0.0170009 0)
(-0.193281 -0.0581439 0)
(-0.182497 -0.0966761 0)
(-0.165386 -0.129981 0)
(-0.142093 -0.154944 0)
(-0.113368 -0.167999 0)
(-0.0809015 -0.165415 0)
(-0.047692 -0.143878 0)
(-0.019167 -0.10143 0)
(-0.00348116 -0.0389285 0)
(-0.00394145 0.0484377 0)
(-0.0207534 0.122013 0)
(-0.0502414 0.169418 0)
(-0.0835597 0.192087 0)
(-0.115391 0.193836 0)
(-0.143248 0.179092 0)
(-0.165976 0.152021 0)
(-0.183244 0.116162 0)
(-0.195153 0.0743599 0)
(-0.201902 0.0288875 0)
(-0.20357 -0.0183159 0)
(-0.200005 -0.0653585 0)
(-0.190818 -0.110088 0)
(-0.175484 -0.149792 0)
(-0.153583 -0.180963 0)
(-0.125222 -0.199209 0)
(-0.0915401 -0.199466 0)
(-0.0553702 -0.176639 0)
(-0.022912 -0.126871 0)
(-0.00433714 -0.0497587 0)
(-0.00488004 0.0601936 0)
(-0.0244286 0.148432 0)
(-0.057003 0.202203 0)
(-0.0917911 0.225132 0)
(-0.123009 0.223492 0)
(-0.148657 0.203646 0)
(-0.168361 0.171019 0)
(-0.182582 0.129806 0)
(-0.192087 0.0830499 0)
(-0.197549 0.0329264 0)
(-0.199312 -0.0189 0)
(-0.197269 -0.0708801 0)
(-0.190833 -0.121165 0)
(-0.179014 -0.167176 0)
(-0.160662 -0.205185 0)
(-0.134927 -0.230016 0)
(-0.101952 -0.235034 0)
(-0.0639106 -0.212726 0)
(-0.0275542 -0.156274 0)
(-0.00551948 -0.0628528 0)
(-0.00627986 0.0743023 0)
(-0.0292175 0.178283 0)
(-0.064544 0.236941 0)
(-0.0991108 0.257736 0)
(-0.127087 0.250584 0)
(-0.147575 0.224354 0)
(-0.16147 0.185852 0)
(-0.17032 0.139813 0)
(-0.175715 0.0892761 0)
(-0.178876 0.0360855 0)
(-0.180458 -0.0186001 0)
(-0.180437 -0.073817 0)
(-0.178068 -0.128294 0)
(-0.171899 -0.179895 0)
(-0.15994 -0.224993 0)
(-0.14009 -0.25784 0)
(-0.11092 -0.270145 0)
(-0.0731448 -0.251289 0)
(-0.0334423 -0.18998 0)
(-0.00723812 -0.0788932 0)
(-0.00850928 0.0917295 0)
(-0.0357305 0.211824 0)
(-0.0727394 0.272219 0)
(-0.104018 0.28714 0)
(-0.124695 0.271741 0)
(-0.135946 0.237875 0)
(-0.140497 0.193625 0)
(-0.14122 0.143949 0)
(-0.140564 0.0915414 0)
(-0.140271 0.0376377 0)
(-0.141283 -0.0173404 0)
(-0.143697 -0.0732372 0)
(-0.146708 -0.129628 0)
(-0.148529 -0.185188 0)
(-0.146391 -0.236869 0)
(-0.136779 -0.278854 0)
(-0.116096 -0.301452 0)
(-0.0824384 -0.29043 0)
(-0.0410412 -0.22808 0)
(-0.00986019 -0.098932 0)
(-0.0121787 0.114083 0)
(-0.0446861 0.248913 0)
(-0.0805935 0.305174 0)
(-0.103177 0.308868 0)
(-0.110606 0.282161 0)
(-0.107427 0.239927 0)
(-0.0986539 0.190947 0)
(-0.0884625 0.139765 0)
(-0.0799482 0.0882648 0)
(-0.0751476 0.0367816 0)
(-0.0751577 -0.015162 0)
(-0.0802052 -0.0683402 0)
(-0.089592 -0.123356 0)
(-0.101505 -0.18004 0)
(-0.112756 -0.236527 0)
(-0.11861 -0.287799 0)
(-0.112968 -0.323645 0)
(-0.0899283 -0.326391 0)
(-0.05073 -0.269903 0)
(-0.0139548 -0.124568 0)
(-0.0180176 0.143975 0)
(-0.0561221 0.288069 0)
(-0.0844136 0.330189 0)
(-0.0892549 0.315949 0)
(-0.0754734 0.275528 0)
(-0.0521888 0.22567 0)
(-0.0265806 0.174498 0)
(-0.00354056 0.125165 0)
(0.0138152 0.0782049 0)
(0.0236388 0.0328601 0)
(0.0249517 -0.0122428 0)
(0.0174397 -0.0587296 0)
(0.00147849 -0.1082 0)
(-0.0215896 -0.161816 0)
(-0.0489173 -0.219475 0)
(-0.0754071 -0.278147 0)
(-0.0929261 -0.328873 0)
(-0.0906219 -0.352222 0)
(-0.0618068 -0.312876 0)
(-0.0200736 -0.158197 0)
(-0.025802 0.185842 0)
(-0.0664783 0.324096 0)
(-0.0732745 0.336325 0)
(-0.0467318 0.297878 0)
(-0.00305555 0.244308 0)
(0.0444456 0.190658 0)
(0.0879904 0.142115 0)
(0.123434 0.0993206 0)
(0.148733 0.0611104 0)
(0.162928 0.0257065 0)
(0.165535 -0.00887597 0)
(0.156252 -0.044744 0)
(0.134942 -0.084131 0)
(0.101897 -0.129317 0)
(0.0585141 -0.182188 0)
(0.0085544 -0.242845 0)
(-0.0399011 -0.306234 0)
(-0.0721847 -0.355577 0)
(-0.069336 -0.350044 0)
(-0.0274412 -0.203628 0)
(-0.0293427 0.243529 0)
(-0.0598162 0.341344 0)
(-0.0191091 0.303958 0)
(0.0551449 0.241111 0)
(0.133204 0.182101 0)
(0.202831 0.133448 0)
(0.259641 0.094915 0)
(0.302521 0.0641601 0)
(0.331733 0.0386325 0)
(0.347828 0.0160923 0)
(0.351109 -0.00544032 0)
(0.341411 -0.0278983 0)
(0.318044 -0.0534252 0)
(0.279905 -0.0846389 0)
(0.225941 -0.124775 0)
(0.156338 -0.177225 0)
(0.0747576 -0.243332 0)
(-0.00659318 -0.316437 0)
(-0.0556864 -0.3633 0)
(-0.0285377 -0.262495 0)
(0.0101279 0.28455 0)
(0.0235459 0.297957 0)
(0.144574 0.212242 0)
(0.27124 0.143168 0)
(0.371327 0.096055 0)
(0.446709 0.0643859 0)
(0.502012 0.0428604 0)
(0.540847 0.0276226 0)
(0.566049 0.0160638 0)
(0.579533 0.00645225 0)
(0.582248 -0.00247283 0)
(0.574215 -0.0118341 0)
(0.554481 -0.0229213 0)
(0.520971 -0.0375664 0)
(0.470372 -0.05867 0)
(0.398179 -0.0908208 0)
(0.298455 -0.140671 0)
(0.167516 -0.215877 0)
(0.0378405 -0.309113 0)
(0.0170514 -0.296651 0)
(0.301472 0.14654 0)
(0.399859 0.127646 0)
(0.561921 0.0756534 0)
(0.678878 0.0430553 0)
(0.747588 0.0249381 0)
(0.790047 0.0147467 0)
(0.817607 0.00885737 0)
(0.835396 0.00526303 0)
(0.846248 0.00285629 0)
(0.851741 0.00102611 0)
(0.852598 -0.000600215 0)
(0.848897 -0.00231993 0)
(0.840072 -0.00448305 0)
(0.824696 -0.00765939 0)
(0.799999 -0.0129271 0)
(0.760769 -0.0223879 0)
(0.695339 -0.0400817 0)
(0.579645 -0.0733665 0)
(0.412915 -0.127899 0)
(0.307627 -0.148804 0)
)
;

boundaryField
{
    movingWall
    {
        type            fixedValue;
        value           uniform (1 0 0);
    }
    fixedWalls
    {
        type            noSlip;
    }
    frontAndBack
    {
        type            empty;
    }
}


// ************************************************************************* //
