/*--------------------------------*- C++ -*----------------------------------*\
| =========                 |                                                 |
| \\      /  F ield         | OpenFOAM: The Open Source CFD Toolbox           |
|  \\    /   O peration     | Version:  2306                                  |
|   \\  /    A nd           | Website:  www.openfoam.com                      |
|    \\/     M anipulation  |                                                 |
\*---------------------------------------------------------------------------*/
FoamFile
{
    version     2.0;
    format      ascii;
    arch        "LSB;label=32;scalar=64";
    class       volScalarField;
    location    "1900";
    object      cp;
}
// * * * * * * * * * * * * * * * * * * * * * * * * * * * * * * * * * * * * * //

dimensions      [0 0 0 0 0 0 0];

internalField   nonuniform List<scalar> 
20540
(
1.34626
0.0955445
1.34624
0.0270424
1.34621
-0.0126933
1.34618
-0.0260787
1.34613
-0.0312432
1.34607
-0.0350687
1.34599
-0.038365
1.34589
-0.0410714
1.34576
-0.0433053
1.3456
-0.0452155
1.3454
-0.0468928
1.34515
-0.048386
1.34484
-0.0497233
1.34446
-0.0509214
1.344
-0.051988
1.34343
-0.052922
1.34274
-0.0537138
1.3419
-0.0543437
1.34089
-0.0547803
1.33969
-0.0549769
1.33825
-0.0548674
1.33657
-0.0543613
1.33462
-0.0533377
1.33244
-0.0516413
1.33007
-0.0490798
1.32766
-0.0454277
1.32547
-0.0404343
1.32399
-0.0338784
1.32397
-0.0258303
1.32598
-0.0172659
1.32919
-0.0110298
1.33138
-0.0078942
1.33125
-0.00830139
1.32889
-0.0121867
1.32578
-0.0190141
1.324
-0.0277507
1.32418
-0.0358584
1.32574
-0.0424957
1.32798
-0.0476138
1.33043
-0.0514162
1.33284
-0.0541356
1.33508
-0.0559869
1.33708
-0.0571563
1.33882
-0.0577973
1.34031
-0.0580309
1.34158
-0.0579496
1.34264
-0.0576221
1.34352
-0.057098
1.34425
-0.0564121
1.34486
-0.0555874
1.34536
-0.0546374
1.34577
-0.0535676
1.34611
-0.0523761
1.34638
-0.0510531
1.3466
-0.0495805
1.34679
-0.0479291
1.34693
-0.0460495
1.34705
-0.0438501
1.34714
-0.0411835
1.34721
-0.037935
1.34727
-0.0341553
1.34732
-0.0289773
1.34735
-0.0154572
1.34738
0.0242167
1.3474
0.0917929
-0.0300669
-0.0048239
-0.0429597
-0.0351855
-0.049116
-0.0507853
-0.0574373
-0.0613995
-0.0660021
-0.0700142
-0.0739005
-0.0775507
-0.0810122
-0.0842992
-0.0874196
-0.0903905
-0.0932177
-0.0959149
-0.0984862
-0.100943
-0.10329
-0.105536
-0.107683
-0.109741
-0.111711
-0.113601
-0.115413
-0.117152
-0.118821
-0.120424
-0.121964
-0.123445
-0.124868
-0.126238
-0.127555
-0.128823
-0.130045
-0.131222
-0.132357
-0.133453
-0.134511
-0.135535
-0.136528
-0.137492
-0.138432
-0.139351
-0.140253
-0.141144
-0.142028
-0.142914
-0.143806
-0.144715
-0.145648
-0.146618
-0.147635
-0.148713
-0.149868
-0.151115
-0.152471
-0.153958
-0.155593
-0.157409
-0.159423
-0.161329
-0.16297
-0.164688
-0.166491
-0.168387
-0.170381
-0.172476
-0.174674
-0.176981
-0.179398
-0.18194
-0.184605
-0.18742
-0.190372
-0.193511
-0.196788
-0.200309
-0.203944
-0.207939
-0.21199
-0.216698
-0.221342
-0.227362
-0.233825
-0.240747
-0.0301043
-0.00482371
-0.0429591
-0.0351851
-0.0491157
-0.0507851
-0.0574371
-0.0613993
-0.0660019
-0.0700141
-0.0739004
-0.0775506
-0.0810121
-0.0842991
-0.0874195
-0.0903905
-0.0932176
-0.0959149
-0.0984862
-0.100943
-0.10329
-0.105536
-0.107683
-0.109741
-0.111711
-0.113601
-0.115413
-0.117152
-0.118821
-0.120424
-0.121964
-0.123445
-0.124868
-0.126238
-0.127555
-0.128823
-0.130045
-0.131222
-0.132357
-0.133453
-0.134511
-0.135535
-0.136528
-0.137492
-0.138432
-0.139351
-0.140253
-0.141144
-0.142028
-0.142914
-0.143806
-0.144715
-0.145648
-0.146617
-0.147635
-0.148713
-0.149868
-0.151115
-0.152471
-0.153958
-0.155593
-0.157409
-0.159423
-0.16133
-0.16297
-0.164688
-0.166491
-0.168387
-0.170381
-0.172476
-0.174674
-0.176981
-0.179399
-0.181941
-0.184605
-0.187421
-0.190372
-0.193512
-0.196788
-0.20031
-0.203945
-0.20794
-0.211991
-0.2167
-0.221344
-0.227363
-0.233821
-0.240735
-0.0301735
-0.00482478
-0.0429584
-0.0351845
-0.0491152
-0.0507847
-0.0574368
-0.061399
-0.0660017
-0.0700138
-0.0739002
-0.0775504
-0.0810119
-0.0842989
-0.0874193
-0.0903903
-0.0932175
-0.0959148
-0.0984861
-0.100943
-0.10329
-0.105535
-0.107683
-0.109741
-0.111711
-0.113601
-0.115413
-0.117152
-0.118821
-0.120424
-0.121964
-0.123445
-0.124868
-0.126238
-0.127555
-0.128823
-0.130045
-0.131222
-0.132357
-0.133453
-0.134511
-0.135535
-0.136528
-0.137492
-0.138432
-0.139351
-0.140253
-0.141143
-0.142028
-0.142913
-0.143806
-0.144715
-0.145648
-0.146617
-0.147635
-0.148713
-0.149868
-0.151115
-0.152471
-0.153958
-0.155593
-0.157409
-0.159423
-0.16133
-0.16297
-0.164688
-0.166491
-0.168387
-0.170382
-0.172476
-0.174675
-0.176982
-0.179399
-0.181941
-0.184606
-0.187421
-0.190373
-0.193513
-0.196789
-0.200311
-0.203946
-0.207942
-0.211993
-0.216703
-0.221347
-0.227368
-0.233792
-0.240671
-0.0302755
-0.00482841
-0.042958
-0.0351834
-0.0491143
-0.0507839
-0.0574361
-0.0613985
-0.0660012
-0.0700134
-0.0738998
-0.0775501
-0.0810116
-0.0842986
-0.0874191
-0.09039
-0.0932172
-0.0959145
-0.0984858
-0.100943
-0.10329
-0.105535
-0.107683
-0.10974
-0.111711
-0.113601
-0.115412
-0.117151
-0.118821
-0.120424
-0.121964
-0.123445
-0.124868
-0.126237
-0.127555
-0.128823
-0.130045
-0.131222
-0.132357
-0.133452
-0.134511
-0.135535
-0.136528
-0.137492
-0.138432
-0.13935
-0.140253
-0.141143
-0.142028
-0.142913
-0.143806
-0.144715
-0.145648
-0.146617
-0.147635
-0.148713
-0.149868
-0.151115
-0.152471
-0.153958
-0.155593
-0.157409
-0.159423
-0.16133
-0.16297
-0.164689
-0.166491
-0.168388
-0.170382
-0.172477
-0.174676
-0.176983
-0.1794
-0.181942
-0.184607
-0.187423
-0.190375
-0.193515
-0.196792
-0.200314
-0.203949
-0.207946
-0.211995
-0.216708
-0.22135
-0.227376
-0.233722
-0.240698
-0.0304219
-0.00483697
-0.0429586
-0.0351823
-0.0491131
-0.0507828
-0.0574351
-0.0613976
-0.0660004
-0.0700127
-0.0738991
-0.0775495
-0.081011
-0.0842981
-0.0874186
-0.0903896
-0.0932168
-0.0959141
-0.0984855
-0.100943
-0.10329
-0.105535
-0.107683
-0.10974
-0.111711
-0.1136
-0.115412
-0.117151
-0.11882
-0.120424
-0.121964
-0.123444
-0.124868
-0.126237
-0.127555
-0.128823
-0.130045
-0.131222
-0.132357
-0.133452
-0.134511
-0.135535
-0.136528
-0.137492
-0.138432
-0.13935
-0.140252
-0.141143
-0.142028
-0.142913
-0.143806
-0.144715
-0.145648
-0.146617
-0.147635
-0.148713
-0.149868
-0.151115
-0.152471
-0.153958
-0.155593
-0.15741
-0.159424
-0.16133
-0.162971
-0.164689
-0.166492
-0.168388
-0.170383
-0.172478
-0.174677
-0.176984
-0.179402
-0.181944
-0.184609
-0.187425
-0.190377
-0.193518
-0.196795
-0.200318
-0.203952
-0.207951
-0.211998
-0.216715
-0.221351
-0.227382
-0.233609
-0.240759
-0.0306241
-0.00485337
-0.0429615
-0.0351816
-0.0491119
-0.0507814
-0.0574339
-0.0613964
-0.0659993
-0.0700117
-0.0738982
-0.0775486
-0.0810102
-0.0842974
-0.0874179
-0.090389
-0.0932162
-0.0959136
-0.0984849
-0.100942
-0.103289
-0.105535
-0.107682
-0.10974
-0.11171
-0.1136
-0.115412
-0.117151
-0.11882
-0.120423
-0.121964
-0.123444
-0.124868
-0.126237
-0.127554
-0.128823
-0.130044
-0.131221
-0.132356
-0.133452
-0.13451
-0.135535
-0.136527
-0.137492
-0.138431
-0.13935
-0.140252
-0.141143
-0.142028
-0.142913
-0.143806
-0.144714
-0.145648
-0.146617
-0.147635
-0.148713
-0.149868
-0.151115
-0.152471
-0.153958
-0.155593
-0.15741
-0.159424
-0.161331
-0.162972
-0.16469
-0.166493
-0.16839
-0.170385
-0.172479
-0.174678
-0.176986
-0.179404
-0.181946
-0.184612
-0.187428
-0.19038
-0.193521
-0.196798
-0.200322
-0.203955
-0.207956
-0.211999
-0.21672
-0.221345
-0.22738
-0.233448
-0.240797
-0.0308934
-0.0048803
-0.0429679
-0.0351821
-0.049111
-0.05078
-0.0574325
-0.061395
-0.065998
-0.0700105
-0.0738971
-0.0775476
-0.0810093
-0.0842965
-0.087417
-0.0903882
-0.0932154
-0.0959128
-0.0984842
-0.100941
-0.103288
-0.105534
-0.107682
-0.109739
-0.11171
-0.113599
-0.115411
-0.11715
-0.118819
-0.120423
-0.121963
-0.123444
-0.124867
-0.126236
-0.127554
-0.128822
-0.130044
-0.131221
-0.132356
-0.133452
-0.13451
-0.135534
-0.136527
-0.137491
-0.138431
-0.13935
-0.140252
-0.141143
-0.142028
-0.142913
-0.143806
-0.144714
-0.145648
-0.146617
-0.147634
-0.148713
-0.149868
-0.151115
-0.152471
-0.153958
-0.155594
-0.15741
-0.159425
-0.161332
-0.162973
-0.164691
-0.166494
-0.168391
-0.170386
-0.172481
-0.17468
-0.176988
-0.179406
-0.181949
-0.184615
-0.187431
-0.190383
-0.193525
-0.196801
-0.200326
-0.203957
-0.20796
-0.211997
-0.216722
-0.221328
-0.227363
-0.233229
-0.240769
-0.0312438
-0.00492021
-0.0429793
-0.0351842
-0.0491109
-0.0507788
-0.0574311
-0.0613935
-0.0659965
-0.0700091
-0.0738957
-0.0775463
-0.0810081
-0.0842953
-0.087416
-0.0903871
-0.0932144
-0.0959119
-0.0984833
-0.100941
-0.103288
-0.105533
-0.107681
-0.109738
-0.111709
-0.113599
-0.115411
-0.11715
-0.118819
-0.120422
-0.121963
-0.123443
-0.124867
-0.126236
-0.127553
-0.128822
-0.130043
-0.13122
-0.132356
-0.133451
-0.13451
-0.135534
-0.136527
-0.137491
-0.138431
-0.139349
-0.140252
-0.141142
-0.142027
-0.142912
-0.143805
-0.144714
-0.145647
-0.146617
-0.147634
-0.148713
-0.149868
-0.151115
-0.152471
-0.153958
-0.155594
-0.157411
-0.159425
-0.161333
-0.162973
-0.164692
-0.166495
-0.168392
-0.170387
-0.172483
-0.174682
-0.17699
-0.179408
-0.181951
-0.184617
-0.187434
-0.190386
-0.193528
-0.196803
-0.200328
-0.203957
-0.207961
-0.211989
-0.216717
-0.221293
-0.227324
-0.232942
-0.240634
-0.031693
-0.00497587
-0.0429973
-0.0351888
-0.049112
-0.0507781
-0.0574298
-0.0613919
-0.0659949
-0.0700075
-0.0738942
-0.0775448
-0.0810066
-0.084294
-0.0874147
-0.0903859
-0.0932133
-0.0959108
-0.0984823
-0.10094
-0.103287
-0.105532
-0.10768
-0.109737
-0.111708
-0.113598
-0.11541
-0.117149
-0.118818
-0.120421
-0.121962
-0.123442
-0.124866
-0.126235
-0.127553
-0.128821
-0.130043
-0.13122
-0.132355
-0.133451
-0.134509
-0.135533
-0.136526
-0.13749
-0.13843
-0.139349
-0.140251
-0.141142
-0.142027
-0.142912
-0.143805
-0.144713
-0.145647
-0.146616
-0.147634
-0.148713
-0.149868
-0.151115
-0.152471
-0.153959
-0.155594
-0.157411
-0.159426
-0.161333
-0.162974
-0.164693
-0.166496
-0.168393
-0.170389
-0.172484
-0.174684
-0.176992
-0.17941
-0.181953
-0.184619
-0.187436
-0.190387
-0.193529
-0.196803
-0.200328
-0.203952
-0.207957
-0.211972
-0.2167
-0.221234
-0.227252
-0.232576
-0.240343
-0.0322633
-0.00505079
-0.0430234
-0.0351968
-0.0491149
-0.0507782
-0.057429
-0.0613906
-0.0659934
-0.0700058
-0.0738925
-0.0775432
-0.081005
-0.0842924
-0.0874131
-0.0903844
-0.0932118
-0.0959094
-0.0984809
-0.100938
-0.103285
-0.105531
-0.107679
-0.109736
-0.111707
-0.113597
-0.115409
-0.117148
-0.118817
-0.12042
-0.121961
-0.123441
-0.124865
-0.126234
-0.127552
-0.12882
-0.130042
-0.131219
-0.132354
-0.13345
-0.134508
-0.135533
-0.136525
-0.13749
-0.138429
-0.139348
-0.14025
-0.141141
-0.142026
-0.142911
-0.143804
-0.144713
-0.145647
-0.146616
-0.147634
-0.148712
-0.149867
-0.151115
-0.152471
-0.153959
-0.155594
-0.157411
-0.159426
-0.161334
-0.162975
-0.164694
-0.166497
-0.168394
-0.17039
-0.172485
-0.174685
-0.176993
-0.179411
-0.181954
-0.18462
-0.187436
-0.190387
-0.193528
-0.196799
-0.200323
-0.20394
-0.207943
-0.211941
-0.216664
-0.221139
-0.227129
-0.23212
-0.239843
-0.0329812
-0.00514948
-0.0430596
-0.0352092
-0.0491203
-0.0507795
-0.0574289
-0.0613896
-0.065992
-0.0700042
-0.0738908
-0.0775414
-0.0810032
-0.0842906
-0.0874114
-0.0903828
-0.0932102
-0.0959078
-0.0984794
-0.100937
-0.103284
-0.10553
-0.107678
-0.109735
-0.111706
-0.113595
-0.115408
-0.117147
-0.118816
-0.120419
-0.12196
-0.12344
-0.124864
-0.126233
-0.127551
-0.128819
-0.130041
-0.131218
-0.132353
-0.133449
-0.134507
-0.135532
-0.136524
-0.137489
-0.138428
-0.139347
-0.14025
-0.14114
-0.142025
-0.142911
-0.143803
-0.144712
-0.145646
-0.146615
-0.147633
-0.148712
-0.149867
-0.151114
-0.152471
-0.153958
-0.155594
-0.157411
-0.159426
-0.161334
-0.162975
-0.164694
-0.166498
-0.168395
-0.17039
-0.172486
-0.174685
-0.176993
-0.17941
-0.181953
-0.184618
-0.187434
-0.190382
-0.193522
-0.196789
-0.20031
-0.203917
-0.207915
-0.211889
-0.216599
-0.220994
-0.22693
-0.231565
-0.239085
-0.0338782
-0.00527757
-0.0431082
-0.0352269
-0.0491289
-0.0507826
-0.0574299
-0.0613892
-0.065991
-0.0700028
-0.0738892
-0.0775396
-0.0810014
-0.0842888
-0.0874096
-0.0903809
-0.0932084
-0.0959061
-0.0984777
-0.100935
-0.103282
-0.105528
-0.107676
-0.109733
-0.111704
-0.113594
-0.115406
-0.117145
-0.118815
-0.120418
-0.121959
-0.123439
-0.124863
-0.126232
-0.12755
-0.128818
-0.13004
-0.131217
-0.132352
-0.133448
-0.134506
-0.135531
-0.136523
-0.137488
-0.138427
-0.139346
-0.140249
-0.141139
-0.142024
-0.14291
-0.143803
-0.144711
-0.145645
-0.146615
-0.147632
-0.148711
-0.149866
-0.151114
-0.15247
-0.153958
-0.155594
-0.157411
-0.159426
-0.161334
-0.162975
-0.164694
-0.166497
-0.168394
-0.170389
-0.172484
-0.174683
-0.17699
-0.179407
-0.181949
-0.184612
-0.187426
-0.190372
-0.193508
-0.196768
-0.200284
-0.203877
-0.207865
-0.211805
-0.21649
-0.220784
-0.22662
-0.230894
-0.23803
-0.034991
-0.00544209
-0.0431718
-0.0352514
-0.0491414
-0.0507879
-0.0574324
-0.0613899
-0.0659907
-0.0700018
-0.0738878
-0.0775381
-0.0809997
-0.084287
-0.0874078
-0.0903791
-0.0932066
-0.0959042
-0.0984759
-0.100933
-0.103281
-0.105526
-0.107674
-0.109732
-0.111703
-0.113592
-0.115405
-0.117144
-0.118813
-0.120416
-0.121957
-0.123438
-0.124861
-0.126231
-0.127548
-0.128817
-0.130038
-0.131216
-0.132351
-0.133446
-0.134505
-0.135529
-0.136522
-0.137486
-0.138426
-0.139345
-0.140247
-0.141138
-0.142023
-0.142909
-0.143801
-0.14471
-0.145644
-0.146613
-0.147631
-0.14871
-0.149865
-0.151113
-0.152469
-0.153957
-0.155593
-0.15741
-0.159425
-0.161332
-0.162973
-0.164692
-0.166494
-0.168391
-0.170385
-0.17248
-0.174677
-0.176984
-0.179399
-0.181939
-0.184599
-0.18741
-0.190351
-0.193482
-0.196733
-0.200238
-0.203812
-0.207781
-0.211676
-0.216314
-0.220489
-0.226158
-0.230088
-0.236654
-0.0363615
-0.00565168
-0.0432538
-0.0352841
-0.0491589
-0.050796
-0.0574369
-0.0613918
-0.0659913
-0.0700016
-0.0738871
-0.077537
-0.0809983
-0.0842855
-0.0874061
-0.0903773
-0.0932048
-0.0959024
-0.098474
-0.100931
-0.103279
-0.105524
-0.107672
-0.10973
-0.111701
-0.113591
-0.115403
-0.117142
-0.118811
-0.120415
-0.121955
-0.123436
-0.12486
-0.126229
-0.127547
-0.128815
-0.130037
-0.131214
-0.132349
-0.133445
-0.134504
-0.135528
-0.136521
-0.137485
-0.138425
-0.139344
-0.140246
-0.141137
-0.142022
-0.142907
-0.1438
-0.144709
-0.145643
-0.146612
-0.14763
-0.148709
-0.149864
-0.151111
-0.152468
-0.153955
-0.155591
-0.157407
-0.159422
-0.161329
-0.162969
-0.164687
-0.166489
-0.168385
-0.170378
-0.172471
-0.174667
-0.176971
-0.179384
-0.181921
-0.184577
-0.187383
-0.190316
-0.193437
-0.196674
-0.200163
-0.20371
-0.207647
-0.211485
-0.216044
-0.220081
-0.2255
-0.229117
-0.234959
-0.0380361
-0.00591691
-0.043358
-0.0353267
-0.0491822
-0.0508075
-0.0574437
-0.0613953
-0.0659932
-0.0700023
-0.073887
-0.0775364
-0.0809975
-0.0842843
-0.0874047
-0.0903758
-0.0932032
-0.0959007
-0.0984722
-0.10093
-0.103277
-0.105522
-0.107671
-0.109728
-0.111699
-0.113589
-0.115401
-0.11714
-0.118809
-0.120413
-0.121953
-0.123434
-0.124858
-0.126227
-0.127545
-0.128813
-0.130035
-0.131212
-0.132348
-0.133443
-0.134502
-0.135526
-0.136519
-0.137483
-0.138423
-0.139342
-0.140244
-0.141135
-0.14202
-0.142905
-0.143798
-0.144707
-0.145641
-0.14661
-0.147628
-0.148707
-0.149861
-0.151109
-0.152465
-0.153952
-0.155587
-0.157403
-0.159417
-0.161323
-0.162962
-0.16468
-0.16648
-0.168374
-0.170365
-0.172456
-0.174648
-0.176949
-0.179358
-0.181889
-0.184539
-0.187336
-0.190259
-0.193365
-0.196582
-0.200045
-0.203555
-0.20744
-0.211208
-0.215643
-0.21953
-0.224604
-0.227941
-0.232973
-0.0400638
-0.00625056
-0.043489
-0.0353812
-0.0492126
-0.0508232
-0.0574534
-0.061401
-0.0659966
-0.0700042
-0.073888
-0.0775368
-0.0809973
-0.0842838
-0.0874039
-0.0903748
-0.093202
-0.0958994
-0.0984708
-0.100928
-0.103275
-0.105521
-0.107669
-0.109726
-0.111697
-0.113587
-0.115399
-0.117138
-0.118808
-0.120411
-0.121952
-0.123432
-0.124856
-0.126225
-0.127543
-0.128812
-0.130033
-0.131211
-0.132346
-0.133441
-0.1345
-0.135524
-0.136517
-0.137482
-0.138421
-0.13934
-0.140242
-0.141133
-0.142018
-0.142904
-0.143796
-0.144705
-0.145639
-0.146608
-0.147625
-0.148704
-0.149858
-0.151106
-0.152461
-0.153948
-0.155582
-0.157397
-0.15941
-0.161314
-0.162951
-0.164667
-0.166465
-0.168356
-0.170343
-0.172431
-0.174618
-0.176914
-0.179315
-0.181839
-0.184479
-0.187263
-0.190169
-0.193253
-0.196442
-0.199864
-0.203325
-0.207132
-0.210813
-0.21507
-0.218792
-0.223439
-0.226518
-0.230739
-0.0424925
-0.0066679
-0.0436519
-0.0354501
-0.0492512
-0.050844
-0.0574665
-0.0614091
-0.066002
-0.0700078
-0.0738903
-0.0775382
-0.0809982
-0.0842842
-0.0874039
-0.0903746
-0.0932015
-0.0958987
-0.09847
-0.100927
-0.103274
-0.10552
-0.107668
-0.109725
-0.111696
-0.113585
-0.115398
-0.117137
-0.118806
-0.120409
-0.12195
-0.123431
-0.124854
-0.126224
-0.127541
-0.12881
-0.130032
-0.131209
-0.132344
-0.13344
-0.134498
-0.135523
-0.136515
-0.13748
-0.138419
-0.139338
-0.140241
-0.141131
-0.142016
-0.142901
-0.143794
-0.144703
-0.145636
-0.146605
-0.147622
-0.1487
-0.149854
-0.151101
-0.152455
-0.153941
-0.155574
-0.157387
-0.159398
-0.161299
-0.162933
-0.164646
-0.16644
-0.168327
-0.170309
-0.172391
-0.174571
-0.176858
-0.17925
-0.181761
-0.184385
-0.18715
-0.190032
-0.193083
-0.196232
-0.199595
-0.202991
-0.206686
-0.210258
-0.21428
-0.217816
-0.22198
-0.224808
-0.228304
-0.0453634
-0.00718686
-0.0438528
-0.0355358
-0.0492994
-0.0508705
-0.0574837
-0.0614203
-0.0660097
-0.0700132
-0.0738943
-0.0775411
-0.0810003
-0.0842857
-0.087405
-0.0903753
-0.0932019
-0.0958988
-0.09847
-0.100927
-0.103274
-0.105519
-0.107667
-0.109724
-0.111695
-0.113585
-0.115397
-0.117136
-0.118805
-0.120408
-0.121949
-0.123429
-0.124853
-0.126222
-0.12754
-0.128808
-0.13003
-0.131207
-0.132343
-0.133438
-0.134497
-0.135521
-0.136514
-0.137478
-0.138418
-0.139336
-0.140239
-0.141129
-0.142014
-0.142899
-0.143792
-0.1447
-0.145633
-0.146602
-0.147618
-0.148695
-0.149849
-0.151094
-0.152447
-0.153931
-0.155561
-0.157372
-0.159379
-0.161277
-0.162906
-0.164614
-0.166403
-0.168283
-0.170257
-0.172329
-0.174499
-0.176773
-0.179149
-0.181642
-0.184244
-0.18698
-0.189827
-0.19283
-0.195924
-0.199204
-0.202514
-0.206058
-0.209492
-0.213229
-0.216549
-0.220215
-0.222789
-0.2257
-0.0487014
-0.00782795
-0.0440981
-0.0356413
-0.0493585
-0.0509038
-0.0575054
-0.0614348
-0.06602
-0.0700209
-0.0739001
-0.0775457
-0.0810039
-0.0842887
-0.0874074
-0.0903773
-0.0932035
-0.0959001
-0.098471
-0.100928
-0.103274
-0.10552
-0.107667
-0.109724
-0.111695
-0.113584
-0.115396
-0.117135
-0.118805
-0.120408
-0.121948
-0.123429
-0.124852
-0.126222
-0.127539
-0.128808
-0.130029
-0.131206
-0.132342
-0.133437
-0.134496
-0.13552
-0.136512
-0.137477
-0.138416
-0.139335
-0.140237
-0.141128
-0.142012
-0.142897
-0.143789
-0.144697
-0.145629
-0.146597
-0.147613
-0.148689
-0.149841
-0.151084
-0.152435
-0.153916
-0.155543
-0.157349
-0.159351
-0.161242
-0.162865
-0.164566
-0.166346
-0.168217
-0.170179
-0.172237
-0.174391
-0.176646
-0.179
-0.181465
-0.184035
-0.186729
-0.189527
-0.192462
-0.195481
-0.198649
-0.201843
-0.205196
-0.208454
-0.21187
-0.214939
-0.218129
-0.22045
-0.222924
-0.0525025
-0.00861378
-0.0443945
-0.0357695
-0.0494295
-0.0509449
-0.0575322
-0.0614534
-0.0660335
-0.0700312
-0.0739082
-0.0775523
-0.0810094
-0.0842934
-0.0874114
-0.0903808
-0.0932066
-0.0959028
-0.0984734
-0.10093
-0.103276
-0.105521
-0.107669
-0.109726
-0.111696
-0.113585
-0.115397
-0.117136
-0.118805
-0.120408
-0.121949
-0.123429
-0.124853
-0.126222
-0.127539
-0.128808
-0.130029
-0.131206
-0.132341
-0.133437
-0.134495
-0.135519
-0.136512
-0.137476
-0.138416
-0.139334
-0.140236
-0.141126
-0.14201
-0.142894
-0.143786
-0.144693
-0.145625
-0.146592
-0.147606
-0.148681
-0.14983
-0.151071
-0.152419
-0.153895
-0.155517
-0.157316
-0.15931
-0.161191
-0.162804
-0.164494
-0.166262
-0.168118
-0.170063
-0.172101
-0.174231
-0.176458
-0.178781
-0.181206
-0.18373
-0.186365
-0.189094
-0.191937
-0.194853
-0.197876
-0.200917
-0.204043
-0.207081
-0.210157
-0.212944
-0.215704
-0.217786
-0.219939
-0.0567163
-0.0095672
-0.0447489
-0.0359232
-0.0495134
-0.0509944
-0.0575644
-0.0614764
-0.0660503
-0.0700446
-0.0739189
-0.0775613
-0.0810171
-0.0843001
-0.0874174
-0.0903861
-0.0932114
-0.0959072
-0.0984774
-0.100934
-0.10328
-0.105524
-0.107672
-0.109728
-0.111699
-0.113588
-0.115399
-0.117138
-0.118807
-0.12041
-0.12195
-0.123431
-0.124854
-0.126223
-0.127541
-0.128809
-0.13003
-0.131207
-0.132342
-0.133438
-0.134496
-0.13552
-0.136512
-0.137476
-0.138416
-0.139334
-0.140235
-0.141125
-0.142009
-0.142892
-0.143783
-0.144689
-0.145619
-0.146585
-0.147597
-0.148669
-0.149815
-0.151052
-0.152394
-0.153864
-0.155478
-0.157267
-0.159248
-0.161116
-0.162714
-0.164388
-0.166137
-0.167972
-0.169892
-0.171901
-0.173998
-0.176185
-0.178461
-0.180831
-0.18329
-0.185844
-0.188478
-0.1912
-0.193978
-0.196821
-0.199667
-0.202533
-0.205311
-0.208041
-0.210527
-0.212907
-0.214771
-0.216673
-0.0612257
-0.0107076
-0.0451679
-0.0361051
-0.0496103
-0.0510532
-0.0576023
-0.0615041
-0.0660709
-0.0700612
-0.0739325
-0.077573
-0.0810273
-0.0843091
-0.0874255
-0.0903936
-0.0932183
-0.0959136
-0.0984834
-0.100939
-0.103285
-0.105529
-0.107676
-0.109733
-0.111703
-0.113592
-0.115403
-0.117142
-0.118811
-0.120414
-0.121954
-0.123434
-0.124857
-0.126226
-0.127543
-0.128811
-0.130033
-0.13121
-0.132345
-0.13344
-0.134498
-0.135522
-0.136514
-0.137478
-0.138417
-0.139334
-0.140235
-0.141125
-0.142007
-0.14289
-0.143779
-0.144684
-0.145612
-0.146575
-0.147584
-0.148652
-0.149793
-0.151024
-0.152359
-0.153819
-0.155421
-0.157194
-0.159158
-0.161004
-0.162581
-0.164232
-0.165955
-0.167759
-0.169644
-0.171611
-0.173659
-0.175791
-0.178002
-0.180295
-0.182663
-0.185107
-0.187614
-0.190181
-0.192781
-0.195407
-0.198015
-0.200595
-0.203079
-0.205467
-0.207649
-0.209691
-0.211352
-0.213029
-0.0658282
-0.0120452
-0.0456564
-0.036317
-0.0497198
-0.0511215
-0.0576457
-0.061537
-0.0660952
-0.0700814
-0.0739493
-0.0775876
-0.0810402
-0.0843208
-0.0874362
-0.0904034
-0.0932275
-0.0959222
-0.0984916
-0.100947
-0.103292
-0.105536
-0.107683
-0.109739
-0.111709
-0.113598
-0.115409
-0.117147
-0.118816
-0.120419
-0.121959
-0.123439
-0.124862
-0.126231
-0.127548
-0.128816
-0.130037
-0.131214
-0.132349
-0.133444
-0.134502
-0.135525
-0.136517
-0.137481
-0.138419
-0.139336
-0.140236
-0.141125
-0.142006
-0.142887
-0.143775
-0.144677
-0.145602
-0.146561
-0.147566
-0.148628
-0.149762
-0.150983
-0.152307
-0.153753
-0.155337
-0.157088
-0.159024
-0.16084
-0.162387
-0.164004
-0.165689
-0.167449
-0.169283
-0.171191
-0.173173
-0.175226
-0.177347
-0.179535
-0.181781
-0.184081
-0.186423
-0.188795
-0.191176
-0.193548
-0.195881
-0.198153
-0.200323
-0.202375
-0.204253
-0.205987
-0.207445
-0.208896
-0.0702242
-0.013574
-0.0462151
-0.0365596
-0.0498397
-0.0511994
-0.0576939
-0.061575
-0.0661234
-0.0701053
-0.0739694
-0.0776053
-0.0810561
-0.0843353
-0.0874496
-0.090416
-0.0932393
-0.0959334
-0.0985022
-0.100957
-0.103302
-0.105546
-0.107692
-0.109748
-0.111718
-0.113606
-0.115417
-0.117155
-0.118824
-0.120426
-0.121966
-0.123446
-0.124869
-0.126237
-0.127554
-0.128822
-0.130043
-0.13122
-0.132354
-0.133449
-0.134507
-0.13553
-0.136522
-0.137485
-0.138422
-0.139339
-0.140238
-0.141125
-0.142004
-0.142883
-0.143768
-0.144666
-0.145587
-0.146541
-0.147538
-0.148592
-0.149715
-0.150923
-0.15223
-0.153654
-0.155213
-0.156931
-0.158827
-0.160599
-0.162104
-0.163673
-0.165303
-0.167001
-0.168764
-0.170591
-0.172479
-0.174425
-0.176425
-0.178472
-0.180558
-0.182674
-0.184808
-0.186944
-0.189065
-0.191151
-0.193178
-0.195125
-0.196968
-0.198692
-0.200268
-0.201709
-0.202953
-0.204165
-0.0740229
-0.0152614
-0.0468358
-0.0368311
-0.0499661
-0.051286
-0.0577456
-0.0616178
-0.0661551
-0.0701329
-0.0739928
-0.0776263
-0.0810751
-0.0843529
-0.0874659
-0.0904313
-0.0932539
-0.0959472
-0.0985155
-0.10097
-0.103314
-0.105558
-0.107704
-0.109759
-0.111729
-0.113617
-0.115427
-0.117165
-0.118834
-0.120436
-0.121975
-0.123455
-0.124878
-0.126246
-0.127563
-0.128831
-0.130052
-0.131228
-0.132362
-0.133457
-0.134514
-0.135537
-0.136528
-0.13749
-0.138427
-0.139342
-0.14024
-0.141124
-0.142001
-0.142877
-0.143757
-0.144651
-0.145565
-0.14651
-0.147497
-0.148538
-0.149645
-0.150833
-0.152115
-0.153508
-0.15503
-0.1567
-0.158538
-0.160246
-0.161691
-0.163193
-0.164747
-0.166358
-0.168023
-0.169739
-0.171501
-0.173305
-0.175143
-0.177009
-0.178892
-0.180781
-0.182663
-0.184524
-0.186348
-0.188117
-0.189815
-0.191426
-0.192934
-0.194329
-0.1956
-0.196751
-0.197755
-0.198709
-0.0767783
-0.017038
-0.0474941
-0.037127
-0.0500923
-0.0513796
-0.0577987
-0.0616648
-0.0661896
-0.070164
-0.0740193
-0.0776505
-0.0810971
-0.0843734
-0.0874852
-0.0904496
-0.0932712
-0.0959639
-0.0985315
-0.100985
-0.103329
-0.105572
-0.107718
-0.109773
-0.111742
-0.11363
-0.11544
-0.117178
-0.118846
-0.120448
-0.121987
-0.123467
-0.124889
-0.126258
-0.127574
-0.128842
-0.130062
-0.131238
-0.132372
-0.133467
-0.134523
-0.135546
-0.136536
-0.137497
-0.138432
-0.139345
-0.140241
-0.141122
-0.141996
-0.142866
-0.14374
-0.144626
-0.14553
-0.146463
-0.147435
-0.148457
-0.14954
-0.150698
-0.151944
-0.153293
-0.15476
-0.156362
-0.158117
-0.159736
-0.161097
-0.162505
-0.163955
-0.165448
-0.16698
-0.168548
-0.170144
-0.171763
-0.173396
-0.175035
-0.176669
-0.178287
-0.179877
-0.181427
-0.182923
-0.184353
-0.185705
-0.186971
-0.18814
-0.189208
-0.190174
-0.191041
-0.191795
-0.192484
-0.0780735
-0.0187863
-0.0481408
-0.0374377
-0.050208
-0.0514773
-0.0578501
-0.0617146
-0.0662257
-0.0701977
-0.0740484
-0.0776774
-0.081122
-0.0843967
-0.0875072
-0.0904705
-0.0932912
-0.0959831
-0.09855
-0.101003
-0.103347
-0.105589
-0.107734
-0.109789
-0.111758
-0.113645
-0.115455
-0.117192
-0.11886
-0.120462
-0.122001
-0.12348
-0.124903
-0.126271
-0.127587
-0.128854
-0.130075
-0.131251
-0.132384
-0.133478
-0.134534
-0.135555
-0.136544
-0.137504
-0.138437
-0.139348
-0.14024
-0.141117
-0.141984
-0.142847
-0.143712
-0.144586
-0.145476
-0.146391
-0.147341
-0.148335
-0.149384
-0.1505
-0.151694
-0.152979
-0.154368
-0.155874
-0.157512
-0.159007
-0.160254
-0.161535
-0.162844
-0.16418
-0.165539
-0.166914
-0.168299
-0.169687
-0.171068
-0.172435
-0.173777
-0.175085
-0.17635
-0.177563
-0.178714
-0.179794
-0.1808
-0.181726
-0.182564
-0.183312
-0.183967
-0.184532
-0.185008
-0.18542
-0.0776566
-0.0203329
-0.0486941
-0.0377471
-0.0502993
-0.0515749
-0.0578954
-0.0617653
-0.0662616
-0.0702329
-0.0740791
-0.0777063
-0.0811488
-0.084422
-0.0875313
-0.0904936
-0.0933133
-0.0960044
-0.0985706
-0.101023
-0.103366
-0.105608
-0.107753
-0.109807
-0.111775
-0.113662
-0.115472
-0.117209
-0.118876
-0.120478
-0.122017
-0.123496
-0.124918
-0.126286
-0.127602
-0.128869
-0.130089
-0.131264
-0.132397
-0.13349
-0.134546
-0.135566
-0.136553
-0.13751
-0.138441
-0.139348
-0.140234
-0.141105
-0.141964
-0.142817
-0.143668
-0.144525
-0.145394
-0.146284
-0.147201
-0.148155
-0.149155
-0.15021
-0.151331
-0.152526
-0.153806
-0.155179
-0.156656
-0.157985
-0.159081
-0.160195
-0.16132
-0.162455
-0.163594
-0.16473
-0.165857
-0.166967
-0.168054
-0.16911
-0.170128
-0.1711
-0.17202
-0.172881
-0.173679
-0.174408
-0.175063
-0.175641
-0.17614
-0.17656
-0.176903
-0.177174
-0.177378
-0.177526
-0.0755799
-0.0214627
-0.0490546
-0.038028
-0.0503529
-0.0516654
-0.0579306
-0.0618135
-0.0662951
-0.0702675
-0.0741095
-0.0777354
-0.0811762
-0.0844481
-0.0875562
-0.0905175
-0.0933363
-0.0960266
-0.0985921
-0.101044
-0.103386
-0.105628
-0.107772
-0.109826
-0.111794
-0.11368
-0.11549
-0.117227
-0.118894
-0.120495
-0.122034
-0.123512
-0.124934
-0.126302
-0.127618
-0.128884
-0.130104
-0.131279
-0.132411
-0.133503
-0.134557
-0.135575
-0.13656
-0.137514
-0.138441
-0.139342
-0.140222
-0.141083
-0.14193
-0.142768
-0.1436
-0.144433
-0.145273
-0.146124
-0.146996
-0.147893
-0.148824
-0.149796
-0.150814
-0.151886
-0.153018
-0.154212
-0.155475
-0.156588
-0.157489
-0.158391
-0.159287
-0.160175
-0.161048
-0.161901
-0.162729
-0.163526
-0.164287
-0.165005
-0.165675
-0.166296
-0.16686
-0.167364
-0.167804
-0.168177
-0.168484
-0.168724
-0.1689
-0.169013
-0.169069
-0.169073
-0.169032
-0.168946
-0.0722006
-0.0220136
-0.0491848
-0.0382339
-0.0503733
-0.0517367
-0.0579548
-0.0618543
-0.0663236
-0.0702983
-0.0741371
-0.0777621
-0.0812015
-0.0844724
-0.0875795
-0.09054
-0.0933581
-0.0960477
-0.0986126
-0.101064
-0.103406
-0.105647
-0.10779
-0.109844
-0.111811
-0.113698
-0.115507
-0.117243
-0.11891
-0.120511
-0.12205
-0.123528
-0.12495
-0.126317
-0.127632
-0.128899
-0.130118
-0.131292
-0.132423
-0.133514
-0.134566
-0.135582
-0.136564
-0.137514
-0.138434
-0.139328
-0.140197
-0.141046
-0.141876
-0.142693
-0.143498
-0.144298
-0.145096
-0.145896
-0.146704
-0.147524
-0.148361
-0.149218
-0.1501
-0.151008
-0.151945
-0.152907
-0.153896
-0.154738
-0.155401
-0.156047
-0.156671
-0.157269
-0.157838
-0.158374
-0.158872
-0.159329
-0.159743
-0.160111
-0.160428
-0.160692
-0.160901
-0.161054
-0.16115
-0.161191
-0.161178
-0.161115
-0.161005
-0.160853
-0.160663
-0.160441
-0.160191
-0.159909
-0.0685999
-0.0220287
-0.0491914
-0.0383016
-0.0503918
-0.0517683
-0.0579717
-0.0618781
-0.0663427
-0.0703187
-0.0741558
-0.0777805
-0.0812191
-0.0844895
-0.0875959
-0.090556
-0.0933734
-0.0960627
-0.098627
-0.101078
-0.103419
-0.10566
-0.107803
-0.109857
-0.111824
-0.11371
-0.115519
-0.117255
-0.118922
-0.120523
-0.122061
-0.123539
-0.12496
-0.126327
-0.127643
-0.128908
-0.130127
-0.1313
-0.13243
-0.13352
-0.13457
-0.135583
-0.136561
-0.137505
-0.138419
-0.139303
-0.140161
-0.140993
-0.141804
-0.142595
-0.143369
-0.144128
-0.144876
-0.145616
-0.146349
-0.147078
-0.147806
-0.148532
-0.149258
-0.149982
-0.150703
-0.151413
-0.15211
-0.15267
-0.15309
-0.15348
-0.153835
-0.154154
-0.154435
-0.154674
-0.154872
-0.155027
-0.155138
-0.155201
-0.155217
-0.155185
-0.155105
-0.154977
-0.154805
-0.15459
-0.154336
-0.154047
-0.153727
-0.153381
-0.153012
-0.152624
-0.152221
-0.151795
-0.0662391
-0.0219011
-0.0491232
-0.03829
-0.0503914
-0.0517709
-0.0579756
-0.0618849
-0.0663495
-0.0703264
-0.0741634
-0.0777882
-0.0812266
-0.084497
-0.0876031
-0.0905631
-0.0933803
-0.0960695
-0.0986336
-0.101085
-0.103426
-0.105666
-0.107809
-0.109863
-0.11183
-0.113716
-0.115525