/*--------------------------------*- C++ -*----------------------------------*\
| =========                 |                                                 |
| \\      /  F ield         | OpenFOAM: The Open Source CFD Toolbox           |
|  \\    /   O peration     | Version:  2306                                  |
|   \\  /    A nd           | Website:  www.openfoam.com                      |
|    \\/     M anipulation  |                                                 |
\*---------------------------------------------------------------------------*/
FoamFile
{
    version     2.0;
    format      ascii;
    arch        "LSB;label=32;scalar=64";
    class       volScalarField;
    location    "1900";
    object      k;
}
// * * * * * * * * * * * * * * * * * * * * * * * * * * * * * * * * * * * * * //

dimensions      [0 2 -2 0 0 0 0];

internalField   nonuniform List<scalar> 
20540
(
473.642
781.927
473.613
781.898
473.493
781.779
473.274
781.563
472.935
781.228
472.452
780.751
471.795
780.1
470.926
779.241
469.801
778.127
468.365
776.706
466.554
774.911
464.286
772.663
461.465
769.864
457.973
766.394
453.666
762.11
448.37
756.831
441.876
750.342
433.931
742.374
424.235
732.603
412.431
720.628
398.108
705.966
380.795
688.027
359.976
666.106
335.112
639.37
305.681
606.851
271.255
567.458
231.613
520.002
186.942
463.227
138.226
395.789
88.5464
316.079
51.5155
236.678
31.0875
187.71
32.4143
190.776
54.7831
243.978
92.7038
323.635
141.948
400.519
189.84
465.838
233.758
520.953
272.821
567.094
306.854
605.444
336.054
637.137
360.817
663.217
381.632
684.619
399.009
702.151
413.442
716.499
425.385
728.235
435.237
737.832
443.345
745.677
450.005
752.089
455.465
757.324
459.932
761.595
463.578
765.073
466.545
767.898
468.951
770.185
470.893
772.029
472.45
773.506
473.689
774.68
474.664
775.604
475.42
776.319
475.993
776.862
476.416
777.262
476.714
777.544
476.907
777.726
477.013
777.827
477.047
777.859
4.83612
1.5315
1.19458
1.00024
0.896479
0.813697
0.756001
0.708276
0.670282
0.638191
0.61119
0.587818
0.567612
0.549802
0.534095
0.520132
0.50762
0.496367
0.486222
0.477003
0.468619
0.460954
0.453941
0.447495
0.441554
0.436072
0.430997
0.42629
0.421919
0.417848
0.414053
0.410509
0.407194
0.40409
0.40118
0.398447
0.395881
0.393466
0.391195
0.389056
0.387043
0.385147
0.383365
0.38169
0.38012
0.378652
0.377286
0.376022
0.374862
0.373809
0.372868
0.372047
0.371352
0.370797
0.370393
0.370157
0.370105
0.370256
0.370646
0.371285
0.372224
0.373489
0.375163
0.376939
0.37858
0.380402
0.382412
0.384661
0.38712
0.38984
0.392792
0.396039
0.399557
0.403412
0.407635
0.412206
0.417373
0.422779
0.429312
0.435622
0.444445
0.45158
0.465215
0.472868
0.498632
0.509863
0.56987
0.549938
21.282
4.60531
3.18857
2.55058
2.22172
1.97642
1.80599
1.66913
1.56084
1.47069
1.39542
1.33083
1.27538
1.22681
1.18424
1.14659
1.11301
1.08295
1.05596
1.03153
1.00938
0.989205
0.970801
0.953931
0.938422
0.924148
0.910965
0.898763
0.887455
0.876945
0.867164
0.858043
0.849528
0.841566
0.83411
0.827117
0.820558
0.814392
0.808599
0.803144
0.798014
0.793182
0.788638
0.784361
0.780347
0.776582
0.773064
0.769788
0.766754
0.763967
0.761431
0.759159
0.757157
0.755453
0.754055
0.753
0.752306
0.752013
0.752193
0.75282
0.754015
0.755834
0.758369
0.761101
0.763649
0.766605
0.769854
0.773518
0.777495
0.781932
0.786689
0.791978
0.797584
0.803782
0.810358
0.81754
0.8253
0.833558
0.84296
0.852362
0.864448
0.874801
0.892231
0.904209
0.931693
0.956272
1.00398
0.90846
50.1962
17.4089
13.5069
11.6419
10.5991
9.78309
9.18542
8.68821
8.28091
7.93247
7.63429
7.37286
7.14418
6.94043
6.75912
6.59658
6.4498
6.31692
6.19639
6.08624
5.98555
5.89307
5.80811
5.72969
5.65716
5.59001
5.52766
5.46965
5.41565
5.36523
5.31812
5.27401
5.23269
5.19392
5.1575
5.12324
5.09101
5.06063
5.03201
5.005
4.97954
4.95549
4.93284
4.91147
4.89136
4.87246
4.85476
4.83822
4.82287
4.80872
4.79578
4.78413
4.77378
4.76488
4.75746
4.7517
4.74768
4.74556
4.74574
4.74801
4.75295
4.76088
4.77212
4.78428
4.79568
4.80907
4.82375
4.84031
4.8582
4.87819
4.89948
4.92315
4.948
4.97544
5.0042
5.0356
5.06888
5.10452
5.14385
5.18385
5.23309
5.27553
5.34505
5.39222
5.49543
5.58025
5.78853
5.13891
74.8329
24.8157
18.497
16.1527
14.9553
14.0753
13.4345
12.9059
12.4709
12.0978
11.7767
11.4938
11.245
11.0221
10.8229
10.6433
10.4804
10.3323
10.1974
10.0735
9.95993
9.85519
9.75865
9.66925
9.58628
9.50927
9.43753
9.37063
9.30819
9.24975
9.19501
9.14366
9.09545
9.05013
9.00747
8.96726
8.92938
8.89361
8.85986
8.82794
8.79782
8.76932
8.74242
8.71699
8.69303
8.67045
8.64924
8.62935
8.61082
8.59364
8.57783
8.56346
8.55054
8.53922
8.52951
8.52162
8.51559
8.51161
8.51004
8.51087
8.51424
8.52084
8.53079
8.54181
8.55224
8.56486
8.5787
8.59446
8.61135
8.63039
8.65038
8.67286
8.69598
8.72177
8.74807
8.7773
8.80663
8.83968
8.87245
8.90933
8.94804
8.98782
9.03712
9.08771
9.15123
9.19567
9.43085
8.57467
97.8253
31.936
21.8226
18.4249
16.8755
15.8693
15.1694
14.6131
14.1619
13.7792
13.4518
13.1641
12.9119
12.6861
12.4844
12.3028
12.138
11.9882
11.8517
11.7264
11.6115
11.5055
11.4078
11.3173
11.2332
11.1552
11.0825
11.0147
10.9514
10.8922
10.8367
10.7846
10.7357
10.6897
10.6464
10.6055
10.5671
10.5307
10.4964
10.464
10.4334
10.4044
10.377
10.3511
10.3266
10.3036
10.2819
10.2615
10.2424
10.2246
10.2081
10.193
10.1793
10.1671
10.1563
10.1472
10.1397
10.1342
10.1306
10.1293
10.1302
10.1337
10.1401
10.1477
10.155
10.1643
10.1745
10.1864
10.199
10.2136
10.2285
10.2458
10.2629
10.2827
10.3019
10.3244
10.3448
10.3704
10.3913
10.4207
10.4419
10.4781
10.4983
10.5512
10.5527
10.609
10.7736
10.0409
119.805
39.8817
25.4382
20.4145
18.2107
16.9339
16.1054
15.4867
15.0011
14.5993
14.2606
13.966
13.7096
13.4809
13.2776
13.0948
12.9291
12.7789
12.6421
12.5165
12.4014
12.2954
12.1976
12.107
12.023
11.9449
11.8722
11.8044
11.7411
11.6818
11.6263
11.5742
11.5253
11.4793
11.4359
11.3951
11.3566
11.3202
11.2859
11.2535
11.2228
11.1937
11.1663
11.1403
11.1158
11.0926
11.0707
11.0501
11.0307
11.0127
10.9958
10.9802
10.9659
10.953
10.9413
10.9312
10.9225
10.9154
10.9101
10.9066
10.9051
10.9058
10.9085
10.9128
10.9171
10.9231
10.9297
10.9379
10.9464
10.9567
10.9667
10.9791
10.9907
11.0049
11.0176
11.0339
11.0465
11.0654
11.077
11.0993
11.1092
11.1381
11.138
11.1836
11.1553
11.2249
11.3001
10.7657
141.264
48.5999
29.8097
22.7996
19.6358
17.895
16.8272
16.0817
15.5244
15.0808
14.717
14.4066
14.1405
13.9054
13.6982
13.5129
13.3457
13.1945
13.0573
12.9315
12.8165
12.7105
12.613
12.5226
12.4389
12.3612
12.2888
12.2213
12.1583
12.0994
12.0441
11.9923
11.9437
11.8979
11.8548
11.8142
11.776
11.7398
11.7057
11.6734
11.6429
11.6139
11.5866
11.5607
11.5363
11.5131
11.4912
11.4706
11.4511
11.4329
11.4158
11.3999
11.3851
11.3716
11.3593
11.3483
11.3384
11.3301
11.3231
11.3178
11.3139
11.3119
11.3116
11.3128
11.3144
11.3175
11.3209
11.3258
11.3305
11.337
11.3429
11.351
11.3577
11.3671
11.3745
11.3854
11.3921
11.4049
11.4104
11.4249
11.4275
11.4467
11.4367
11.4738
11.4346
11.4875
11.5224
11.1603
162.539
57.9908
34.9508
25.8101
21.4684
19.0707
17.6273
16.664
15.9755
15.4513
15.0367
14.6934
14.406
14.1564
13.9397
13.7481
13.5766
13.4226
13.2836
13.1567
13.041
12.9348
12.8373
12.7471
12.6636
12.5862
12.5142
12.4472
12.3847
12.3261
12.2714
12.22
12.1718
12.1265
12.0838
12.0436
12.0057
11.9699
11.9361
11.9041
11.8739
11.8453
11.8183
11.7926
11.7683
11.7453
11.7236
11.703
11.6836
11.6653
11.6481
11.632
11.6169
11.603
11.59
11.5783
11.5676
11.5581
11.5497
11.5427
11.5368
11.5326
11.5293
11.5281
11.5272
11.5277
11.5284
11.5303
11.5319
11.5351
11.5374
11.5418
11.5447
11.5499
11.553
11.5591
11.5617
11.5686
11.5699
11.5774
11.575
11.5868
11.5723
11.5976
11.5597
11.5883
11.5988
11.3863
183.846
68.0319
40.7839
29.4799
23.8459
20.6455
18.6952
17.4097
16.5134
15.8529
15.3483
14.9437
14.6148
14.3363
14.0995
13.8937
13.7122
13.5511
13.4072
13.2767
13.1587
13.0508
12.9523
12.8615
12.7776
12.7002
12.6283
12.5615
12.4993
12.4411
12.3868
12.3358
12.2881
12.2432
12.201
12.1613
12.1239
12.0885
12.0552
12.0236
11.9938
11.9655
11.9389
11.9135
11.8895
11.8668
11.8453
11.8249
11.8056
11.7874
11.7702
11.754
11.7387
11.7245
11.7111
11.6988
11.6873
11.677
11.6674
11.6591
11.6514
11.6452
11.6394
11.6362
11.633
11.6316
11.6297
11.6293
11.6281
11.6284
11.628
11.629
11.629
11.6303
11.6305
11.632
11.6318
11.6335
11.6317
11.6343
11.6283
11.6343
11.6184
11.6319
11.5994
11.6079
11.6012
11.4897
205.313
78.7474
47.2543
33.7739
26.8014
22.7115
20.1546
18.451
17.2649
16.402
15.7558
15.2504
14.85
14.5196
14.2454
14.0122
13.8104
13.6344
13.4795
13.3407
13.2165
13.1041
13.0022
12.909
12.8233
12.7447
12.672
12.6046
12.5421
12.4839
12.4295
12.3787
12.3312
12.2867
12.2448
12.2054
12.1684
12.1334
12.1005
12.0693
12.0399
12.012
11.9857
11.9607
11.9371
11.9147
11.8935
11.8733
11.8542
11.8361
11.819
11.8028
11.7874
11.773
11.7594
11.7467
11.7346
11.7236
11.713
11.7036
11.6944
11.6867
11.6788
11.6738
11.6689
11.6658
11.6618
11.6597
11.6561
11.6545
11.6514
11.6502
11.6474
11.6463
11.6436
11.6425
11.6392
11.6381
11.633
11.6325
11.6235
11.6248
11.6089
11.6127
11.5839
11.5801
11.5582
11.4908
226.999
90.1805
54.3441
38.654
30.3206
25.2969
22.0714
19.8778
18.3305
17.1995
16.355
15.7015
15.1909
14.7775
14.4409
14.1604
13.9225
13.7189
13.5427
13.3875
13.2506
13.1283
13.0187
12.9195
12.8291
12.7469
12.6713
12.6018
12.5377
12.4781
12.4229
12.3715
12.3235
12.2787
12.2367
12.1972
12.1603
12.1254
12.0927
12.0617
12.0325
12.0049
11.9789
11.9541
11.9308
11.9086
11.8876
11.8677
11.8488
11.8308
11.8138
11.7977
11.7822
11.7678
11.7539
11.7409
11.7283
11.7168
11.7055
11.6952
11.6849
11.676
11.6664
11.6601
11.6537
11.6494
11.6436
11.6402
11.6346
11.6318
11.6264
11.6237
11.6184
11.6157
11.6104
11.6076
11.6016
11.5988
11.591
11.5884
11.5773
11.5753
11.5587
11.5564
11.5314
11.5221
11.4833
11.4363
248.907
102.378
62.0626
44.1006
34.3794
28.3966
24.4672
21.7383
19.7778
18.3246
17.2298
16.3801
15.717
15.1838
14.7537
14.3998
14.104
13.8547
13.6423
13.4581
13.2982
13.1573
13.0329
12.9216
12.8215
12.7314
12.6494
12.5746
12.5063
12.4433
12.3852
12.3315
12.2817
12.2353
12.1922
12.1518
12.1141
12.0786
12.0454
12.0141
11.9848
11.957
11.9309
11.9061
11.8828
11.8606
11.8397
11.8197
11.8009
11.783
11.7659
11.7498
11.7343
11.7197
11.7056
11.6924
11.6794
11.6675
11.6556
11.6447
11.6334
11.6236
11.6127
11.6053
11.5979
11.5925
11.5855
11.5811
11.5739
11.5701
11.5629
11.5592
11.5521
11.5482
11.5409
11.5369
11.5289
11.5247
11.5151
11.5109
11.4985
11.4941
11.4773
11.4714
11.4471
11.4347
11.3881
11.3456
270.991
115.38
70.4354
50.1139
38.9633
31.9958
27.34
24.0478
21.6412
19.8281
18.4422
17.3557
16.5006
15.8111
15.2541
14.797
14.4172
14.0995
13.8312
13.6012
13.4037
13.2319
13.0819
12.9494
12.8318
12.727
12.6328
12.5477
12.4707
12.4005
12.3363
12.2774
12.2232
12.1731
12.1268
12.0837
12.0438
12.0064
11.9716
11.9389
11.9083
11.8795
11.8526
11.827
11.8031
11.7804
11.759
11.7387
11.7195
11.7013
11.6839
11.6675
11.6517
11.6369
11.6224
11.6089
11.5955
11.5832
11.5706
11.5592
11.5472
11.5366
11.5246
11.5164
11.5082
11.5021
11.4941
11.4889
11.4806
11.4761
11.4676
11.4631
11.4546
11.45
11.4413
11.4364
11.427
11.4218
11.411
11.4055
11.3923
11.386
11.3691
11.3606
11.3359
11.3208
11.2717
11.2342
293.153
129.212
79.4957
56.7095
44.0712
36.0855
30.6805
26.805
23.9306
21.7332
20.0287
18.6757
17.5974
16.7203
16.0062
15.417
14.9263
14.5155
14.1692
13.8732
13.6204
13.4018
13.2123
13.0462
12.9
12.771
12.6561
12.5533
12.4611
12.3778
12.3023
12.2336
12.171
12.1136
12.0609
12.0122
11.9674
11.9257
11.8872
11.8511
11.8177
11.7864
11.7572
11.7297
11.704
11.6797
11.6569
11.6353
11.615
11.5958
11.5775
11.5602
11.5436
11.5281
11.5129
11.4986
11.4846
11.4715
11.4583
11.4461
11.4333
11.4219
11.4091
11.4
11.3913
11.3845
11.3758
11.3699
11.3609
11.3557
11.3464
11.3413
11.3318
11.3266
11.3169
11.3114
11.301
11.2951
11.2835
11.277
11.2634
11.2556
11.2385
11.2278
11.2032
11.185
11.1352
11.103
315.244
143.88
89.2777
63.9131
49.715
40.6666
34.4834
30.0038
26.6438
24.0453
22.0034
20.3641
19.0409
17.9535
17.0583
16.3131
15.6881
15.1615
14.7152
14.333
14.0059
13.7229
13.4779
13.2636
13.0757
12.9102
12.7638
12.6334
12.5171
12.4127
12.3187
12.2338
12.1568
12.0867
12.0228
11.9642
11.9105
11.8609
11.8154
11.7731
11.734
11.6976
11.6639
11.6323
11.6029
11.5753
11.5495
11.5252
11.5024
11.4809
11.4605
11.4414
11.423
11.4058
11.3891
11.3735
11.3581
11.3438
11.3293
11.316
11.3021
11.2895
11.2758
11.2657
11.2564
11.249
11.2397
11.233
11.2234
11.2176
11.2076
11.202
11.1918
11.1861
11.1756
11.1697
11.1586
11.1522
11.14
11.1328
11.1188
11.1099
11.0927
11.0804
11.056
11.0355
10.9863
10.962
337.065
159.359
99.8102
71.755
55.9155
45.7499
38.7515
33.6421
29.777
26.7616
24.3678
22.4283
20.8451
19.532
18.4392
17.5207
16.7436
16.0829
15.5187
15.0325
14.6138
14.2499
13.9335
13.656
13.4123
13.1975
13.0073
12.838
12.6872
12.5519
12.4305
12.321
12.2222
12.1324
12.051
11.9765
11.9086
11.8462
11.789
11.7361
11.6876
11.6424
11.6009
11.562
11.5261
11.4925
11.4613
11.4319
11.4045
11.3787
11.3545
11.3317
11.3101
11.2898
11.2703
11.252
11.2342
11.2176
11.201
11.1857
11.1699
11.1556
11.1403
11.1288
11.1187
11.1102
11.1003
11.0927
11.0825
11.0757
11.0652
11.0588
11.0481
11.0419
11.0307
11.0245
11.0127
11.006
10.9932
10.9856
10.9711
10.9619
10.9441
10.9315
10.9065
10.8861
10.8393
10.8202
358.359
175.587
111.11
80.266
62.6993
51.3544
43.4961
37.7244
33.3303
29.8797
27.1193
24.8669
23.012
21.4622
20.1602
19.0567
18.1152
17.3078
16.6125
16.0089
15.4851
15.0269
14.6257
14.2721
13.96
13.6835
13.4378
13.2185
13.0224
12.8463
12.688
12.545
12.4158
12.2984
12.1919
12.0946
12.0059
11.9245
11.8501
11.7814
11.7184
11.6599
11.6062
11.5561
11.5098
11.4666
11.4266
11.3891
11.3542
11.3214
11.2907
11.2619
11.2348
11.2092
11.185
11.1622
11.1403
11.1198
11.0997
11.0811
11.0623
11.0449
11.0272
11.0135
11.0021
10.9921
10.981
10.972
10.961
10.9528
10.9418
10.9342
10.9229
10.9157
10.9041
10.8971
10.8847
10.8777
10.8642
10.8563
10.8413
10.8319
10.8138
10.8012
10.7766
10.7578
10.718
10.6976
378.806
192.45
123.175
89.4715
70.0947
57.504
48.7349
42.2625
37.3099
33.4016
30.257
27.6776
25.5393
23.7425
22.2221
20.9248
19.8103
18.8473
18.0121
17.2822
16.6438
16.0817
15.5861
15.1466
14.7563
14.4085
14.0976
13.8187
13.5683
13.3424
13.1385
12.9537
12.7861
12.6335
12.4945
12.3674
12.2512
12.1444
12.0465
11.9562
11.8731
11.7962
11.7252
11.6592
11.5982
11.5413
11.4885
11.4391
11.3932
11.3501
11.3099
11.2721
11.2366
11.2032
11.1717
11.1421
11.1139
11.0873
11.0618
11.0379
11.0145
10.9926
10.971
10.9541
10.9407
10.9284
10.9158
10.9046
10.8926
10.8824
10.8707
10.8614
10.8498
10.8411
10.8294
10.8212
10.8089
10.8009
10.7877
10.7792
10.7648
10.7546
10.7383
10.7244
10.7043
10.6841
10.6583
10.6276
398.021
209.775
135.975
99.3862
78.1274
64.2244
54.4897
47.2731
41.7276
37.3345
33.7842
30.8608
28.4253
26.3701
24.6218
23.1224
21.8274
20.7021
19.7204
18.8577
18.0983
17.426
16.8295
16.2976
15.8224
15.3964
15.0137
14.6685
14.3569
14.0743
13.8182
13.5849
13.3725
13.1782
13.0006
12.8376
12.6881
12.5502
12.4234
12.3062
12.198
12.0976
12.0047
11.9182
11.838
11.7632
11.6936
11.6285
11.5678
11.5108
11.4576
11.4076
11.3608
11.3166
11.2752
11.236
11.1991
11.1642
11.131
11.0997
11.0697
11.0413
11.0141
10.9924
10.976
10.9603
10.9452
10.9311
10.9171
10.9043
10.8912
10.8794
10.867
10.856
10.844
10.8334
10.8215
10.811
10.7989
10.7878
10.7752
10.7624
10.7489
10.7325
10.7173
10.6949
10.6797
10.6457
415.542
227.313
149.442
110.006
86.8148
71.5391
60.7832
52.7758
46.599
41.6899
37.7087
34.4206
31.6713
29.344
27.3566
25.6456
24.1623
22.8679
21.7334
20.7326
19.8473
19.0599
18.3579
17.7291
17.1646
16.6561
16.197
15.7811
15.4038
15.0602
14.7472
14.4611
14.1992
13.9589
13.7383
13.535
13.3477
13.1746
13.0147
12.8663
12.729
12.6012
12.4826
12.3719
12.2689
12.1726
12.0828
11.9987
11.92
11.8461
11.777
11.7119
11.6509
11.5933
11.5392
11.4881
11.44
11.3944
11.3515
11.3107
11.2721
11.2354
11.2007
11.173
11.1523
11.1325
11.1139
11.0961
11.0794
11.0633
11.048
11.0334
11.0193
11.0058
10.9927
10.98
10.9675
10.9551
10.943
10.9304
10.9181
10.9046
10.8917
10.8762
10.8623
10.8432
10.8324
10.7959
430.818
244.724
163.457
121.298
96.1596
79.4638
67.635
58.7895
51.9406
46.4811
42.0405
38.3641
35.2814
32.6657
30.4258
28.4921
26.8108
25.3394
24.0455
22.9007
21.8843
20.9774
20.1659
19.4365
18.7792
18.185
17.6465
17.1568
16.7109
16.3035
15.9308
15.5889
15.2749
14.9857
14.7192
14.4729
14.2451
14.034
13.8382
13.6561
13.4869
13.3291
13.1822
13.0447
12.9164
12.7962
12.6838
12.5782
12.4793
12.3862
12.2989
12.2165
12.1392
12.0662
11.9975
11.9325
11.8713
11.8133
11.7587
11.7069
11.658
11.6114
11.5676
11.5328
11.5069
11.4822
11.4592
11.4372
11.4167
11.397
11.3786
11.3609
11.3443
11.3283
11.3132
11.2984
11.2844
11.2705
11.2573
11.2439
11.231
11.2175
11.2046
11.1905
11.1776
11.1615
11.1545
11.112
443.198
261.566
177.837
133.19
106.141
88.0004
75.0558
65.3279
57.7659
51.7202
46.7895
42.6987
39.2607
36.338
33.8301
31.6604
29.7701
28.1122
26.6508
25.3552
24.2018
23.1704
22.2449
21.4111
20.6576
19.9746
19.3539
18.788
18.2712
17.7977
17.3634
16.9638
16.5958
16.2559
15.9418
15.6508
15.3809
15.1301
14.8969
14.6795
14.4769
14.2875
14.1106
13.9449
13.7898
13.6442
13.5076
13.3792
13.2586
13.1449
13.038
12.9371
12.8422
12.7524
12.6678
12.5877
12.5122
12.4406
12.3731
12.3091
12.2487
12.1913
12.1372
12.0946
12.0627
12.0326
12.0044
11.9777
11.9528
11.9291
11.907
11.8859
11.8662
11.8474
11.8297
11.8127
11.7967
11.7812
11.7665
11.7522
11.7383
11.7249
11.7116
11.6987
11.6863
11.6729
11.6682
11.6194
451.892
277.29
192.308
145.557
116.704
97.1282
83.0409
72.3934
64.0802
57.4131
51.961
47.4286
43.612
40.3621
37.569
35.1486
33.0367
31.1815
29.5433
28.0888
26.7917
25.6297
24.585
23.6423
22.7887
22.0135
21.3076
20.6629
20.0727
19.5311
19.0332
18.5743
18.1506
17.7587
17.3957
17.0586
16.7455
16.4539
16.1822
15.9285
15.6915
15.4697
15.262
15.0672
14.8845
14.7126
14.5512
14.3992
14.256
14.1211
13.9938
13.8737
13.7603
13.6531
13.5519
13.456
13.3655
13.2797
13.1986
13.1218
13.0491
12.9803
12.9152
12.8642
12.8259
12.7899
12.7562
12.7245
12.6947
12.6667
12.6404
12.6157
12.5924
12.5706
12.5499
12.5305
12.5122
12.4948
12.4784
12.4629
12.448
12.434
12.4205
12.408
12.3959
12.3839
12.3798
12.3288
455.98
291.235
206.492
158.202
127.748
106.793
91.5609
79.9695
70.8736
63.5532
57.5501
52.5492
48.3306
44.733
41.6367
38.9502
36.6031
34.5391
32.714
31.0917
29.6431
28.3439
27.1743
26.1174
25.1593
24.288
23.4934
22.7667
22.1006
21.4885
20.9249
20.4047
19.9238
19.4783
19.065
18.6808
18.3233
17.99
17.6789
17.3881
17.116
16.861
16.6219
16.3974
16.1864
15.9879
15.801
15.6249
15.4589
15.3021
15.1542
15.0144
14.8822
14.7572
14.6389
14.527
14.421
14.3207
14.2256
14.1357
14.0504
13.9697
13.8933
13.8335
13.7886
13.7464
13.7069
13.6698
13.635
13.6023
13.5717
13.543
13.516
13.4908
13.4671
13.4449
13.424
13.4045
13.3862
13.3691
13.3529
13.3381
13.3239
13.3111
13.2989
13.2874
13.282
13.2328
454.467
302.624
219.901
170.849
139.109
116.895
100.549
88.0093
78.1111
70.1125
63.5332
58.04
53.3976
49.4328
46.0162
43.0486
40.453
38.1683
36.1462
34.3472
32.7392
31.2958
29.9951
28.8187
27.7512
26.7795
25.8926
25.0806
24.3356
23.6503
23.0187
22.4352
21.8952
21.3945
20.9295
20.4968
20.0938
19.7176
19.3662
19.0374
18.7295
18.4407
18.1696
17.9147
17.6751
17.4494
17.2367
17.0361
16.8468
16.668
16.4991
16.3393
16.1881
16.045
15.9095
15.7812
15.6596
15.5444
15.4352
15.3318
15.2337
15.1409
15.053
14.9841
14.9324
14.8839
14.8383
14.7956
14.7556
14.718
14.6829
14.6499
14.6191
14.5902
14.5632
14.538
14.5144
14.4925
14.472
14.453
14.4353
14.419
14.4038
14.3901
14.3771
14.3653
14.3582
14.3131
446.073
310.559
231.939
183.13
150.552
127.271
109.888
96.4215
85.7185
77.0289
69.8564
63.853
58.7696
54.4216
50.6701
47.4082
44.5525
42.0369
39.8085
37.8245
36.05
34.4559
33.0185
31.7175
30.5362
29.4601
28.4772
27.5768
26.7501
25.9891
25.2872
24.6383
24.0374
23.4799
22.9617
22.4793
22.0296
21.6096
21.217
20.8494
20.5048
20.1815
19.8778
19.5921
19.3233
19.07
18.8311
18.6057
18.3928
18.1916
18.0014
17.8214
17.651
17.4896
17.3367
17.1918
17.0544
16.9242
16.8007
16.6836
16.5726
16.4674
16.3678
16.2896
16.231
16.1759
16.1242
16.0757
16.0303
15.9877
15.9477
15.9104
15.8754
15.8428
15.8123
15.7838
15.7572
15.7326
15.7096
15.6884
15.6687
15.6505
15.6337
15.6184
15.6041
15.5921
15.5754
15.5423
429.443
314.126
241.949
194.602
161.759
137.683
119.388
105.051
93.5647
84.1884
76.4188
69.8974
64.3637
59.623
55.5274
51.9626
48.8389
46.085
43.644
41.4692
39.5228
37.7735
36.1951
34.7659
33.4674
32.284
31.2025
30.2113
29.3008
28.4622
27.6884
26.9727
26.3096
25.6941
25.1217
24.5886
24.0913
23.6268
23.1923
22.7853
22.4036
22.0453
21.7086
21.3918
21.0934
20.8122
20.5469
20.2965
20.0599
19.8361
19.6245
19.4241
19.2344
19.0546
18.8841
18.7226
18.5693
18.4239
18.286
18.1552
18.0311
17.9134
17.8019
17.7144
17.6486
17.5868
17.5288
17.4744
17.4234
17.3756
17.3308
17.2888
17.2495
17.2128
17.1786
17.1466
17.1168
17.089
17.0633
17.0394
17.0172
16.9967
16.9778
16.9603
16.9442
16.9299
16.9131
16.8824
403.277
312.607
249.308
204.771
172.328
147.795
128.765
113.653
101.435
91.3997
83.0481
76.0165
70.0361
64.9039
60.4641
56.5955
53.2026
50.2092
47.5541
45.1872
43.0679
41.1621
39.4419
37.8835
36.4671
35.1757
33.9951
32.9127
31.9179
31.0015
30.1555
29.3728
28.6474
27.9737
27.3471
26.7633
26.2185
25.7095
25.2331
24.7869
24.3683
23.9751
23.6055
23.2577
22.93
22.6211
22.3296
22.0542
21.794
21.5479
21.3151
21.0945
20.8856
20.6875
20.4998
20.3216
20.1526
19.9922
19.84
19.6955
19.5584
19.4282
19.3049
19.2079
19.1349
19.0664
19.0021
18.9417
18.885
18.8318
18.7819
18.7352
18.6915
18.6505
18.6122
18.5765
18.5431
18.512
18.483
18.456
18.431
18.4077
18.3861
18.3661
18.3476
18.3302
18.3143
18.2847
366.859
305.726
253.598
213.169
181.784
157.161
137.612
121.856
108.993
98.3573
89.4648
81.9531
75.5489
70.0431
65.2734
61.1128
57.4607
54.2362
51.3743
48.8219
46.5352
44.4781
42.6206
40.9372
39.4067
38.0109
36.7344
35.5637
34.4875
33.4959
32.5801
31.7327
30.9471
30.2174
29.5384
28.9057
28.3152
27.7633
27.2467
26.7626
26.3084
25.8818
25.4806
25.1029
24.7471
24.4116
24.0949
23.7957
23.5129
23.2453
22.992
22.7521
22.5248
22.3092
22.1048
21.9107
21.7266
21.5517
21.3857
21.228
21.0783
20.9361
20.8012
20.695
20.6151
20.54
20.4694
20.403
20.3407
20.2822
20.2272
20.1757
20.1273
20.082
20.0396
19.9998
19.9626
19.9279
19.8954
19.8651
19.8368
19.8103
19.7857
19.7626
19.7413
19.7208
19.7042
19.675
322.412
293.837
254.971
219.468
189.601
165.198
145.349
129.112
115.725
104.584
95.2262
87.296
80.519
74.6825
69.6196
65.1987
61.3147
57.8833
54.836
52.1169
49.6799
47.4869
45.5059
43.7101
42.077
40.5872
39.2243
37.9743
36.8249
35.7656
34.7871
33.8815
33.0418
32.2617
31.5357
30.8591
30.2275
29.637
29.0843
28.5663
28.0802
27.6235
27.194
26.7896
26.4086
26.0492
25.7099
25.3893
25.0862
24.7994
24.5279
24.2707
24.0268
23.7955
23.5761
23.3678
23.17
22.9821
22.8037
22.634
22.4729
22.3197
22.1744
22.0597
21.9734
21.8921
21.8157
21.7438
21.6762
21.6126
21.5528
21.4967
21.4439
21.3943
21.3478
21.3042
21.2632
21.2248
21.1887
21.1549
21.1232
21.0935
21.0656
21.0394
21.0148
20.9916
20.9706
20.944
287.092
278.452
254.751
223.136
194.541
170.439
150.477
133.968
120.258
108.793
99.1313
90.9246
83.8994
77.8414
72.5813
67.9849
63.9443
60.3729
57.1999
54.3678
51.8288
49.5434
47.4785
45.6064
43.9035
42.3498
40.9283
39.6243
38.4251
37.3198
36.2987
35.3536
34.4771
33.6627
32.9048
32.1984
31.5388
30.9222
30.345
29.8039
29.2962
28.8191
28.3703
27.9478
27.5496
27.174
26.8194
26.4843
26.1674
25.8676
25.5837
25.3146
25.0596
24.8176
24.588
24.3699
24.1629
23.966
23.7791
23.6012
23.4322
23.2713
23.1188
22.9981
22.9072
22.8216
22.741
22.6651
22.5936
22.5263
22.4629
22.4032
22.3471
22.2942
22.2444
22.1976
22.1535
22.112
22.0729
22.0361
22.0015
21.9688
21.9381
21.909
21.8816
21.8558
21.8315
21.8058
268.53
269.111
254.547
224.928
196.874
172.93
152.929
136.298
122.437
110.82
101.014
92.6747
85.5305
79.3662
74.0113
69.3304
65.2144
61.5754
58.3419
55.4554
52.8672
50.5372
48.4319
46.5229
44.7864
43.2019
41.7521
40.4221
39.1989
38.0714
37.0297
36.0656
35.1713
34.3405
33.5672
32.8463
32.1734
31.5442
30.9551
30.4029
29.8847
29.3978
28.9398
28.5085
28.1021
27.7186
27.3566
27.0145
26.6909
26.3846
26.0946
25.8197
25.5589
25.3115
25.0766
24.8534
24.6413
24.4396
24.2478
24.0651
23.8914
23.7257
23.5684
23.4437
23.3496
23.2609
23.1772
23.0982
23.0237
22.9534
22.887
22.8244
22.7654
22.7096
22.657
22.6074
22.5605
22.5162
22.4744
22.435
22.3976
22.3624
22.329
22.2974
22.2675
22.2392
22.2124
22.1864
269.815
269.859
254.925
225.078
196.987
173.01
152.987
136.342
122.471
110.847
101.036
92.694
85.547
79.3805
74.0239
69.3416
65.2244
61.5845
58.3502
55.463
52.8742
50.5438
48.438
46.5287
44.7918
43.2071
41.7571
40.4268
39.2034
38.0757
37.0339
36.0696
35.1752
34.3442
33.5708
32.8499
32.1768
31.5475
30.9584
30.4061
29.8878
29.4008
28.9428
28.5114
28.1049
27.7214
27.3592
27.017
26.6933
26.3869
26.0968
25.8217
25.5608
25.3132
25.0781
24.8546
24.6422
24.4402
24.248
24.0649
23.8907
23.7245
23.5665
23.4412
23.3466
23.2574
23.1731
23.0935
23.0184
22.9474
22.8804
22.8171
22.7573
22.7008
22.6474
22.5969
22.5492
22.5041
22.4614
22.421
22.3827
22.3465
22.3122
22.2797
22.2489
22.2197
22.1919
22.166
290.474
280.594
255.651
223.65
194.878
170.673
150.648
134.098
120.36
108.875
99.1991
90.9816
83.948
77.8837
72.6185
68.0179
63.9739
60.3997
57.2244
54.3903
51.8496
49.5628
47.4967
45.6235
43.9196
42.3651
40.9429
39.6382
38.4384
37.3326
36.311
35.3654
34.4885
33.6738
32.9156
32.2088
31.549
30.9322
30.3547
29.8134
29.3054
28.828
28.3791
27.9563
27.5579
27.182
26.8271
26.4917
26.1745
25.8742
25.5897
25.3201
25.0643
24.8215
24.5909
24.3717
24.1633
23.965
23.7763
23.5964
23.4251
23.2616
23.1061
22.9827
22.8894
22.8014
22.7182
22.6395
22.5652
22.4949
22.4285
22.3657
22.3063
22.25
22.1969
22.1465
22.0989
22.0538
22.0111
21.9706
21.9322
21.8959
21.8614
21.8286
21.7976
21.7681
21.74
21.7145
326.657
296.41
256.363
220.335
190.206
165.648
145.699
129.394
115.958
104.781
95.3958
87.4442
80.65
74.7998
69.7255
65.2953
61.4033
57.9653
54.9122
52.1882
49.7469
47.5501
45.5658
43.7671
42.1313
40.6392
39.2742
38.0223
36.8711
35.8102
34.8303
33.9234
33.0825
32.3013
31.5743
30.8967
30.2642
29.6729
29.1194
28.6007
28.1138
27.6565
27.2263
26.8213
26.4396
26.0795
25.7395
25.4182
25.1143
24.8266
24.5541
24.2958
24.0508
23.8181
23.5971
23.387
23.1872
22.997
22.8159
22.6432
22.4787
22.3216
22.1719
22.0531
21.9633
21.8785
21.7982
21.7223
21.6505
21.5826
21.5183
21.4574
21.3998
21.3453
21.2936
21.2447
21.1983
21.1544
21.1127
21.0732
21.0358
21.0002
20.9665
20.9345
20.9041
20.8752
20.8476
20.823
370.285
308.065
255.312
214.479
182.836
158.029
138.343
122.484
109.539
98.8385
89.8933
82.3386
75.8986
70.3629
65.5677
61.3856
57.7147
54.4741
51.5979
49.0331
46.7353
44.6685
42.8021
41.1109
39.5732
38.171
36.8885
35.7126
34.6315
33.6353
32.7154
31.8642
31.0751
30.3421
29.6601
29.0245
28.4314
27.8769
27.3581
26.8718
26.4155
25.9869
25.5838
25.2043
24.8467
24.5094
24.191
23.8901
23.6055
23.3361
23.081
22.8391
22.6096
22.3917
22.1848
21.988
21.8008
21.6225
21.4527
21.2908
21.1364
20.989
20.8484
20.7367
20.6523
20.5724
20.4969
20.4254
20.3578
20.2937
20.233
20.1756
20.1211
20.0696
20.0207
19.9743
19.9304
19.8888
19.8493
19.8118
19.7762
19.7425
19.7105
19.6801
19.6511
19.6238
19.5973
19.5749
405.765
314.953
251.372
206.54
173.841
149.094
129.891
114.636
102.303
92.1729
83.7429
76.6462
70.6108
65.4322
60.9525
57.0497
53.627
50.6077
47.9296
45.5427
43.4052
41.4835
39.7487
38.1773
36.7491
35.4471
34.2566
33.1653
32.1623
31.2384
30.3854
29.5963
28.8648
28.1856
27.5539
26.9652
26.416
25.9027
25.4224
24.9724
24.5503
24.1538
23.781
23.4301
23.0996
22.7878
22.4935
22.2154
21.9525
21.7036
21.4679
21.2445
21.0326
20.8313
20.6401
20.4584
20.2854
20.1207
19.9638
19.8142
19.6714
19.535
19.4049
19.3016
19.2234
19.1495
19.0795
19.0132
18.9505
18.8911
18.8348
18.7814
18.7308
18.6829
18.6375
18.5944
18.5535
18.5148
18.478
18.4431
18.41
18.3786
18.3488
18.3205
18.2935
18.2682
18.243
18.2235
431.393
316.667
244.44
196.846
163.725
139.394
120.883
106.365
94.7299
85.2303
77.3579
70.7507
65.1442
60.3418
56.193
52.5825
49.4187
46.63
44.1579
41.9559
39.985
38.2139
36.6157
35.1688
33.8541
32.6561
31.5611
30.5577
29.6358
28.7869
28.0034
27.2788
26.6075
25.9842
25.4047
24.8649
24.3614
23.891
23.4509
23.0387
22.6522
22.2893
21.9481
21.6271
21.3247
21.0396
20.7706
20.5164
20.2761
20.0488
19.8335
19.6294
19.4359
19.2521
19.0776
18.9116
18.7538
18.6034
18.4602
18.3235
18.1932
18.0686
17.9497
17.8553
17.7839
17.7163
17.6523
17.5917
17.5343
17.4799
17.4284
17.3796
17.3333
17.2894
17.2478
17.2083
17.1709
17.1354
17.1017
17.0697
17.0394
17.0106
16.9832
16.9574
16.9325
16.9097
16.886
16.869
447.886
313.489
234.923
185.845
152.939
129.352
111.708
98.0233
87.1398
78.3013
71.0043
64.8969
59.7253
55.3022
51.4861
48.1684
45.2638
42.7055
40.4392
38.4217
36.6171
34.9962
33.5344
32.2116
31.0102
29.9161
28.9164
28.0008
27.16
26.3861
25.6721
25.0122
24.401
23.8338
23.3067
22.8159
22.3583
21.931
21.5314
21.1573
20.8066
20.4774
20.1682
19.8773
19.6034
19.3452
19.1017
18.8717
18.6544
18.4488
18.2541
18.0697
17.8949
17.7289
17.5713
17.4215
17.2789
17.1432
17.0139
16.8906
16.773
16.6606
16.5532
16.468
16.4036
16.3426
16.2849
16.2302
16.1784
16.1293
16.0828
16.0387
15.9969
15.9573
15.9197
15.884
15.8502
15.8182
15.7877
15.7589
15.7315
15.7055
15.6807
15.6576
15.6349
15.6147
15.5927
15.5782
456.476
306.098
223.409
174.005
141.866
119.29
102.639
89.8474
79.7411
71.5719
64.8498
59.2375
54.494
50.4432
46.9525
43.9207
41.2689
38.9351
36.8693
35.0315
33.3888
31.9143
30.5854
29.3836
28.2928
27.3
26.3935
25.5638
24.8023
24.1019
23.4561
22.8596
22.3074
21.7954
21.3197
20.8772
20.4648
20.08
19.7204
19.3839
19.0686
18.7729
18.4952
18.2342
17.9885
17.7571
17.5389
17.333
17.1385
16.9546
16.7805
16.6157
16.4595
16.3113
16.1706
16.037
15.9098
15.7889
15.6736
15.5638
15.4589
15.3589
15.2632
15.1874
15.1301
15.0758
15.0244
14.9758
14.9297
14.886
14.8447
14.8055
14.7683
14.7331
14.6996
14.668
14.6379
14.6094
14.5824
14.5568
14.5324
14.5094
14.4873
14.467
14.4465
14.4291
14.4089
14.3968
458.443
295.342
210.513
161.75
130.814
109.441
93.864
81.9916
72.6649
65.1561
58.9955
53.8636
49.5336
45.8412
42.6633
39.906