/*--------------------------------*- C++ -*----------------------------------*\
| =========                 |                                                 |
| \\      /  F ield         | OpenFOAM: The Open Source CFD Toolbox           |
|  \\    /   O peration     | Version:  2306                                  |
|   \\  /    A nd           | Website:  www.openfoam.com                      |
|    \\/     M anipulation  |                                                 |
\*---------------------------------------------------------------------------*/
FoamFile
{
    version     2.0;
    format      ascii;
    arch        "LSB;label=32;scalar=64";
    class       volScalarField;
    location    "1900";
    object      nut;
}
// * * * * * * * * * * * * * * * * * * * * * * * * * * * * * * * * * * * * * //

dimensions      [0 2 -1 0 0 0 0];

internalField   nonuniform List<scalar> 
20540
(
0.273559
0.314162
0.273555
0.314256
0.273547
0.314377
0.273531
0.314518
0.273505
0.314682
0.273467
0.31487
0.273415
0.315089
0.273343
0.315344
0.273248
0.315645
0.273123
0.316001
0.27296
0.316425
0.272747
0.316933
0.27247
0.317541
0.272109
0.318271
0.271637
0.319147
0.271017
0.320194
0.270199
0.321441
0.269113
0.322917
0.267664
0.324645
0.265719
0.32664
0.263094
0.328896
0.259534
0.331371
0.254685
0.333953
0.248059
0.336423
0.238983
0.33837
0.226536
0.339072
0.20949
0.337282
0.186263
0.330845
0.155101
0.316109
0.115479
0.287666
0.0795817
0.245438
0.0547035
0.214491
0.0563551
0.216246
0.0824854
0.249511
0.118139
0.290755
0.156573
0.317272
0.186688
0.331326
0.209243
0.337648
0.225895
0.339464
0.23812
0.338805
0.247076
0.33687
0.253634
0.334368
0.258442
0.331713
0.261972
0.329136
0.264571
0.326757
0.266491
0.32463
0.267915
0.322768
0.268975
0.321161
0.269769
0.319789
0.270365
0.318627
0.270816
0.317647
0.271159
0.316824
0.27142
0.316133
0.27162
0.315553
0.271773
0.315067
0.27189
0.314657
0.271979
0.314311
0.272047
0.314017
0.272097
0.313765
0.272135
0.313549
0.272161
0.313362
0.272179
0.3132
0.272191
0.313058
0.272196
0.312938
0.272197
0.312846
6.77125e-07
2.1522e-07
1.67936e-07
1.40646e-07
1.26071e-07
1.14439e-07
1.06332e-07
9.96246e-08
9.42845e-08
8.97737e-08
8.59781e-08
8.26925e-08
7.98517e-08
7.73478e-08
7.51393e-08
7.31761e-08
7.14168e-08
6.98345e-08
6.84079e-08
6.71117e-08
6.59326e-08
6.48547e-08
6.38686e-08
6.29622e-08
6.21266e-08
6.13556e-08
6.0642e-08
5.998e-08
5.93652e-08
5.87928e-08
5.8259e-08
5.77605e-08
5.72944e-08
5.68578e-08
5.64486e-08
5.60642e-08
5.57032e-08
5.53636e-08
5.50442e-08
5.47434e-08
5.44603e-08
5.41936e-08
5.3943e-08
5.37074e-08
5.34866e-08
5.32801e-08
5.3088e-08
5.29101e-08
5.27469e-08
5.25989e-08
5.24665e-08
5.2351e-08
5.22533e-08
5.21753e-08
5.21184e-08
5.20852e-08
5.20779e-08
5.20992e-08
5.2154e-08
5.22439e-08
5.23759e-08
5.25538e-08
5.27893e-08
5.30391e-08
5.327e-08
5.35262e-08
5.38089e-08
5.41252e-08
5.44711e-08
5.48536e-08
5.52688e-08
5.57255e-08
5.62203e-08
5.67624e-08
5.73564e-08
5.79993e-08
5.8726e-08
5.94862e-08
6.0405e-08
6.12924e-08
6.25332e-08
6.35365e-08
6.54539e-08
6.65301e-08
7.01528e-08
7.17323e-08
8.01672e-08
7.737e-08
1.54963e-05
3.32717e-06
2.33398e-06
1.89767e-06
1.67066e-06
1.50038e-06
1.3808e-06
1.28408e-06
1.20696e-06
1.14235e-06
1.0881e-06
1.04131e-06
1.00097e-06
9.65481e-07
9.34262e-07
9.06563e-07
8.81784e-07
8.5954e-07
8.39519e-07
8.21351e-07
8.0485e-07
7.89786e-07
7.76021e-07
7.63383e-07
7.51746e-07
7.41021e-07
7.31101e-07
7.21909e-07
7.1338e-07
7.05444e-07
6.98051e-07
6.9115e-07
6.84702e-07
6.78668e-07
6.73013e-07
6.67704e-07
6.62722e-07
6.58035e-07
6.53628e-07
6.49477e-07
6.4557e-07
6.41888e-07
6.38423e-07
6.3516e-07
6.32096e-07
6.29221e-07
6.26533e-07
6.24027e-07
6.21705e-07
6.19571e-07
6.17626e-07
6.15882e-07
6.14342e-07
6.13027e-07
6.11945e-07
6.11122e-07
6.10571e-07
6.10323e-07
6.10434e-07
6.10878e-07
6.11753e-07
6.13097e-07
6.14978e-07
6.17008e-07
6.18902e-07
6.21104e-07
6.23526e-07
6.26257e-07
6.29218e-07
6.32522e-07
6.36059e-07
6.39995e-07
6.44155e-07
6.48759e-07
6.53624e-07
6.58948e-07
6.64667e-07
6.70778e-07
6.77675e-07
6.8464e-07
6.93441e-07
7.01174e-07
7.13742e-07
7.22929e-07
7.42654e-07
7.61619e-07
7.97945e-07
7.03946e-07
0.000102454
3.26143e-05
2.44006e-05
2.11337e-05
1.94034e-05
1.81048e-05
1.71552e-05
1.63672e-05
1.5718e-05
1.51599e-05
1.46794e-05
1.42556e-05
1.38829e-05
1.35489e-05
1.32503e-05
1.29813e-05
1.27373e-05
1.25155e-05
1.23136e-05
1.21284e-05
1.19586e-05
1.18021e-05
1.1658e-05
1.15246e-05
1.14009e-05
1.12861e-05
1.11793e-05
1.10797e-05
1.09869e-05
1.09e-05
1.08187e-05
1.07424e-05
1.06709e-05
1.06037e-05
1.05404e-05
1.04808e-05
1.04247e-05
1.03718e-05
1.03219e-05
1.02747e-05
1.02302e-05
1.01881e-05
1.01484e-05
1.01109e-05
1.00756e-05
1.00423e-05
1.00111e-05
9.98198e-06
9.95485e-06
9.92978e-06
9.9068e-06
9.88603e-06
9.86749e-06
9.85142e-06
9.83786e-06
9.82713e-06
9.81932e-06
9.81469e-06
9.81403e-06
9.81674e-06
9.82394e-06
9.83621e-06
9.85395e-06
9.87335e-06
9.89145e-06
9.913e-06
9.93664e-06
9.96344e-06
9.99229e-06
1.00247e-05
1.00589e-05
1.00974e-05
1.01372e-05
1.01818e-05
1.02277e-05
1.02788e-05
1.03312e-05
1.03895e-05
1.04503e-05
1.05172e-05
1.05907e-05
1.06654e-05
1.0767e-05
1.08618e-05
1.10122e-05
1.11984e-05
1.1544e-05
1.0162e-05
0.000295202
9.67604e-05
6.68119e-05
5.71011e-05
5.26513e-05
4.97888e-05
4.78117e-05
4.62497e-05
4.49876e-05
4.39182e-05
4.30031e-05
4.2198e-05
4.14907e-05
4.08558e-05
4.02875e-05
3.97741e-05
3.93071e-05
3.88814e-05
3.84927e-05
3.81348e-05
3.78057e-05
3.75016e-05
3.72206e-05
3.69597e-05
3.6717e-05
3.64914e-05
3.62807e-05
3.60839e-05
3.58998e-05
3.57273e-05
3.55654e-05
3.54132e-05
3.52702e-05
3.51355e-05
3.50086e-05
3.48888e-05
3.47758e-05
3.4669e-05
3.4568e-05
3.44725e-05
3.43822e-05
3.42966e-05
3.42158e-05
3.41393e-05
3.40671e-05
3.39989e-05
3.39347e-05
3.38744e-05
3.3818e-05
3.37656e-05
3.37171e-05
3.36727e-05
3.36325e-05
3.35968e-05
3.35657e-05
3.35396e-05
3.35187e-05
3.35032e-05
3.34947e-05
3.34927e-05
3.3497e-05
3.35106e-05
3.35332e-05
3.35594e-05
3.35839e-05
3.36149e-05
3.36489e-05
3.36887e-05
3.37307e-05
3.37794e-05
3.38293e-05
3.3888e-05
3.39457e-05
3.40145e-05
3.40798e-05
3.41599e-05
3.42306e-05
3.43259e-05
3.43996e-05
3.45152e-05
3.45961e-05
3.47392e-05
3.48448e-05
3.5072e-05
3.52246e-05
3.55442e-05
3.61799e-05
3.39831e-05
0.000610955
0.000218549
0.000139032
0.000112405
0.000100899
9.44336e-05
9.03201e-05
8.73241e-05
8.50257e-05
8.31548e-05
8.15986e-05
8.02564e-05
7.90972e-05
7.80672e-05
7.71546e-05
7.63358e-05
7.55944e-05
7.4922e-05
7.43101e-05
7.37481e-05
7.32326e-05
7.27569e-05
7.23182e-05
7.19112e-05
7.15331e-05
7.11817e-05
7.08539e-05
7.05478e-05
7.02617e-05
6.99935e-05
6.97419e-05
6.95056e-05
6.92835e-05
6.90744e-05
6.88773e-05
6.86912e-05
6.85158e-05
6.83498e-05
6.81931e-05
6.80447e-05
6.79044e-05
6.77714e-05
6.76457e-05
6.75266e-05
6.7414e-05
6.73076e-05
6.72073e-05
6.71127e-05
6.7024e-05
6.69411e-05
6.68639e-05
6.67927e-05
6.67273e-05
6.66685e-05
6.66157e-05
6.65701e-05
6.65313e-05
6.65e-05
6.64769e-05
6.6464e-05
6.6459e-05
6.64646e-05
6.64821e-05
6.65069e-05
6.65298e-05
6.65624e-05
6.65976e-05
6.66424e-05
6.66876e-05
6.67444e-05
6.67987e-05
6.68696e-05
6.69331e-05
6.70189e-05
6.70907e-05
6.7196e-05
6.7269e-05
6.74017e-05
6.74706e-05
6.76415e-05
6.77091e-05
6.79578e-05
6.80357e-05
6.8451e-05
6.85095e-05
6.90947e-05
7.04351e-05
6.69005e-05
0.00106672
0.000421653
0.000260139
0.000198957
0.000171633
0.000157056
0.000148277
0.000142325
0.000137998
0.000134652
0.000131979
0.000129745
0.000127869
0.000126233
0.000124811
0.000123552
0.000122425
0.000121412
0.000120498
0.000119664
0.000118903
0.000118204
0.000117563
0.000116969
0.000116419
0.00011591
0.000115436
0.000114994
0.000114581
0.000114195
0.000113833
0.000113494
0.000113175
0.000112876
0.000112593
0.000112327
0.000112076
0.000111839
0.000111615
0.000111403
0.000111203
0.000111013
0.000110833
0.000110663
0.000110502
0.00011035
0.000110207
0.000110071
0.000109943
0.000109824
0.000109712
0.000109608
0.000109512
0.000109424
0.000109345
0.000109275
0.000109213
0.000109161
0.000109118
0.000109089
0.000109069
0.000109065
0.000109071
0.000109091
0.00010911
0.000109142
0.000109175
0.000109224
0.00010927
0.000109336
0.000109392
0.000109478
0.000109546
0.000109653
0.000109733
0.000109869
0.000109949
0.000110126
0.000110207
0.000110447
0.000110538
0.000110886
0.000110965
0.000111525
0.000111647
0.000112666
0.000114546
0.000109005
0.00168926
0.000727148
0.000452992
0.000334675
0.000277606
0.000246772
0.00022845
0.000216468
0.000208094
0.000201883
0.000197107
0.000193252
0.000190118
0.000187453
0.000185192
0.00018323
0.000181502
0.000179973
0.000178612
0.000177381
0.00017627
0.000175257
0.000174335
0.000173486
0.000172704
0.000171984
0.000171316
0.000170695
0.000170119
0.00016958
0.000169077
0.000168606
0.000168165
0.000167751
0.000167362
0.000166995
0.00016665
0.000166324
0.000166017
0.000165726
0.000165452
0.000165192
0.000164947
0.000164714
0.000164494
0.000164286
0.00016409
0.000163904
0.000163729
0.000163565
0.000163411
0.000163268
0.000163134
0.000163012
0.000162899
0.0001628
0.000162709
0.000162633
0.000162567
0.000162518
0.000162479
0.000162463
0.000162458
0.00016247
0.000162485
0.000162518
0.000162551
0.000162606
0.000162655
0.000162733
0.000162796
0.000162903
0.000162983
0.000163117
0.00016322
0.000163391
0.000163503
0.000163731
0.000163853
0.000164162
0.000164299
0.000164742
0.000164894
0.000165633
0.000165896
0.000167198
0.000169923
0.000162152
0.00251591
0.00115772
0.000742336
0.000542147
0.000437473
0.000378076
0.000342104
0.000318657
0.000302516
0.000290813
0.000282048
0.000275168
0.00026972
0.000265203
0.000261465
0.000258293
0.000255551
0.000253169
0.000251083
0.000249224
0.000247567
0.000246073
0.000244727
0.000243501
0.00024238
0.000241355
0.00024041
0.000239538
0.000238732
0.000237983
0.000237286
0.000236637
0.00023603
0.000235463
0.000234932
0.000234432
0.000233964
0.000233522
0.000233107
0.000232714
0.000232345
0.000231995
0.000231666
0.000231354
0.00023106
0.000230781
0.000230518
0.00023027
0.000230036
0.000229816
0.000229609
0.000229418
0.000229237
0.000229073
0.00022892
0.000228785
0.00022866
0.000228554
0.00022846
0.00022839
0.000228329
0.000228302
0.000228282
0.000228298
0.000228307
0.000228344
0.00022838
0.000228447
0.000228505
0.000228603
0.000228684
0.000228819
0.000228926
0.000229096
0.000229237
0.000229457
0.000229619
0.000229918
0.00023009
0.000230504
0.000230695
0.000231279
0.000231556
0.000232446
0.000232945
0.000234388
0.000238118
0.000228516
0.00359554
0.00174133
0.0011548
0.000847777
0.000675308
0.000571563
0.00050629
0.000462894
0.000432839
0.000411124
0.000395031
0.000382588
0.00037289
0.000365012
0.000358605
0.000353272
0.000348745
0.000344879
0.000341551
0.000338629
0.000336062
0.000333777
0.000331746
0.000329914
0.000328257
0.000326757
0.000325385
0.000324129
0.000322978
0.000321915
0.000320933
0.000320022
0.000319176
0.000318389
0.000317654
0.000316967
0.000316325
0.000315721
0.000315156
0.000314623
0.000314124
0.000313651
0.000313208
0.000312788
0.000312394
0.000312021
0.00031167
0.000311338
0.000311026
0.000310734
0.000310458
0.000310204
0.000309963
0.000309745
0.000309541
0.000309361
0.000309193
0.000309053
0.000308926
0.000308831
0.000308747
0.00030871
0.000308676
0.000308702
0.000308707
0.000308762
0.000308803
0.000308894
0.000308968
0.000309097
0.000309214
0.000309387
0.000309545
0.00030976
0.000309972
0.000310243
0.000310498
0.000310878
0.000311132
0.000311705
0.000311956
0.000312766
0.000313167
0.000314245
0.000315061
0.000316568
0.000321448
0.000309556
0.00499017
0.00251332
0.00172105
0.00128156
0.00101981
0.000853876
0.000744618
0.000669593
0.000616549
0.000577782
0.000548939
0.000526683
0.000509422
0.000495544
0.000484364
0.00047517
0.000467474
0.000460987
0.000455472
0.000450697
0.000446554
0.000442911
0.000439713
0.000436862
0.000434309
0.000432024
0.00042995
0.000428072
0.000426364
0.000424798
0.000423363
0.000422041
0.000420823
0.000419696
0.000418649
0.000417674
0.00041677
0.000415923
0.000415134
0.000414392
0.0004137
0.000413048
0.000412438
0.000411862
0.000411323
0.000410814
0.000410337
0.000409887
0.000409465
0.00040907
0.000408699
0.000408356
0.000408032
0.000407741
0.000407466
0.000407226
0.000407001
0.000406817
0.000406647
0.000406523
0.000406411
0.000406367
0.000406322
0.000406364
0.000406372
0.000406455
0.000406508
0.000406649
0.000406745
0.000406941
0.000407091
0.000407342
0.000407561
0.000407863
0.000408166
0.000408538
0.000408902
0.000409424
0.000409772
0.00041058
0.000410876
0.000412033
0.000412503
0.000413981
0.000414995
0.00041665
0.00042258
0.000407488
0.00677743
0.00351824
0.00247788
0.0018777
0.00150479
0.00125698
0.00108733
0.000966328
0.000878324
0.000812632
0.000763047
0.000724447
0.000694364
0.000670183
0.000650734
0.000634806
0.000621566
0.000610485
0.000601133
0.00059311
0.000586216
0.000580213
0.000574986
0.000570372
0.000566278
0.000562648
0.000559379
0.000556445
0.0005538
0.000551394
0.000549204
0.000547202
0.000545368
0.000543684
0.000542128
0.00054069
0.000539361
0.000538124
0.000536978
0.000535905
0.000534909
0.000533974
0.000533104
0.000532284
0.00053152
0.000530802
0.00053013
0.000529499
0.000528909
0.000528358
0.000527841
0.000527366
0.000526918
0.000526517
0.000526138
0.000525809
0.000525501
0.00052525
0.000525019
0.000524854
0.000524705
0.000524649
0.000524594
0.000524658
0.000524677
0.000524797
0.000524874
0.000525082
0.000525211
0.000525506
0.0005257
0.000526071
0.000526361
0.000526797
0.000527211
0.000527726
0.000528239
0.000528941
0.000529435
0.00053053
0.000530907
0.00053252
0.000533017
0.000535034
0.000536361
0.000538399
0.000544851
0.000527344
0.00905347
0.00481181
0.00347011
0.00267674
0.00216897
0.00181909
0.00157071
0.00138791
0.00125065
0.00114556
0.00106458
0.0010005
0.000949955
0.000908993
0.000875866
0.000848652
0.000826029
0.000807115
0.000791185
0.000777568
0.000765924
0.00075584
0.000747098
0.000739431
0.000732673
0.000726712
0.000721391
0.000716638
0.000712378
0.00070853
0.00070505
0.000701887
0.000699009
0.00069638
0.000693963
0.000691742
0.000689703
0.000687812
0.000686069
0.000684446
0.000682945
0.000681541
0.000680241
0.000679022
0.00067789
0.000676829
0.000675839
0.000674913
0.00067405
0.000673246
0.000672495
0.000671805
0.000671157
0.000670577
0.000670032
0.000669556
0.000669114
0.000668753
0.000668425
0.000668184
0.000667977
0.000667887
0.000667817
0.000667896
0.000667934
0.000668094
0.000668208
0.000668493
0.000668672
0.000669089
0.000669348
0.00066987
0.00067026
0.000670861
0.000671432
0.000672112
0.000672845
0.000673737
0.000674472
0.000675859
0.000676429
0.000678514
0.000679176
0.000681711
0.000683463
0.000685989
0.000693128
0.000672546
0.0119362
0.00646335
0.00475235
0.00372719
0.00305799
0.00258415
0.00223823
0.0019759
0.00177385
0.00161489
0.00148963
0.00138847
0.00130735
0.00124068
0.00118619
0.00114102
0.00110324
0.00107153
0.00104472
0.00102178
0.00100216
0.00098519
0.000970485
0.000957617
0.000946311
0.000936357
0.000927518
0.000919641
0.000912608
0.000906282
0.000900584
0.000895428
0.000890754
0.000886499
0.000882612
0.00087905
0.000875791
0.000872783
0.00087002
0.000867458
0.000865096
0.000862897
0.000860866
0.000858968
0.000857212
0.00085557
0.000854043
0.000852618
0.000851295
0.000850063
0.000848917
0.000847863
0.000846877
0.000845993
0.000845164
0.000844435
0.000843766
0.000843209
0.000842705
0.000842322
0.000842005
0.000841826
0.00084172
0.00084178
0.00084184
0.000842023
0.000842187
0.000842543
0.000842794
0.000843336
0.00084369
0.000844379
0.00084491
0.000845692
0.000846482
0.000847337
0.000848375
0.000849455
0.000850551
0.000852194
0.000853144
0.000855595
0.000856645
0.000859618
0.000861974
0.000864834
0.000873187
0.000849347
0.0155687
0.00855857
0.00639091
0.00508743
0.00422606
0.0036039
0.00313998
0.00277978
0.00249588
0.00226715
0.00208333
0.0019315
0.00180761
0.00170402
0.0016182
0.00154611
0.00148521
0.00143365
0.00138973
0.00135194
0.00131947
0.0012913
0.00126682
0.00124536
0.0012265
0.00120988
0.00119514
0.00118201
0.0011703
0.00115977
0.00115031
0.00114176
0.00113403
0.001127
0.0011206
0.00111474
0.0011094
0.00110448
0.00109997
0.0010958
0.00109196
0.0010884
0.00108511
0.00108205
0.00107922
0.00107658
0.00107414
0.00107185
0.00106974
0.00106777
0.00106594
0.00106426
0.00106269
0.00106128
0.00105995
0.00105877
0.0010577
0.00105679
0.00105596
0.00105531
0.00105477
0.00105439
0.00105418
0.00105414
0.00105421
0.00105437
0.00105459
0.00105498
0.00105532
0.00105596
0.00105645
0.00105729
0.00105802
0.00105897
0.00106005
0.00106108
0.00106251
0.00106378
0.00106536
0.00106721
0.00106876
0.00107142
0.00107322
0.0010764
0.00107965
0.0010824
0.00109293
0.00106519
0.0201222
0.0112028
0.00846586
0.00682748
0.00573772
0.00493938
0.00433472
0.00385665
0.00347283
0.00315777
0.00289921
0.00268211
0.00250184
0.0023483
0.00221932
0.00210931
0.00201521
0.00193466
0.00186532
0.00180511
0.00175303
0.00170752
0.00166775
0.00163272
0.00160182
0.00157449
0.00155019
0.0015285
0.00150911
0.00149168
0.001476
0.00146183
0.00144899
0.00143733
0.00142672
0.00141701
0.00140815
0.0014
0.00139253
0.00138563
0.00137929
0.00137341
0.001368
0.00136295
0.00135829
0.00135395
0.00134993
0.00134618
0.00134271
0.00133947
0.00133648
0.0013337
0.00133113
0.00132877
0.0013266
0.00132462
0.00132285
0.00132128
0.00131985
0.0013187
0.00131772
0.00131693
0.00131649
0.00131619
0.00131622
0.00131624
0.00131651
0.00131683
0.00131729
0.00131795
0.00131861
0.00131954
0.00132053
0.00132161
0.00132305
0.00132425
0.00132614
0.00132761
0.00132978
0.00133182
0.00133415
0.00133696
0.00133973
0.00134309
0.00134741
0.00134989
0.00136333
0.00133136
0.0257984
0.0145247
0.0110731
0.009031
0.00766969
0.00666265
0.00589133
0.0052731
0.00476962
0.00435021
0.00400019
0.00370221
0.00345037
0.00323294
0.00304778
0.00288732
0.00274831
0.00262793
0.002523
0.00243096
0.00235061
0.00227977
0.00221737
0.00216199
0.00211288
0.00206917
0.00203013
0.00199511
0.00196369
0.00193534
0.00190976
0.00188658
0.00186556
0.00184641
0.00182897
0.00181299
0.00179838
0.00178494
0.0017726
0.0017612
0.00175072
0.00174099
0.00173202
0.00172367
0.00171595
0.00170876
0.0017021
0.00169587
0.00169011
0.00168473
0.00167975
0.00167512
0.00167083
0.00166687
0.00166323
0.00165989
0.00165686
0.00165413
0.00165169
0.00164961
0.00164774
0.00164625
0.00164524
0.00164445
0.00164431
0.00164402
0.00164425
0.00164435
0.00164491
0.00164543
0.00164631
0.00164719
0.0016485
0.00164963
0.00165149
0.00165285
0.00165524
0.00165694
0.00165976
0.00166207
0.00166525
0.00166833
0.00167212
0.00167585
0.00168119
0.00168412
0.00169934
0.00166299
0.0328289
0.0186802
0.0143267
0.0117971
0.0101126
0.00885853
0.00789039
0.00710653
0.00646126
0.00591769
0.00545808
0.00506244
0.00472327
0.00442736
0.00417146
0.00394725
0.0037507
0.00357856
0.00342658
0.00329186
0.00317318
0.00306746
0.0029735
0.00288939
0.00281428
0.00274694
0.00268637
0.00263174
0.00258243
0.00253772
0.0024972
0.00246032
0.00242674
0.00239603
0.00236797
0.00234219
0.00231856
0.00229678
0.00227674
0.0022582
0.0022411
0.00222522
0.00221054
0.00219686
0.0021842
0.00217237
0.00216142
0.00215116
0.00214165
0.00213275
0.00212451
0.00211681
0.00210969
0.00210305
0.00209696
0.00209131
0.00208617
0.00208149
0.00207725
0.00207359
0.00207026
0.00206749
0.00206527
0.00206366
0.00206302
0.0020622
0.00206218
0.00206184
0.00206238
0.00206255
0.00206361
0.00206426
0.00206591
0.00206696
0.00206927
0.00207072
0.00207365
0.00207563
0.00207914
0.00208176
0.0020859
0.00208932
0.00209432
0.00209848
0.00210511
0.00210876
0.00212623
0.00208395
0.0414715
0.023856
0.0183603
0.0152424
0.0131729
0.0116261
0.0104256
0.00944652
0.00863405
0.00794395
0.00735462
0.00684302
0.00639955
0.00600945
0.00566792
0.00536604
0.0050986
0.00486169
0.00465071
0.0044617
0.00429384
0.0041427
0.0040072
0.00388479
0.00377477
0.00367531
0.00358515
0.00350331
0.00342895
0.0033611
0.00329931
0.00324276
0.00319098
0.00314344
0.00309979
0.00305955
0.0030225
0.00298823
0.00295659
0.00292723
0.00290007
0.00287479
0.00285135
0.00282947
0.00280917
0.00279017
0.00277253
0.00275597
0.00274061
0.00272618
0.00271279
0.00270023
0.00268861
0.00267771
0.00266769
0.00265833
0.00264979
0.0026419
0.00263477
0.00262834
0.0026227
0.00261775
0.00261348
0.00261045
0.00260888
0.00260715
0.00260652
0.00260547
0.00260572
0.00260534
0.00260643
0.00260666
0.00260861
0.00260945
0.00261225
0.00261371
0.00261735
0.00261951
0.00262399
0.00262694
0.00263239
0.00263612
0.00264294
0.00264729
0.00265631
0.00266001
0.00268144
0.00263022
0.0519999
0.0302725
0.0233281
0.0195023
0.0169737
0.0150801
0.0136051
0.0123958
0.0113865
0.010524
0.00978205
0.00913399
0.00856754
0.00806616
0.00762313
0.00722876
0.00687652
0.00656161
0.00627916
0.00602411
0.00579524
0.00558785
0.00540044
0.00522962
0.00507527
0.00493452
0.00480597
0.00468854
0.00458111
0.00448251
0.00439223
0.00430907
0.00423253
0.00416188
0.0040967
0.00403634
0.00398053
0.00392867
0.00388061
0.00383587
0.00379431
0.00375549
0.00371939
0.00368558
0.00365411
0.00362456
0.00359706
0.00357118
0.0035471
0.00352442
0.00350334
0.00348347
0.00346507
0.00344772
0.00343175
0.00341673
0.003403
0.00339018
0.00337858
0.0033679
0.00335844
0.00335005
0.00334261
0.00333719
0.00333407
0.00333076
0.00332905
0.00332673
0.00332632
0.00332492
0.00332576
0.00332523
0.00332727
0.00332761
0.00333086
0.00333203
0.0033365
0.0033385
0.00334426
0.0033471
0.00335434
0.00335796
0.00336711
0.00337131
0.00338329
0.00338647
0.00341173
0.00335202
0.0646832
0.0381851
0.0294042
0.0247327
0.0216565
0.0193514
0.0175515
0.0160705
0.0148293
0.0137642
0.0128431
0.0120351
0.0113245
0.0106928
0.0101309
0.00962804
0.00917621
0.00876945
0.00840249
0.00806919
0.00776765
0.0074929
0.00724298
0.00701397
0.00680514
0.00661378
0.006438
0.00627643
0.00612762
0.00599037
0.00586409
0.00574695
0.00563862
0.00553815
0.00544498
0.00535833
0.00527782
0.00520269
0.00513281
0.00506749
0.00500656
0.00494945
0.00489615
0.00484607
0.0047993
0.00475526
0.00471413
0.00467533
0.00463909
0.00460488
0.00457298
0.00454282
0.00451481
0.00448831
0.00446382
0.00444069
0.00441947
0.00439955
0.00438143
0.00436458
0.00434964
0.00433589
0.00432389
0.00431481
0.0043094
0.00430367
0.00430026
0.004296
0.00429438
0.00429156
0.00429158
0.00429012
0.00429174
0.00429156
0.0042948
0.0042958
0.00430073
0.00430285
0.00430955
0.00431275
0.00432142
0.00432565
0.00433663
0.00434176
0.00435591
0.00436021
0.00438777
0.0043194
0.0797528
0.0478809
0.0367771
0.03111
0.0273808
0.0245866
0.0224016
0.0205996
0.0190847
0.0177813
0.0166499
0.0156545
0.0147756
0.0139919
0.0132916
0.0126624
0.0120948
0.0115813
0.011116
0.0106916
0.0103054
0.00995197
0.00962878
0.0093315
0.00905857
0.00880733
0.00857551
0.00836132
0.00816319
0.00797944
0.00780939
0.0076512
0.00750416
0.00736718
0.0072396
0.00712045
0.00700923
0.00690506
0.00680791
0.00671665
0.0066312
0.00655087
0.00647562
0.00640472
0.00633825
0.00627551
0.00621669
0.00616109
0.00610898
0.00605966
0.00601352
0.00596981
0.00592903
0.0058904
0.00585453
0.0058206
0.00578928
0.00575982
0.00573282
0.00570779
0.00568491
0.00566389
0.00564594
0.00563174
0.00562299
0.00561406
0.00560787
0.00560122
0.00559738
0.00559286
0.00559122
0.00558867
0.00558917
0.00558846
0.0055911
0.00559209
0.00559691
0.00559949
0.00560661
0.00561066
0.00562027
0.00562569
0.00563814
0.00564468
0.00566085
0.00566659
0.00569633
0.00561784
0.097351
0.0596396
0.0456751
0.0388303
0.0343224
0.0309467
0.0283042
0.026122
0.0242837
0.0226995
0.0213209
0.0201061
0.0190305
0.0180698
0.0172087
0.0164331
0.0157316
0.0150949
0.0145162
0.013987
0.0135034
0.0130594
0.0126519
0.012276
0.0119293
0.011609
0.0113124
0.0110374
0.010782
0.0105444
0.0103234
0.0101172
0.00992485
0.00974502
0.00957692
0.00941939
0.00927189
0.00913328
0.0090034
0.00888118
0.00876637
0.00865812
0.00855638
0.00846028
0.00836989
0.00828439
0.00820396
0.00812778
0.00805615
0.00798825
0.00792447
0.00786399
0.00780734
0.00775361
0.00770349
0.00765605
0.00761202
0.00757052
0.00753234
0.00749655
0.00746425
0.00743391
0.00740766
0.00738734
0.00737387
0.00736105
0.00735095
0.00734132
0.00733434
0.00732763
0.00732358
0.00731959
0.00731833
0.00731687
0.00731836
0.00731926
0.00732349
0.00732661
0.00733366
0.0073388
0.00734887
0.00735578
0.00736925
0.00737747
0.00739526
0.0074026
0.00743383
0.00734539
0.117456
0.0737032
0.0563528
0.0481053
0.0426694
0.0386018
0.035415
0.0327814
0.0305603
0.0286447
0.0269755
0.0255036
0.0241982
0.0230314
0.0219838
0.0210388
0.020183
0.0194047
0.0186957
0.0180465
0.0174517
0.0169045
0.0164009
0.0159355
0.0155051
0.0151063
0.0147363
0.0143921
0.0140718
0.0137729
0.0134941
0.0132333
0.0129894
0.0127608
0.0125465
0.0123452
0.0121561
0.0119782
0.0118108
0.011653
0.0115044
0.011364
0.0112316
0.0111064
0.0109883
0.0108764
0.0107708
0.0106707
0.0105762
0.0104866
0.0104021
0.010322
0.0102466
0.0101751
0.0101081
0.0100447
0.00998559
0.00992979
0.00987822
0.0098298
0.0097857
0.0097446
0.00970799
0.00968032
0.00966107
0.00964346
0.00962857
0.00961515
0.0096043
0.00959473
0.00958763
0.00958163
0.00957809
0.00957541
0.00957529
0.00957574
0.00957895
0.00958234
0.00958887
0.00959495
0.00960493
0.00961329
0.00962714
0.00963692
0.00965577
0.00966432
0.00969581
0.00960125
0.139794
0.0902251
0.0690705
0.0591508
0.0526125
0.047722
0.0438866
0.0407167
0.0380419
0.035735
0.033724
0.0319509
0.0303774
0.0289707
0.0277072
0.0265667
0.0255331
0.0245924
0.0237344
0.0229484
0.0222271
0.0215629
0.0209504
0.020384
0.0198593
0.0193723
0.0189196
0.0184979
0.0181047
0.0177373
0.0173939
0.0170722
0.0167706
0.0164875
0.0162217
0.0159715
0.0157361
0.0155141
0.015305
0.0151074
0.014921
0.0147447
0.0145781
0.0144203
0.0142711
0.0141297
0.0139959
0.0138689
0.0137488
0.0136348
0.013527
0.0134247
0.0133282
0.0132367
0.0131506
0.0130691
0.0129928
0.0129208
0.0128538
0.0127912
0.0127334
0.0126799
0.0126314
0.0125951
0.0125692
0.0125458
0.0125254
0.0125073
0.0124919
0.0124787
0.0124679
0.0124592
0.0124528
0.0124483
0.012446
0.0124454
0.0124471
0.0124501
0.0124556
0.012462
0.0124712
0.0124806
0.0124937
0.0125051
0.0125228
0.0125337
0.0125631
0.0124678
0.163766
0.109185
0.0840653
0.0721646
0.0643257
0.0584592
0.0538515
0.0500444
0.0468319
0.0440636
0.0416513
0.0395259
0.0376404
0.0359558
0.0344428
0.0330773
0.0318399
0.0307137
0.0296861
0.0287446
0.0278801
0.0270838
0.0263489
0.0256689
0.0250385
0.0244529
0.0239081
0.0234001
0.022926
0.0224827
0.0220677
0.0216786
0.0213135
0.0209704
0.0206477
0.0203438
0.0200575
0.0197872
0.0195322
0.0192912
0.0190634
0.0188477
0.0186437
0.0184502
0.0182671
0.0180932
0.0179286
0.0177722
0.0176241
0.0174834
0.0173501
0.0172236
0.0171039
0.0169904
0.0168833
0.016782
0.0166867
0.016597
0.016513
0.0164345
0.0163616
0.0162943
0.0162325
0.0161863
0.0161529
0.0161228
0.016096
0.0160724
0.0160517
0.0160339
0.0160189
0.0160065
0.0159967
0.0159893
0.0159844
0.0159816
0.0159812
0.0159828
0.0159866
0.0159921
0.0159999
0.0160089
0.0160204
0.0160321
0.0160478
0.0160597
0.0160859
0.0159952
0.18828
0.130256
0.10151
0.0872809
0.077931
0.0709144
0.0653902
0.0608285
0.0569816
0.0536714
0.0507901
0.0482554
0.0460089
0.0440041
0.0422051
0.0405826
0.0391132
0.0377766
0.0365571
0.0354403
0.0344149
0.0334705
0.0325989
0.0317923
0.0310445
0.0303495
0.0297028
0.0290996
0.0285364
0.0280096
0.0275161
0.0270533
0.0266187
0.0262101
0.0258255
0.0254632
0.0251215
0.0247989
0.0244943
0.0242062
0.0239336
0.0236755
0.0234311
0.0231992
0.0229795
0.0227709
0.0225731
0.0223851
0.0222069
0.0220375
0.0218769
0.0217243
0.0215798
0.0214427
0.021313
0.0211903
0.0210746
0.0209656
0.0208633
0.0207675
0.0206782
0.0205955
0.0205192
0.0204618
0.0204201
0.0203823
0.0203483
0.020318
0.0202913
0.0202679
0.0202477
0.0202305
0.0202164
0.020205
0.0201963
0.0201903
0.0201867
0.0201854
0.0201865
0.0201896
0.0201948
0.0202017
0.0202107
0.0202206
0.0202331
0.0202451
0.0202578
0.0201852
0.21168
0.152817
0.121349
0.104484
0.0934333
0.0850782
0.0784773
0.0730303
0.0684416
0.0645017
0.0610787
0.0580735
0.0554146
0.0530457
0.0509228
0.0490106
0.0472805
0.0457083
0.0442749
0.0429631
0.0417593
0.0406512
0.0396287
0.0386828
0.037806
0.0369914
0.0362333
0.0355263
0.0348662
0.0342487
0.0336703
0.0331277
0.0326181
0.0321389
0.0316879
0.0312628
0.0308618
0.0304832
0.0301255
0.0297872
0.029467
0.0291636
0.0288763
0.0286037
0.0283451
0.0280997
0.0278667
0.0276454
0.0274352
0.0272356
0.027046
0.0268659
0.0266951
0.026533
0.0263794
0.0262341
0.0260967
0.0259671
0.0258452
0.0257308
0.0256238
0.0255243
0.0254322
0.0253623
0.0253112
0.0252646
0.0252224
0.0251844
0.0251504
0.0251202
0.0250936
0.0250704
0.0250506
0.0250338
0.0250201
0.0250092
0.025001
0.0249953
0.024992
0.0249909
0.0249919
0.0249948
0.0249996
0.0250056
0.0250139
0.0250217
0.0250318
0.0249683
0.23173
0.175841
0.143106
0.123564
0.110608
0.100727
0.0928859
0.086421
0.0809832
0.0763267
0.0722913
0.0687576
0.0656381
0.0628644
0.0603834
0.058152
0.056136
0.0543063
0.0526397
0.0511162
0.049719
0.0484339
0.0472489
0.0461532
0.0451381
0.0441954
0.0433183
0.0425008
0.0417375
0.0410237
0.0403552
0.0397282
0.0391394
0.0385858
0.0380647
0.0375736
0.0371105
0.0366731
0.0362599
0.035869
0.035499
0.0351486
0.0348165
0.0345015
0.0342026
0.0339188
0.0336494
0.0333934
0.0331502
0.0329191
0.0326996
0.032491
0.0322929
0.0321048
0.0319264
0.0317573
0.0315974
0.0314461
0.0313036
0.0311694
0.0310435
0.0309259
0.0308166
0.0307329
0.0306713
0.0306147
0.0305631
0.030516
0.0304734
0.030435
0.0304005
0.0303698
0.0303427
0.0303189
0.0302984
0.0302809
0.0302662
0.0302541
0.0302446
0.0302373
0.0302322
0.030229
0.0302277
0.0302278
0.0302301
0.0302312
0.0302407
0.0301845
0.24572
0.197772
0.165741
0.143838
0.128791
0.117239
0.108027
0.100438
0.0940672
0.0886282
0.0839285
0.0798252
0.0762121
0.0730072
0.0701463
0.0675781
0.0652613
0.0631618
0.0612517
0.0595074
0.0579095
0.056441
0.0550879
0.0538378
0.0526802
0.0516058
0.0506067
0.0496759
0.0488072
0.0479951
0.0472348
0.0465219
0.0458527
0.0452235
0.0446315
0.0440737
0.0435476
0.043051
0.0425817
0.042138
0.041718
0.0413201
0.0409431
0.0405855
0.0402462
0.0399241
0.0396182
0.0393275
0.0390513
0.0387887
0.0385391
0.0383018
0.0380764
0.0378621
0.0376587
0.0374657
0.0372828
0.0371095
0.0369457
0.0367911
0.0366455
0.0365088
0.036381