/*--------------------------------*- C++ -*----------------------------------*\
| =========                 |                                                 |
| \\      /  F ield         | OpenFOAM: The Open Source CFD Toolbox           |
|  \\    /   O peration     | Version:  2306                                  |
|   \\  /    A nd           | Website:  www.openfoam.com                      |
|    \\/     M anipulation  |                                                 |
\*---------------------------------------------------------------------------*/
FoamFile
{
    version     2.0;
    format      ascii;
    arch        "LSB;label=32;scalar=64";
    class       volScalarField;
    location    "1900";
    object      omega;
}
// * * * * * * * * * * * * * * * * * * * * * * * * * * * * * * * * * * * * * //

dimensions      [0 0 -1 0 0 0 0];

internalField   nonuniform List<scalar> 
20540
(
1731.41
2488.93
1731.33
2488.1
1730.94
2486.76
1730.24
2484.95
1729.17
2482.6
1727.64
2479.6
1725.57
2475.81
1722.84
2471.08
1719.32
2465.2
1714.85
2457.92
1709.24
2448.95
1702.26
2437.94
1693.64
2424.45
1683.05
2407.99
1670.12
2387.96
1654.4
2363.66
1635.37
2334.3
1612.45
2298.96
1584.95
2256.63
1552.13
2206.19
1513.18
2146.47
1467.23
2076.31
1413.42
1994.61
1350.93
1900.5
1279.09
1793.46
1197.4
1673.56
1105.61
1541.74
1003.65
1400.13
891.199
1252.07
766.774
1098.77
647.328
964.307
568.291
875.139
575.179
882.218
664.155
977.823
784.7
1113.08
906.594
1262.39
1016.88
1405.98
1117.16
1542.89
1207.74
1670.56
1288.66
1787
1360.13
1891.35
1422.59
1983.5
1476.66
2063.89
1523.09
2133.32
1562.69
2192.75
1596.24
2243.27
1624.53
2285.95
1648.28
2321.82
1668.12
2351.83
1684.63
2376.84
1698.32
2397.62
1709.62
2414.82
1718.9
2429.04
1726.5
2440.74
1732.67
2450.37
1737.65
2458.25
1741.64
2464.7
1744.79
2469.94
1747.24
2474.2
1749.11
2477.64
1750.49
2480.4
1751.47
2482.58
1752.11
2484.29
1752.46
2485.57
1752.58
2486.4
7.14214e+06
7.11598e+06
7.1133e+06
7.11176e+06
7.11094e+06
7.11028e+06
7.10982e+06
7.10944e+06
7.10914e+06
7.10889e+06
7.10867e+06
7.10849e+06
7.10833e+06
7.10818e+06
7.10806e+06
7.10795e+06
7.10785e+06
7.10776e+06
7.10768e+06
7.10761e+06
7.10754e+06
7.10748e+06
7.10742e+06
7.10737e+06
7.10733e+06
7.10728e+06
7.10724e+06
7.1072e+06
7.10717e+06
7.10714e+06
7.10711e+06
7.10708e+06
7.10705e+06
7.10703e+06
7.107e+06
7.10698e+06
7.10696e+06
7.10694e+06
7.10693e+06
7.10691e+06
7.10689e+06
7.10688e+06
7.10686e+06
7.10685e+06
7.10684e+06
7.10683e+06
7.10681e+06
7.1068e+06
7.1068e+06
7.10679e+06
7.10678e+06
7.10677e+06
7.10677e+06
7.10676e+06
7.10676e+06
7.10676e+06
7.10676e+06
7.10676e+06
7.10676e+06
7.10677e+06
7.10677e+06
7.10678e+06
7.1068e+06
7.10681e+06
7.10682e+06
7.10684e+06
7.10685e+06
7.10687e+06
7.10689e+06
7.10691e+06
7.10694e+06
7.10696e+06
7.10699e+06
7.10702e+06
7.10705e+06
7.10709e+06
7.10713e+06
7.10718e+06
7.10723e+06
7.10728e+06
7.10735e+06
7.10741e+06
7.10752e+06
7.10758e+06
7.1078e+06
7.10786e+06
7.10851e+06
7.10789e+06
1.37336e+06
1.38415e+06
1.36615e+06
1.34406e+06
1.32985e+06
1.31728e+06
1.30793e+06
1.29986e+06
1.2932e+06
1.28742e+06
1.28243e+06
1.27803e+06
1.27415e+06
1.27068e+06
1.26757e+06
1.26477e+06
1.26223e+06
1.25992e+06
1.25782e+06
1.25589e+06
1.25413e+06
1.2525e+06
1.251e+06
1.24961e+06
1.24832e+06
1.24713e+06
1.24602e+06
1.24498e+06
1.24401e+06
1.24311e+06
1.24226e+06
1.24147e+06
1.24073e+06
1.24003e+06
1.23937e+06
1.23875e+06
1.23816e+06
1.23761e+06
1.23709e+06
1.2366e+06
1.23614e+06
1.2357e+06
1.23529e+06
1.2349e+06
1.23454e+06
1.2342e+06
1.23388e+06
1.23358e+06
1.23331e+06
1.23306e+06
1.23284e+06
1.23264e+06
1.23247e+06
1.23233e+06
1.23223e+06
1.23216e+06
1.23213e+06
1.23216e+06
1.23223e+06
1.23236e+06
1.23255e+06
1.23281e+06
1.23316e+06
1.23354e+06
1.23388e+06
1.23426e+06
1.23468e+06
1.23515e+06
1.23565e+06
1.23621e+06
1.23682e+06
1.23748e+06
1.23819e+06
1.23895e+06
1.23979e+06
1.24067e+06
1.24167e+06
1.24267e+06
1.2439e+06
1.24498e+06
1.24661e+06
1.24762e+06
1.25007e+06
1.25076e+06
1.25455e+06
1.25558e+06
1.25821e+06
1.29053e+06
489940
533781
553550
550871
546249
540359
535432
530832
526843
523253
520067
517189
514603
512250
510112
508161
506371
504726
503214
501816
500522
499322
498207
497170
496202
495299
494454
493662
492921
492224
491569
490952
490371
489824
489307
488819
488358
487922
487510
487120
486751
486402
486072
485761
485468
485193
484935
484696
484474
484272
484089
483928
483789
483675
483587
483529
483504
483516
483567
483664
483813
484016
484285
484565
484831
485127
485450
485806
486196
486619
487078
487568
488102
488658
489279
489902
490636
491314
492222
492891
494123
494640
496430
496438
499031
498308
501432
505698
253497
256466
276852
282879
284045
282701
280988
279048
277207
275461
273857
272377
271025
269782
268641
267594
266629
265739
264917
264156
263450
262794
262184
261616
261085
260590
260125
259690
259282
258899
258538
258199
257879
257578
257293
257024
256770
256529
256302
256087
255883
255690
255508
255336
255174
255022
254879
254746
254622
254509
254406
254314
254235
254167
254114
254076
254055
254053
254071
254111
254179
254273
254399
254528
254653
254794
254948
255114
255297
255492
255707
255927
256173
256413
256694
256947
257273
257522
257923
258128
258643
258723
259353
259116
259797
258711
260666
252322
160119
146128
156961
163915
167252
168048
167951
167343
166560
165705
164853
164026
163241
162502
161811
161167
160567
160009
159490
159007
158556
158136
157744
157378
157036
156715
156414
156132
155866
155617
155382
155161
154953
154756
154570
154394
154228
154071
153922
153781
153648
153522
153402
153289
153182
153082
152987
152899
152816
152740
152670
152607
152551
152502
152461
152428
152406
152393
152393
152403
152428
152467
152523
152581
152638
152703
152775
152852
152937
153025
153124
153220
153331
153430
153552
153646
153782
153859
154013
154057
154217
154185
154305
154142
154033
153543
152958
150087
112311
94584.3
97786.9
102608
106103
107821
108617
108812
108705
108423
108053
107642
107216
106794
106382
105986
105609
105252
104915
104597
104299
104018
103754
103506
103273
103053
102847
102653
102470
102297
102134
101981
101836
101698
101568
101446
101329
101219
101115
101016
100922
100833
100748
100668
100593
100521
100454
100391
100331
100276
100224
100177
100135
100096
100063
100034
100011
99994
99983.9
99979.4
99982.8
99993
100013
100034
100056
100082
100112
100142
100177
100211
100251
100286
100329
100361
100404
100428
100470
100480
100511
100495
100502
100446
100374
100279
99915.8
99629.9
98650.8
98763.8
83624.9
66836.3
65806.2
68124.7
70732.7
72516.2
73658.3
74291.6
74602.7
74700.6
74664.9
74548.2
74377.6
74180.8
73967.5
73748
73529
73313.7
73104.3
72902.5
72709.2
72524.8
72349.1
72182.3
72024
71873.9
71731.8
71597.2
71469.7
71348.9
71234.5
71126.2
71023.4
70926
70833.7
70746.1
70662.9
70583.9
70508.9
70437.7
70370.1
70305.8
70244.7
70186.8
70131.8
70079.6
70030.2
69983.5
69939.5
69898.2
69859.5
69823.4
69790.1
69759.4
69731.8
69706.9
69685.4
69666.7
69652.1
69640.3
69632.8
69628
69628.3
69629.8
69633.1
69638.2
69645.3
69651.7
69660
69666.2
69675
69679.3
69686.4
69687.1
69688
69682.2
69675.4
69656.5
69638.5
69595.3
69553.3
69482.8
69357.7
69272.6
68926
68706.1
67809.1
68825.9
64604.3
50090.5
47082.1
47607.3
49073.7
50441.5
51526.2
52294.4
52808.9
53131.3
53312.7
53397.8
53410.7
53379.6
53314
53226.6
53126.6
53018.2
52905.2
52790.7
52676.8
52564.9
52455.4
52349.2
52246.9
52148.3
52053.8
51963.4
51876.9
51794.3
51715.5
51640.3
51568.7
51500.4
51435.4
51373.4
51314.3
51258.1
51204.5
51153.4
51104.7
51058.4
51014.2
50972.1
50932
50893.9
50857.6
50823.1
50790.4
50759.3
50730
50702.3
50676.3
50651.8
50629.2
50607.9
50588.6
50570.5
50554.5
50539.7
50527
50514.7
50504.8
50496.1
50489.9
50484
50479
50472.7
50466.9
50459
50451.5
50440.8
50429.7
50415.1
50397.6
50375.9
50351.7
50316.1
50284.2
50226.5
50174.3
50098.9
49976.2
49893.8
49624.4
49440.7
48710.3
49827
51131.7
39068.9
35316.7
34773.2
35311.2
36121.1
36925.9
37610.6
38151.4
38559.9
38853.4
39059.6
39193.4
39276.2
39317.8
39328.7
39318.7
39292.4
39253.9
39207.3
39155.5
39100.4
39042.8
38984.3
38925.8
38867.5
38810.5
38754.6
38700.1
38647.3
38596.2
38546.9
38499.4
38453.7
38409.8
38367.7
38327.3
38288.5
38251.4
38215.8
38181.8
38149.2
38118
38088.1
38059.5
38032.1
38006
37980.9
37957
37934
37912.2
37891.2
37871.2
37852
37833.8
37816.1
37799.4
37783.1
37767.6
37752.2
37737.5
37722.2
37707.5
37693.9
37683
37671.7
37660.6
37648
37635.3
37620.4
37605.2
37587.3
37567.9
37546.4
37520.9
37493.2
37461.7
37421.5
37385.1
37324.6
37275.4
37198
37099.7
37015.3
36816.3
36667.9
36090.4
37116.6
41143.4
31332
27456.7
26353.8
26280.9
26598.2
27067
27555.5
28002.5
28387.8
28702.3
28955.6
29150.7
29300.4
29410.6
29488.8
29542.6
29576.6
29594.5
29600.2
29596.7
29586.3
29569.8
29549.2
29525.8
29500
29473.1
29445.1
29416.5
29387.7
29359
29330.6
29302.7
29275.2
29248.4
29222.3
29196.9
29172.3
29148.4
29125.3
29103
29081.5
29060.7
29040.6
29021.3
29002.6
28984.7
28967.3
28950.5
28934.2
28918.5
28903.2
28888.4
28873.8
28859.7
28845.6
28831.8
28817.8
28803.8
28789.4
28774.8
28759
28742.7
28727.5
28714.7
28701.4
28687.7
28672.6
28657.1
28639.4
28621.2
28600.6
28578.4
28554.5
28526.6
28497.9
28464.5
28425.5
28388.9
28331.8
28289.4
28213.2
28142.6
28051.3
27913.3
27793.3
27351.6
28199.2
33493.3
25632.3
21931.7
20585.8
20149.4
20125.2
20298.7
20570.5
20869.9
21165.1
21433.8
21673.7
21877.4
22049.9
22191.7
22306.6
22399
22472.2
22528.7
22571.7
22603.7
22626.7
22641.9
22650.9
22655.2
22655.2
22652.5
22646.9
22639.3
22630.2
22619.8
22608.6
22596.7
22584.2
22571.5
22558.6
22545.7
22532.7
22519.8
22507.1
22494.5
22482.2
22470.1
22458.2
22446.6
22435.1
22424
22413
22402.3
22391.7
22381.3
22370.9
22360.6
22350.2
22339.9
22329.2
22318.4
22307.1
22295.3
22282.8
22269.5
22254.9
22238.9
22224.1
22211.2
22197.8
22183.6
22168.4
22152.3
22134.4
22115.9
22095.2
22073.1
22049.7
22022.3
21995.6
21962.8
21928.3
21893.1
21843
21806.6
21736.8
21685.3
21599.3
21499.4
21400.7
21076
21686.6
27493
21276.4
17884.9
16475.5
15850.6
15610.3
15577.2
15662.6
15814
15996.3
16184.6
16371.9
16545
16704
16844.7
16967.8
17074.4
17165.7
17242.9
17307.9
17362.3
17407.5
17444.7
17475
17499.6
17519.1
17534.8
17546.7
17555.6
17562.1
17566.4
17569
17570.1
17569.9
17568.9
17566.9
17564.2
17560.9
17557.2
17553.1
17548.7
17544
17539.2
17534.2
17529
17523.8
17518.4
17513
17507.4
17501.7
17495.9
17489.8
17483.6
17477
17470.2
17462.9
17455.1
17446.7
17437.4
17427.3
17415.9
17403.6
17389
17375.8
17363.8
17351.6
17338.1
17324.1
17308.8
17292.4
17274.9
17255.9
17235.2
17214.1
17188.5
17165.2
17134.6
17105.7
17072.8
17031.5
16998.9
16940.1
16898.9
16827.4
16748.6
16668.9
16430
16869.7
22703.3
17851.4
14821.2
13445.5
12741.5
12381.6
12215
12170.6
12200.2
12278.3
12380.4
12499.9
12621.5
12743.9
12859.8
12968.2
13068
13158.3
13239.1
13311.2
13374.8
13430.8
13479.8
13522.5
13559.8
13592
13620
13644.1
13664.9
13682.8
13698.1
13711.2
13722.3
13731.7
13739.7
13746.3
13751.9
13756.4
13760.1
13763
13765.3
13767
13768.2
13768.9
13769.2
13769.1
13768.7
13767.8
13766.7
13765.2
13763.3
13761.1
13758.5
13755.3
13751.7
13747.5
13742.6
13737
13730.4
13723
13713.9
13704.2
13691.8
13681
13670.3
13660.1
13647.9
13636
13622.1
13608
13592.2
13575.8
13557.2
13539.2
13516.3
13496.9
13469.3
13446.1
13416
13383.7
13353.3
13307.7
13271.6
13215.8
13151.1
13090.1
12908.7
13226.9
18829.6
15097.4
12438.9
11147
10428.4
10012.9
9770.91
9642.87
9588.03
9586.14
9613.82
9669
9735.2
9812.27
9891.34
9971.44
10050
10124.9
10195.6
10261.7
10322.6
10378.5
10429.5
10475.8
10517.7
10555.5
10589.6
10620.3
10647.8
10672.6
10694.8
10714.7
10732.5
10748.5
10762.9
10775.7
10787.3
10797.6
10806.8
10815.1
10822.5
10829.1
10835
10840.2
10844.8
10848.9
10852.4
10855.4
10857.8
10859.8
10861.3
10862.2
10862.6
10862.5
10861.7
10860.3
10858
10855.1
10851
10846.3
10839.6
10832.7
10822.7
10814.5
10805.5
10797.5
10786.9
10777.4
10765.3
10753.9
10740.1
10726.8
10710.4
10695.9
10675.8
10660.3
10636.1
10618
10591.3
10566.8
10538.7
10505.3
10471.8
10430.9
10376.7
10333.5
10188.4
10423.5
15666.5
12843.2
10545.6
9361.14
8664.59
8233.15
7955.14
7779.76
7672.08
7614.66
7589.46
7592.59
7610.76
7645.3
7686.27
7733.85
7784.86
7836.76
7888.86
7940.22
7989.53
8036.76
8081.45
8123.6
8162.99
8199.65
8233.7
8265.24
8294.37
8321.27
8346.04
8368.85
8389.84
8409.15
8426.91
8443.26
8458.28
8472.11
8484.82
8496.53
8507.28
8517.19
8526.27
8534.63
8542.27
8549.27
8555.62
8561.41
8566.56
8571.19
8575.18
8578.65
8581.46
8583.69
8585.2
8586.19
8586.08
8585.45
8583.77
8581.23
8577.02
8572.62
8565.05
8559.33
8552.05
8546.26
8537.47
8530.35
8520.08
8511.38
8499.52
8489.3
8475.22
8464
8446.83
8434.76
8414.31
8400.23
8377.33
8359.03
8333.97
8309.83
8279.81
8249.94
8205.38
8175.13
8058.43
8233.69
13065.3
10971.6
9013.72
7945.41
7290.44
6866.63
6577.72
6379.94
6243.06
6151.79
6091.66
6058.08
6041.39
6041.56
6050.03
6068.16
6092.33
6120.01
6150.91
6183.78
6217.02
6250.61
6283.79
6316.41
6347.91
6378.17
6407.14
6434.73
6460.87
6485.62
6508.92
6530.86
6551.47
6570.81
6588.94
6605.94
6621.84
6636.73
6650.66
6663.7
6675.87
6687.26
6697.88
6707.81
6717.04
6725.66
6733.62
6741.03
6747.79
6754.04
6759.63
6764.73
6769.13
6773.03
6776.13
6778.77
6780.41
6781.56
6781.5
6780.82
6778.92
6776.34
6771.23
6767.5
6761.96
6757.98
6750.95
6745.91
6737.45
6731.17
6721.22
6713.74
6701.9
6693.53
6679.25
6670.01
6653.2
6642.33
6623.34
6609.59
6588.24
6570.57
6545.03
6522.95
6487.4
6464
6378.54
6506.47
10916
9399.61
7755.45
6803.86
6200.09
5797.17
5512.54
5308.41
5158.48
5049.21
4968.65
4912.04
4872.05
4847.62
4832.88
4827.84
4829.81
4836.52
4848.14
4863.19
4879.99
4898.81
4918.69
4939.5
4960.43
4981.38
5002.22
5022.7
5042.69
5062.14
5080.88
5098.93
5116.25
5132.84
5148.69
5163.8
5178.18
5191.86
5204.84
5217.17
5228.84
5239.92
5250.37
5260.27
5269.58
5278.39
5286.62
5294.4
5301.59
5308.35
5314.5
5320.24
5325.32
5329.99
5333.91
5337.42
5340.07
5342.22
5343.45
5343.89
5343.43
5342.21
5339.34
5336.88
5333.01
5330.27
5324.97
5321.44
5314.73
5310.32
5302.23
5296.88
5287.22
5281.05
5269.54
5262.49
5249.06
5240.66
5225.34
5214.99
5197.42
5184.41
5163.38
5147.15
5119.24
5101.48
5040.84
5133.32
9134.12
8067.16
6708.8
5869.93
5321.15
4946.09
4674.52
4473.86
4321.25
4204.65
4114.01
4044.65
3990.8
3950.86
3920.68
3899.48
3885.43
3876.71
3872.98
3873.44
3876.2
3881.94
3889.53
3898.95
3909.2
3920.34
3932.22
3944.49
3956.99
3969.64
3982.18
3994.65
4006.94
4019
4030.77
4042.23
4053.33
4064.09
4074.47
4084.47
4094.08
4103.32
4112.15
4120.63
4128.69
4136.41
4143.7
4150.67
4157.18
4163.38
4169.09
4174.49
4179.33
4183.88
4187.79
4191.38
4194.24
4196.72
4198.39
4199.56
4199.7
4199.27
4197.87
4196.25
4193.63
4191.69
4187.87
4185.27
4180.24
4176.99
4170.72
4166.79
4159.24
4154.57
4145.64
4140.15
4129.73
4123.24
4111.19
4103.34
4089.37
4079.71
4063.02
4051.07
4029.75
4016.58
3974.83
4040.59
7654.27
6929.57
5828.82
5096.13
4602.85
4258.88
4005.09
3813.64
3664.67
3547.56
3453.7
3378.68
3317.79
3269.22
3229.88
3198.66
3174.2
3155.04
3140.6
3130.37
3122.97
3118.55
3116.33
3116.4
3117.55
3120.15
3123.97
3128.59
3133.92
3139.84
3146.05
3152.64
3159.45
3166.41
3173.44
3180.5
3187.53
3194.53
3201.41
3208.19
3214.81
3221.3
3227.6
3233.74
3239.65
3245.4
3250.88
3256.19
3261.19
3266.02
3270.49
3274.78
3278.65
3282.35
3285.54
3288.53
3290.94
3293.08
3294.58
3295.72
3296.1
3295.87
3295.05
3293.92
3292.06
3290.63
3287.79
3285.84
3282.05
3279.57
3274.81
3271.78
3266.04
3262.39
3255.61
3251.29
3243.38
3238.29
3229.1
3223.05
3212.33
3205.05
3192.31
3183.48
3167.72
3158.14
3130.28
3175.9
6424.26
5952.94
5082.33
4447.78
4008.71
3696.85
3463.15
3284.01
3142.37
3028.86
2936.1
2860.02
2796.69
2744.26
2700.31
2663.64
2633.14
2607.67
2586.54
2569.36
2555.12
2543.73
2534.58
2527.69
2522.3
2518.4
2515.84
2514.34
2513.83
2514.07
2514.84
2516.31
2518.21
2520.5
2523.1
2525.96
2529.02
2532.26
2535.58
2539
2542.46
2545.98
2549.47
2552.97
2556.4
2559.82
2563.11
2566.38
2569.47
2572.52
2575.35
2578.11
2580.59
2583
2585.06
2587
2588.54
2589.91
2590.81
2591.47
2591.51
2591.25
2590.42
2589.45
2587.9
2586.74
2584.48
2582.9
2579.97
2577.92
2574.35
2571.81
2567.57
2564.52
2559.54
2555.97
2550.16
2546.01
2539.23
2534.44
2526.51
2520.92
2511.55
2505.02
2493.7
2486.86
2468.76
2499.4
5401.91
5111.09
4444.53
3899
3511.94
3232
3019.21
2853.92
2721.58
2614.04
2524.97
2450.67
2387.82
2334.61
2289.11
2250.14
2216.73
2187.96
2163.15
2141.93
2123.57
2107.87
2094.33
2082.9
2073.09
2064.76
2057.77
2051.93
2047.11
2043.19
2039.96
2037.45
2035.53
2034.12
2033.15
2032.58
2032.34
2032.42
2032.67
2033.18
2033.86
2034.71
2035.66
2036.73
2037.85
2039.07
2040.28
2041.55
2042.78
2044.04
2045.2
2046.39
2047.42
2048.44
2049.26
2050.04
2050.57
2050.99
2051.12
2051.03
2050.69
2050.07
2048.83
2047.82
2046.41
2045.26
2043.42
2041.91
2039.65
2037.78
2035.09
2032.85
2029.7
2027.09
2023.43
2020.43
2016.19
2012.78
2007.87
2004.02
1998.3
1993.98
1987.28
1982.49
1974.54
1969.71
1958.2
1977.99
4552.57
4385.77
3893.52
3430.06
3092.47
2843.61
2651.75
2500.88
2378.79
2278.48
2194.54
2123.66
2063.04
2010.98
1965.88
1926.63
1892.37
1862.36
1835.94
1812.77
1792.28
1774.23
1758.22
1744.14
1731.66
1720.61
1710.85
1702.22
1694.59
1687.89
1681.95
1676.73
1672.14
1668.13
1664.61
1661.55
1658.88
1656.58
1654.58
1652.87
1651.41
1650.18
1649.13
1648.28
1647.55
1646.97
1646.48
1646.11
1645.77
1645.53
1645.29
1645.11
1644.88
1644.7
1644.42
1644.15
1643.74
1643.3
1642.67
1641.97
1640.98
1639.96
1638.46
1637.2
1635.87
1634.63
1633.04
1631.55
1629.7
1627.96
1625.84
1623.85
1621.43
1619.19
1616.44
1613.92
1610.8
1608.01
1604.45
1601.37
1597.3
1593.96
1589.26
1585.74
1580.25
1576.86
1569.61
1581.86
3847.34
3762.25
3412.57
3025.8
2735.08
2516.16
2344.8
2208.37
2096.84
2004.32
1926.23
1859.68
1802.28
1752.48
1708.94
1670.65
1636.86
1606.9
1580.22
1556.47
1535.19
1516.15
1499.01
1483.62
1469.76
1457.24
1445.93
1435.71
1426.45
1418.09
1410.49
1403.6
1397.34
1391.66
1386.5
1381.81
1377.53
1373.66
1370.12
1366.9
1363.96
1361.29
1358.85
1356.62
1354.58
1352.72
1350.99
1349.42
1347.93
1346.58
1345.29
1344.09
1342.91
1341.81
1340.69
1339.61
1338.47
1337.36
1336.13
1334.9
1333.49
1332.05
1330.37
1328.9
1327.59
1326.28
1324.83
1323.38
1321.77
1320.17
1318.41
1316.65
1314.71
1312.79
1310.66
1308.57
1306.21
1303.95
1301.34
1298.9
1296
1293.42
1290.15
1287.55
1283.79
1281.4
1276.82
1284.08
3261.79
3227.87
2989.58
2674.56
2428.09
2237.82
2086.31
1964.04
1863.04
1778.46
1706.5
1644.69
1591.01
1544.07
1502.74
1466.13
1433.56
1404.46
1378.34
1354.86
1333.65
1314.48
1297.08
1281.27
1266.88
1253.75
1241.75
1230.78
1220.71
1211.48
1203
1195.2
1188.02
1181.39
1175.28
1169.64
1164.41
1159.59
1155.11
1150.96
1147.1
1143.53
1140.2
1137.1
1134.2
1131.51
1128.98
1126.62
1124.38
1122.29
1120.29
1118.41
1116.59
1114.87
1113.18
1111.55
1109.93
1108.34
1106.72
1105.11
1103.43
1101.72
1099.9
1098.32
1097.02
1095.7
1094.33
1092.95
1091.5
1090.05
1088.53
1086.99
1085.38
1083.75
1082.04
1080.31
1078.49
1076.66
1074.71
1072.79
1070.7
1068.7
1066.45
1064.45
1061.97
1060.14
1057.23
1061.36
2775.1
2771.66
2615.83
2367.49
2162.57
1999.6
1867.16
1758.62
1667.9
1591.16
1525.36
1468.4
1418.63
1374.82
1336.02
1301.45
1270.51
1242.71
1217.62
1194.91
1174.29
1155.52
1138.38
1122.71
1108.34
1095.15
1083
1071.82
1061.48
1051.93
1043.09
1034.9
1027.29
1020.22
1013.65
1007.52
1001.81
996.482
991.501
986.847
982.486
978.405
974.571
970.978
967.593
964.414
961.41
958.582
955.899
953.365
950.948
948.656
946.455
944.355
942.321
940.363
938.446
936.581
934.73
932.903
931.066
929.219
927.335
925.73
924.442
923.157
921.862
920.564
919.252
917.933
916.596
915.25
913.881
912.5
911.093
909.672
908.221
906.758
905.26
903.759
902.213
900.689
899.09
897.579
895.896
894.497
892.595
894.832
2369.19
2384.22
2284.89
2098.17
1931.87
1794.72
1680.5
1585.14
1504.32
1435.19
1375.39
1323.23
1277.35
1236.74
1200.57
1168.19
1139.07
1112.78
1088.94
1067.27
1047.51
1029.44
1012.87
997.646
983.627
970.694
958.738
947.668
937.401
927.865
918.995
910.734
903.028
895.835
889.109
882.816
876.919
871.391
866.2
861.325
856.737
852.421
848.351
844.516
840.892
837.471
834.229
831.163
828.25
825.486
822.851
820.343
817.942
815.645
813.433
811.304
809.239
807.236
805.276
803.353
801.454
799.566
797.679
796.099
794.854
793.625
792.409
791.204
790.007
788.818
787.634
786.455
785.277
784.102
782.927
781.752
780.576
779.401
778.224
777.051
775.875
774.712
773.537
772.403
771.215
770.166
768.863
769.985
2028.74
2055.57
1993.84
1862.51
1731.28
1618.31
1521.3
1438.46
1367.07
1305.21
1251.15
1203.6
1161.49
1123.99
1090.42
1060.23
1032.96
1008.24
985.75
965.228
946.444
929.211
913.358
898.743
885.241
872.745
861.156
850.392
840.377
831.047
822.34
814.206
806.596
799.469
792.786
786.513
780.618
775.074
769.854
764.936
760.296
755.918
751.78
747.868
744.164
740.657
737.33
734.173
731.171
728.317
725.597
723.002
720.521
718.146
715.866
713.673
711.557
709.509
707.521
705.582
703.686
701.818
699.975
698.451
697.264
696.104
694.97
693.859
692.769
691.698
690.646
689.61
688.589
687.583
686.59
685.611
684.644
683.691
682.749
681.822
680.907
680.01
679.122
678.262
677.392
676.606
675.664
676.155
1740.29
1777.78
1742.12
1657.21
1558.01
1467.28
1386.27
1315.1
1252.54
1197.48
1148.8
1105.57
1067
1032.44
1001.34
973.233
947.745
924.555
903.387
884.011
866.225
849.861
834.768
820.819
807.9
795.914
784.773
774.401
764.729
755.698
747.252
739.345
731.932
724.974
718.437
712.288
706.499
701.044
695.897
691.039
686.448
682.108
677.999
674.107
670.418
666.918
663.595
660.437
657.432
654.572
651.845
649.243
646.756
644.376
642.094
639.903
637.794
635.76
633.793
631.885
630.03
628.217
626.443
624.993
623.872
622.786
621.734
620.712
619.72
618.756
617.817
616.903
616.013
615.145
614.298
613.473
612.668
611.883
611.118
610.372
609.646
608.94
608.253
607.589
606.932
606.334
605.618
605.765
1492.99
1545.85
1530.09
1482.01
1411.47
1340.52
1273.86
1213.24
1158.67
1109.77
1065.96
1026.66
991.298
959.399
930.531
904.329
880.47
858.687
838.741
820.433
803.585
788.046
773.683
760.381
748.037
736.563
725.879
715.914
706.607
697.902
689.749
682.103
674.925
668.178
661.829
655.85
650.212
644.893
639.868
635.119
630.626
626.372
622.341
618.52
614.893
611.449
608.177
605.065
602.102
599.28
596.59
594.022
591.569
589.223
586.976
584.821
582.752
580.761
578.842
576.988
575.195
573.452
571.761
570.388
569.334
568.321
567.346
566.408
565.503
564.632
563.791
562.98
562.197
561.441
560.711
560.007
559.327
558.67
558.037
557.426
556.838
556.27
555.723
555.198
554.687
554.214
553.675
553.619
1285.46
1359.03
1361.11
1339.63
1294.07
1239.33
1184.7
1133.02
1085.23
1041.58
1001.92
965.941
933.306
903.669
876.702
852.114
829.642
809.057
790.156
772.763
756.722
741.897
728.17
715.435
703.598
692.579
682.304
672.709
663.736
655.332
647.453
640.056
633.103
626.561
620.4
614.591
609.11
603.932
599.038
594.408
590.024
585.87
581.931
578.194
574.645
571.274
568.068
565.019
562.115
559.349
556.711
554.194
551.79
549.493
547.295
545.189
543.171
541.233
539.371
537.578
535.851
534.182
532.571
531.273
530.282
529.334
528.428
527.562
526.733
525.939
525.179
524.451
523.754
523.087
522.448
521.836
521.251
520.69
520.154
519.64
519.148
518.678
518.228
517.798
517.385
516.994
516.598
516.405
1145.99
1239
1258.66
1248.9
1220.98
1176.58
1129.65
1083.73
1040.34
1000.1
963.134
929.326
898.463
870.294
844.56
821.02
799.446
779.639
761.417
744.619
729.104
714.746
701.434
689.071
677.569
666.851
656.848
647.5
638.75
630.55
622.856
615.628
608.831
602.431
596.4
590.711
585.339
580.263
575.462
570.918
566.614
562.534
558.664
554.991
551.502
548.186
545.033
542.032
539.175
536.453
533.859
531.383
529.021
526.764
524.608
522.544
520.57
518.678
516.865
515.124
513.454
511.846
510.303
509.067
508.128
507.235
506.385
505.577
504.808
504.077
503.381
502.72
502.09
501.492
500.923
500.382
499.867
499.377
498.912
498.469
498.049
497.648
497.267
496.905
496.56
496.232
495.915
495.676
1078.76
1182.91
1212.49
1207.29
1187.32
1147.95
1104.52
1061.27
1019.95
981.308
945.604
912.815
882.783
855.303
830.148
807.099
785.947
766.505
748.6
732.082
716.813
702.674
689.558
677.37
666.025
655.449
645.575
636.343
627.699
619.596
611.991
604.844
598.12
591.789
585.82
580.189
574.87
569.844
565.088
560.587
556.322
552.278
548.442
544.801
541.342
538.055
534.929
531.954
529.123
526.427
523.858
521.409
519.073
516.845
514.718
512.687
510.747
508.893
507.122
505.427
503.808
502.257
500.777
499.6
498.709
497.866
497.069
496.315
495.601
494.926
494.288
493.684
493.114
492.574
492.064
491.581
491.125
490.693
490.284
489.898
489.532
489.186
488.858
488.547
488.252
487.972
487.706
487.464
1081.59
1184.31
1213.15
1207.76
1187.53
1148
1104.56
1061.3
1019.96
981.321
945.617
912.828
882.797
855.318
830.163
807.115
785.964
766.522
748.618
732.1
716.831
702.692
689.576
677.388
666.043
655.468
645.593
636.361
627.717
619.614
612.008
604.861
598.138
591.806
585.838
580.206
574.888
569.861
565.106
560.604
556.34
552.297
548.461
544.821
541.363
538.077
534.953
531.98
529.152
526.459
523.894
521.45
519.12
516.899
514.781
512.761
510.835
508.996
507.243
505.569
503.974
502.451
501.002
499.854
498.988
498.171
497.4
496.674
495.989
495.343
494.734
494.16
493.62
493.11
492.63
492.177
491.75
491.348
490.968
490.61
490.272
489.953
489.651
489.366
489.097
488.842
488.601
488.358
1153.27
1242.66
1260.47
1250.15
1221.42
1176.77
1129.74
1083.78
1040.38
1000.14
963.171
929.367
898.507
870.341
844.609
821.071
799.499
779.694
761.472
744.675
729.159
714.802
701.49
689.127
677.625
666.907
656.904
647.555
638.805
630.605
622.911
615.682
608.885
602.485
596.453
590.764
585.392
580.316
575.516
570.972
566.669
562.59
558.721
555.05
551.564
548.253
545.105
542.112
539.264
536.554
533.975
531.519
529.18
526.953
524.831
522.81
520.886
519.054
517.31
515.65
514.073
512.572
511.149
510.028
509.184
508.392
507.646
506.946
506.289
505.671
505.091
504.547
504.035
503.555
503.105
502.681
502.284
501.91
501.559
501.229
500.919
500.627
500.352
500.093
499.848
499.618
499.402
499.166
1293.4
1362.22
1362.33
1339.95
1293.47
1238.62
1183.98
1132.34
1084.6
1041.01
1001.39
965.453
932.851
903.242
876.297
851.728
829.272
808.7
789.81
772.427
756.393
741.576
727.855
715.124
703.293
692.278
682.006
672.414
663.443
655.042
647.165
639.769
632.819
626.278
620.119
614.311
608.831
603.655
598.762
594.134
589.752
585.601
581.666
577.934
574.392
571.028
567.833
564.797
561.91
559.165
556.555
554.071
551.709
549.463
547.326
545.295
543.364
541.53
539.79
538.139
536.576
535.095
533.697
532.601
531.781
531.013
530.294
529.621
528.992
528.404
527.855
527.341
526.861
526.413
525.994
525.602
525.236
524.893
524.573
524.274
523.993
523.731
523.485
523.254
523.037
522.833
522.647
522.42
1493.51
1541.52
1524.74
1476.09
1405.88
1335.49
1269.34
1209.16
1154.94
1106.32
1062.73
1023.61
988.393
956.616
927.848
901.73
877.942
856.22
836.326
818.063
801.253
785.749
771.416
758.141
745.821
734.367
723.701
713.753
704.461
695.769
687.628
679.993
672.824
666.085
659.745
653.773
648.142
642.828
637.81
633.067
628.58
624.334
620.311
616.499
612.884
609.454
606.199
603.108
600.173
597.386
594.737
592.222
589.833
587.564
585.411
583.369
581.434
579.601
577.867
576.229
574.685
573.23
571.865
570.803
570.011
569.274
568.588
567.95
567.357
566.805
566.293
565.818
565.377
564.967
564.587
564.234
563.907
563.603
563.321
563.059
562.816
562.59
562.379
562.183
562.002
561.829
561.686
561.448
1729.71
1762.47
1726.77
1642.89
1545.49
1456.31
1376.5
1306.25
1244.41
1189.9
1141.66
1098.78
1060.5
1026.17
995.254
967.311
941.959
918.885
897.816
878.526
860.814
844.515
829.479
815.58
802.704
790.757
779.649
769.307
759.661
750.652
742.227
734.337
726.94
719.996
713.471
707.333
701.554
696.107
690.969
686.12
681.537
677.205
673.106
669.227
665.552
662.071
658.77
655.641
652.674
649.859
647.19
644.659
642.261
639.988
637.837
635.803
633.882
632.069
630.363
628.76
627.256
625.85
624.54
623.531
622.784
622.093
621.455
620.867
620.325
619.825
619.366
618.943
618.555
618.198
617.871
617.571
617.295
617.043
616.812
616.6
616.406
616.228
616.065
615.915
615.778
615.65
615.552
615.283
2003.48
2025.65
1965.38
1837.71
1710.03
1599.76
1504.75
1423.38
1353.13
1292.12
1238.73
1191.71
1150.03
1112.88
1079.59
1049.64
1022.57
998.024
975.678
955.282
936.604
919.463
903.688
889.142
875.698
863.252
851.705
840.979
830.994
821.69
813.005
804.889
797.294
790.179
783.505
777.24
771.351
765.812
760.595
755.681
751.045
746.671
742.539
738.635
734.944
731.454
728.151
725.026
722.067
719.269
716.62
714.116
711.749
709.514
707.407
705.422
703.556
701.807
700.17
698.643
697.224
695.911
694.701
693.783
693.111
692.497
691.936
691.427
690.964
690.544
690.165
689.822
689.513
689.235
688.986
688.763
688.563
688.386
688.228
688.088
687.964
687.855
687.759
687.675
687.599
687.538
687.493
687.209
2323.99
2335.44
2240.16
2060.67
1899.89
1766.72
1655.35
1562.05
1482.8
1414.82
1355.94
1304.48
1259.18
1219.03
1183.23
1151.17
1122.31
1096.23
1072.58
1051.07
1031.43
1013.47
996.983
981.834
967.871
954.986
943.065
932.025
921.777
912.256
903.393
895.136
887.429
880.231
873.497
867.194
861.284
855.742
850.536
845.646
841.043
836.715
832.635
828.793
825.168
821.752
818.527
815.487
812.615
809.911
807.358
804.957
802.695
800.573
798.58
796.719
794.981
793.367
791.871
790.496
789.233
788.088
787.053
786.289
785.741
785.251
784.816
784.433
784.094
783.8
783.544
783.325
783.138
782.98
782.848
782.74
782.655
782.588
782.539
782.505
782.485
782.48
782.469
782.47
782.486
782.507
782.497
782.276
2703.29
2698.82
2551.52
2314.55
2117.41
1959.78
1831.09
1725.22
1636.49
1561.2
1496.56
1440.47
1391.41
1348.17
1309.81
1275.62
1244.98
1217.41
1192.51
1169.96
1149.46
1130.78
1113.71
1098.09
1083.75
1070.57
1058.43
1047.23
1036.88
1027.3
1018.43
1010.19
1002.54
995.421
988.79
982.611
976.842
971.456
966.416
961.706
957.288
953.155
949.273
945.637
942.219
939.015
936.002
933.179
930.524
928.04
925.707
923.532
921.494
919.604
917.842
916.221
914.723
913.36
912.118
911.007
910.015
909.154
908.406
907.893
907.544
907.255
907.016
906.829
906.683
906.585
906.515
906.489
906.483
906.499
906.541
906.608
906.695
906.795
906.91
907.035
907.17
907.312
907.46
907.611
907.766