/*--------------------------------*- C++ -*----------------------------------*\
| =========                 |                                                 |
| \\      /  F ield         | OpenFOAM: The Open Source CFD Toolbox           |
|  \\    /   O peration     | Version:  2306                                  |
|   \\  /    A nd           | Website:  www.openfoam.com                      |
|    \\/     M anipulation  |                                                 |
\*---------------------------------------------------------------------------*/
FoamFile
{
    version     2.0;
    format      ascii;
    arch        "LSB;label=32;scalar=64";
    class       volScalarField;
    location    "1900";
    object      p;
}
// * * * * * * * * * * * * * * * * * * * * * * * * * * * * * * * * * * * * * //

dimensions      [0 2 -2 0 0 0 0];

internalField   nonuniform List<scalar> 
20540
(
1315.06
93.3298
1315.04
26.4156
1315.01
-12.3991
1314.97
-25.4742
1314.93
-30.519
1314.87
-34.2558
1314.79
-37.4757
1314.69
-40.1193
1314.56
-42.3015
1314.41
-44.1674
1314.21
-45.8059
1313.97
-47.2644
1313.66
-48.5707
1313.29
-49.741
1312.84
-50.7829
1312.29
-51.6953
1311.61
-52.4687
1310.8
-53.0841
1309.81
-53.5105
1308.63
-53.7025
1307.23
-53.5956
1305.59
-53.1012
1303.69
-52.1014
1301.55
-50.4442
1299.24
-47.9422
1296.88
-44.3747
1294.74
-39.497
1293.3
-33.0931
1293.29
-25.2315
1295.24
-16.8657
1298.38
-10.7741
1300.52
-7.71121
1300.39
-8.10896
1298.09
-11.9042
1295.04
-18.5734
1293.31
-27.1075
1293.48
-35.0272
1295.01
-41.5106
1297.19
-46.5101
1299.59
-50.2243
1301.95
-52.8807
1304.13
-54.6891
1306.09
-55.8314
1307.79
-56.4575
1309.25
-56.6857
1310.48
-56.6063
1311.51
-56.2864
1312.38
-55.7744
1313.09
-55.1044
1313.69
-54.2988
1314.17
-53.3709
1314.57
-52.3259
1314.9
-51.162
1315.17
-49.8697
1315.39
-48.4313
1315.57
-46.8181
1315.71
-44.982
1315.82
-42.8336
1315.91
-40.2289
1315.99
-37.0557
1316.04
-33.3636
1316.09
-28.3056
1316.12
-15.0989
1316.15
23.6554
1316.16
89.6651
-29.37
-4.71208
-41.9639
-34.3699
-47.9775
-49.6081
-56.1059
-59.9762
-64.4721
-68.3913
-72.1875
-75.7531
-79.1343
-82.3451
-85.3932
-88.2953
-91.0569
-93.6916
-96.2033
-98.6035
-100.896
-103.089
-105.187
-107.197
-109.122
-110.968
-112.737
-114.436
-116.067
-117.633
-119.137
-120.583
-121.974
-123.311
-124.598
-125.837
-127.03
-128.18
-129.289
-130.359
-131.393
-132.394
-133.363
-134.305
-135.223
-136.12
-137.002
-137.872
-138.736
-139.601
-140.473
-141.36
-142.272
-143.219
-144.213
-145.266
-146.394
-147.612
-148.937
-150.389
-151.986
-153.76
-155.728
-157.59
-159.192
-160.87
-162.631
-164.483
-166.432
-168.478
-170.625
-172.879
-175.24
-177.723
-180.326
-183.076
-185.959
-189.026
-192.226
-195.666
-199.217
-203.119
-207.076
-211.675
-216.211
-222.092
-228.405
-235.167
-29.4064
-4.7119
-41.9633
-34.3695
-47.9772
-49.6079
-56.1057
-59.9761
-64.472
-68.3911
-72.1874
-75.753
-79.1342
-82.345
-85.3931
-88.2952
-91.0568
-93.6916
-96.2033
-98.6035
-100.896
-103.089
-105.187
-107.197
-109.122
-110.967
-112.737
-114.436
-116.067
-117.633
-119.137
-120.583
-121.974
-123.311
-124.598
-125.837
-127.03
-128.18
-129.289
-130.359
-131.393
-132.394
-133.363
-134.305
-135.223
-136.12
-137.002
-137.872
-138.736
-139.601
-140.473
-141.36
-142.272
-143.219
-144.213
-145.266
-146.394
-147.612
-148.937
-150.389
-151.986
-153.76
-155.728
-157.59
-159.192
-160.871
-162.631
-164.484
-166.432
-168.478
-170.625
-172.879
-175.24
-177.723
-180.326
-183.076
-185.959
-189.026
-192.227
-195.667
-199.218
-203.12
-207.077
-211.677
-216.214
-222.092
-228.401
-235.154
-29.4741
-4.71294
-41.9627
-34.3689
-47.9767
-49.6075
-56.1054
-59.9758
-64.4717
-68.3909
-72.1871
-75.7528
-79.134
-82.3449
-85.393
-88.2951
-91.0567
-93.6914
-96.2032
-98.6034
-100.896
-103.089
-105.187
-107.197
-109.122
-110.967
-112.737
-114.436
-116.066
-117.633
-119.137
-120.583
-121.974
-123.311
-124.598
-125.837
-127.03
-128.18
-129.289
-130.359
-131.393
-132.393
-133.363
-134.305
-135.223
-136.12
-137.002
-137.872
-138.736
-139.601
-140.473
-141.36
-142.272
-143.219
-144.213
-145.266
-146.394
-147.612
-148.937
-150.389
-151.986
-153.76
-155.728
-157.59
-159.192
-160.871
-162.632
-164.484
-166.432
-168.478
-170.626
-172.879
-175.241
-177.724
-180.327
-183.077
-185.96
-189.027
-192.228
-195.668
-199.219
-203.122
-207.079
-211.68
-216.216
-222.097
-228.372
-235.093
-29.5737
-4.71649
-41.9622
-34.3679
-47.9758
-49.6067
-56.1048
-59.9752
-64.4713
-68.3905
-72.1868
-75.7525
-79.1337
-82.3446
-85.3927
-88.2948
-91.0564
-93.6912
-96.2029
-98.6032
-100.896
-103.089
-105.187
-107.197
-109.122
-110.967
-112.737
-114.436
-116.066
-117.632
-119.137
-120.583
-121.974
-123.311
-124.598
-125.837
-127.03
-128.18
-129.289
-130.359
-131.393
-132.393
-133.363
-134.305
-135.223
-136.12
-137.002
-137.872
-138.736
-139.601
-140.473
-141.36
-142.272
-143.219
-144.213
-145.266
-146.394
-147.612
-148.937
-150.389
-151.986
-153.76
-155.728
-157.59
-159.193
-160.871
-162.632
-164.484
-166.433
-168.479
-170.627
-172.88
-175.242
-177.725
-180.328
-183.078
-185.962
-189.029
-192.23
-195.671
-199.221
-203.126
-207.081
-211.685
-216.219
-222.105
-228.304
-235.119
-29.7167
-4.72485
-41.9628
-34.3668
-47.9746
-49.6056
-56.1038
-59.9744
-64.4705
-68.3898
-72.1861
-75.7519
-79.1332
-82.3441
-85.3922
-88.2944
-91.056
-93.6908
-96.2026
-98.6028
-100.895
-103.089
-105.187
-107.196
-109.121
-110.967
-112.737
-114.436
-116.066
-117.632
-119.137
-120.583
-121.974
-123.311
-124.598
-125.837
-127.03
-128.18
-129.289
-130.359
-131.393
-132.393
-133.363
-134.305
-135.223
-136.12
-137.001
-137.872
-138.736
-139.601
-140.473
-141.36
-142.272
-143.219
-144.212
-145.266
-146.394
-147.612
-148.937
-150.389
-151.986
-153.761
-155.728
-157.591
-159.193
-160.872
-162.633
-164.485
-166.434
-168.48
-170.628
-172.882
-175.243
-177.727
-180.33
-183.081
-185.964
-189.032
-192.233
-195.674
-199.225
-203.131
-207.084
-211.691
-216.22
-222.112
-228.194
-235.179
-29.9142
-4.74087
-41.9656
-34.3661
-47.9735
-49.6043
-56.1026
-59.9732
-64.4695
-68.3888
-72.1853
-75.7511
-79.1324
-82.3434
-85.3916
-88.2938
-91.0554
-93.6903
-96.202
-98.6023
-100.895
-103.088
-105.186
-107.196
-109.121
-110.967
-112.737
-114.435
-116.066
-117.632
-119.136
-120.583
-121.973
-123.311
-124.598
-125.837
-127.03
-128.18
-129.288
-130.359
-131.393
-132.393
-133.363
-134.305
-135.222
-136.12
-137.001
-137.871
-138.736
-139.6
-140.472
-141.36
-142.272
-143.219
-144.212
-145.266
-146.394
-147.612
-148.937
-150.389
-151.987
-153.761
-155.729
-157.591
-159.194
-160.873
-162.634
-164.486
-166.435
-168.481
-170.629
-172.883
-175.245
-177.729
-180.333
-183.083
-185.967
-189.035
-192.236
-195.679
-199.228
-203.136
-207.085
-211.697
-216.214
-222.109
-228.037
-235.215
-30.1773
-4.76717
-41.9719
-34.3665
-47.9726
-49.6029
-56.1012
-59.9719
-64.4682
-68.3876
-72.1842
-75.75
-79.1315
-82.3425
-85.3907
-88.293
-91.0547
-93.6896
-96.2014
-98.6017
-100.894
-103.088
-105.186
-107.195
-109.12
-110.966
-112.736
-114.435
-116.065
-117.631
-119.136
-120.582
-121.973
-123.31
-124.597
-125.836
-127.029
-128.179
-129.288
-130.358
-131.392
-132.393
-133.362
-134.304
-135.222
-136.12
-137.001
-137.871
-138.735
-139.6
-140.472
-141.36
-142.272
-143.218
-144.212
-145.266
-146.394
-147.612
-148.937
-150.39
-151.987
-153.762
-155.729
-157.592
-159.195
-160.874
-162.635
-164.488
-166.436
-168.483
-170.631
-172.885
-175.247
-177.731
-180.335
-183.086
-185.97
-189.039
-192.239
-195.682
-199.23
-203.14
-207.083
-211.698
-216.197
-222.093
-227.823
-235.188
-30.5195
-4.80616
-41.9831
-34.3686
-47.9725
-49.6017
-56.0998
-59.9704
-64.4667
-68.3862
-72.1828
-75.7488
-79.1303
-82.3414
-85.3897
-88.292
-91.0537
-93.6887
-96.2005
-98.6008
-100.893
-103.087
-105.185
-107.195
-109.12
-110.965
-112.735
-114.434
-116.065
-117.631
-119.135
-120.582
-121.972
-123.31
-124.597
-125.836
-127.029
-128.179
-129.288
-130.358
-131.392
-132.392
-133.362
-134.304
-135.222
-136.119
-137
-137.871
-138.735
-139.6
-140.472
-141.359
-142.271
-143.218
-144.212
-145.266
-146.394
-147.612
-148.937
-150.39
-151.987
-153.762
-155.73
-157.593
-159.196
-160.875
-162.636
-164.489
-166.438
-168.485
-170.633
-172.887
-175.25
-177.734
-180.338
-183.089
-185.973
-189.042
-192.241
-195.685
-199.229
-203.141
-207.075
-211.693
-216.164
-222.055
-227.542
-235.056
-30.9584
-4.86053
-42.0006
-34.3731
-47.9736
-49.601
-56.0986
-59.9689
-64.4652
-68.3847
-72.1813
-75.7473
-79.1289
-82.34
-85.3884
-88.2907
-91.0526
-93.6875
-96.1994
-98.5998
-100.892
-103.086
-105.184
-107.194
-109.119
-110.965
-112.735
-114.433
-116.064
-117.63
-119.135
-120.581
-121.972
-123.309
-124.596
-125.835
-127.028
-128.178
-129.287
-130.357
-131.391
-132.392
-133.361
-134.303
-135.221
-136.119
-137
-137.87
-138.734
-139.599
-140.471
-141.359
-142.271
-143.218
-144.212
-145.265
-146.394
-147.612
-148.937
-150.39
-151.988
-153.762
-155.73
-157.594
-159.196
-160.875
-162.637
-164.49
-166.439
-168.486
-170.635
-172.889
-175.251
-177.736
-180.34
-183.091
-185.974
-189.043
-192.241
-195.684
-199.225
-203.136
-207.059
-211.677
-216.106
-221.985
-227.185
-234.772
-31.5155
-4.93371
-42.0262
-34.3809
-47.9764
-49.6011
-56.0978
-59.9675
-64.4636
-68.383
-72.1797
-75.7457
-79.1273
-82.3385
-85.3869
-88.2893
-91.0512
-93.6862
-96.1982
-98.5986
-100.891
-103.085
-105.183
-107.193
-109.118
-110.964
-112.734
-114.432
-116.063
-117.629
-119.134
-120.58
-121.971
-123.308
-124.595
-125.834
-127.027
-128.177
-129.286
-130.356
-131.39
-132.391
-133.361
-134.303
-135.22
-136.118
-136.999
-137.869
-138.734
-139.599
-140.471
-141.358
-142.27
-143.217
-144.211
-145.265
-146.393
-147.612
-148.937
-150.39
-151.988
-153.763
-155.731
-157.594
-159.197
-160.876
-162.638
-164.491
-166.44
-168.487
-170.636
-172.89
-175.252
-177.737
-180.34
-183.091
-185.974
-189.042
-192.237
-195.679
-199.213
-203.123
-207.029
-211.642
-216.013
-221.865
-226.74
-234.283
-32.2167
-5.03011
-42.0615
-34.393
-47.9817
-49.6024
-56.0977
-59.9666
-64.4623
-68.3815
-72.178
-75.744
-79.1256
-82.3368
-85.3852
-88.2877
-91.0496
-93.6847
-96.1967
-98.5971
-100.89
-103.083
-105.182
-107.191
-109.117
-110.962
-112.732
-114.431
-116.062
-117.628
-119.133
-120.579
-121.97
-123.307
-124.594
-125.833
-127.027
-128.176
-129.285
-130.356
-131.39
-132.39
-133.36
-134.302
-135.22
-136.117
-136.999
-137.869
-138.733
-139.598
-140.47
-141.358
-142.27
-143.217
-144.211
-145.265
-146.393
-147.612
-148.937
-150.39
-151.988
-153.763
-155.731
-157.594
-159.197
-160.877
-162.638
-164.491
-166.44
-168.487
-170.635
-172.89
-175.252
-177.736
-180.338
-183.089
-185.969
-189.036
-192.227
-195.667
-199.191
-203.096
-206.977
-211.578
-215.872
-221.67
-226.197
-233.543
-33.0929
-5.15524
-42.1089
-34.4104
-47.9901
-49.6054
-56.0987
-59.9662
-64.4613
-68.3801
-72.1764
-75.7423
-79.1238
-82.335
-85.3834
-88.2859
-91.0479
-93.683
-96.195
-98.5955
-100.888
-103.082
-105.18
-107.19
-109.115
-110.961
-112.731
-114.43
-116.06
-117.627
-119.132
-120.578
-121.968
-123.306
-124.593
-125.832
-127.025
-128.175
-129.284
-130.354
-131.388
-132.389
-133.359
-134.301
-135.219
-136.116
-136.998
-137.868
-138.732
-139.597
-140.469
-141.357
-142.269
-143.216
-144.21
-145.264
-146.392
-147.611
-148.936
-150.389
-151.987
-153.762
-155.731
-157.594
-159.197
-160.876
-162.637
-164.49
-166.439
-168.486
-170.633
-172.887
-175.248
-177.731
-180.333
-183.081
-185.959
-189.022
-192.207
-195.641
-199.152
-203.047
-206.895
-211.471
-215.667
-221.367
-225.542
-232.512
-34.1799
-5.31594
-42.1711
-34.4343
-48.0023
-49.6106
-56.1012
-59.9668
-64.461
-68.3792
-72.1751
-75.7408
-79.1222
-82.3333
-85.3817
-88.2841
-91.046
-93.6811
-96.1932
-98.5937
-100.887
-103.08
-105.178
-107.188
-109.113
-110.959
-112.729
-114.428
-116.059
-117.625
-119.13
-120.576
-121.967
-123.305
-124.592
-125.831
-127.024
-128.174
-129.283
-130.353
-131.387
-132.388
-133.357
-134.3
-135.217
-136.115
-136.996
-137.867
-138.731
-139.596
-140.468
-141.356
-142.268
-143.215
-144.209
-145.263
-146.391
-147.61
-148.935
-150.388
-151.986
-153.761
-155.729
-157.592
-159.195
-160.874
-162.635
-164.488
-166.436
-168.482
-170.628
-172.881
-175.24
-177.722
-180.32
-183.066
-185.939
-188.997
-192.173
-195.597
-199.088
-202.965
-206.77
-211.3
-215.378
-220.915
-224.755
-231.168
-35.5186
-5.52067
-42.2512
-34.4662
-48.0194
-49.6185
-56.1055
-59.9687
-64.4616
-68.3789
-72.1744
-75.7397
-79.1208
-82.3317
-85.38
-88.2824
-91.0443
-93.6793
-96.1914
-98.5919
-100.885
-103.078
-105.177
-107.186
-109.112
-110.958
-112.728
-114.427
-116.057
-117.624
-119.128
-120.575
-121.965
-123.303
-124.59
-125.829
-127.023
-128.172
-129.281
-130.352
-131.386
-132.386
-133.356
-134.298
-135.216
-136.114
-136.995
-137.865
-138.73
-139.595
-140.467
-141.354
-142.267
-143.214
-144.208
-145.261
-146.39
-147.609
-148.933
-150.386
-151.984
-153.759
-155.727
-157.589
-159.191
-160.87
-162.63
-164.482
-166.429
-168.473
-170.618
-172.869
-175.226
-177.704
-180.298
-183.039
-185.905
-188.954
-192.116
-195.523
-198.988
-202.833
-206.583
-211.036
-214.98
-220.273
-223.806
-229.513
-37.1545
-5.77975
-42.3529
-34.5078
-48.0422
-49.6298
-56.1121
-59.9722
-64.4634
-68.3796
-72.1743
-75.7391
-79.1199
-82.3306
-85.3787
-88.2809
-91.0427
-93.6777
-96.1897
-98.5901
-100.883
-103.076
-105.175
-107.185
-109.11
-110.956
-112.726
-114.425
-116.055
-117.622
-119.127
-120.573
-121.964
-123.301
-124.588
-125.827
-127.021
-128.171
-129.28
-130.35
-131.384
-132.385
-133.354
-134.297
-135.214
-136.112
-136.993
-137.864
-138.728
-139.593
-140.465
-141.353
-142.265
-143.212
-144.206
-145.26
-146.388
-147.606
-148.931
-150.383
-151.981
-153.755
-155.722
-157.584
-159.185
-160.862
-162.621
-164.471
-166.416
-168.458
-170.6
-172.848
-175.2
-177.673
-180.261
-182.994
-185.849
-188.883
-192.026
-195.408
-198.836
-202.632
-206.312
-210.644
-214.441
-219.398
-222.658
-227.572
-39.1352
-6.10567
-42.4809
-34.5611
-48.0718
-49.6452
-56.1216
-59.9777
-64.4668
-68.3816
-72.1753
-75.7395
-79.1198
-82.3301
-85.3779
-88.28
-91.0416
-93.6764
-96.1883
-98.5887
-100.881
-103.075
-105.173
-107.183
-109.108
-110.954
-112.724
-114.423
-116.054
-117.62
-119.125
-120.571
-121.962
-123.3
-124.587
-125.826
-127.019
-128.169
-129.278
-130.348
-131.382
-132.383
-133.353
-134.295
-135.213
-136.11
-136.992
-137.862
-138.726
-139.591
-140.463
-141.351
-142.263
-143.21
-144.203
-145.257
-146.385
-147.603
-148.927
-150.379
-151.975
-153.749
-155.715
-157.575
-159.174
-160.85
-162.606
-164.454
-166.395
-168.434
-170.571
-172.813
-175.159
-177.624
-180.202
-182.922
-185.761
-188.773
-191.888
-195.231
-198.612
-202.331
-205.926
-210.085
-213.72
-218.259
-221.267
-225.39
-41.5076
-6.51334
-42.6401
-34.6284
-48.1096
-49.6654
-56.1344
-59.9857
-64.472
-68.385
-72.1776
-75.7409
-79.1206
-82.3305
-85.3779
-88.2797
-91.0411
-93.6757
-96.1875
-98.5877
-100.88
-103.074
-105.172
-107.182
-109.107
-110.953
-112.723
-114.421
-116.052
-117.618
-119.123
-120.57
-121.96
-123.298
-124.585
-125.824
-127.017
-128.167
-129.276
-130.347
-131.381
-132.381
-133.351
-134.293
-135.211
-136.108
-136.99
-137.86
-138.724
-139.589
-140.461
-141.348
-142.26
-143.207
-144.2
-145.253
-146.381
-147.598
-148.921
-150.372
-151.967
-153.739
-155.703
-157.56
-159.156
-160.829
-162.582
-164.426
-166.362
-168.395
-170.524
-172.758
-175.095
-177.547
-180.111
-182.812
-185.627
-188.607
-191.683
-194.968
-198.286
-201.895
-205.384
-209.313
-212.767
-216.835
-219.597
-223.012
-44.3118
-7.02027
-42.8363
-34.7121
-48.1567
-49.6913
-56.1512
-59.9965
-64.4796
-68.3903
-72.1814
-75.7437
-79.1227
-82.332
-85.379
-88.2804
-91.0415
-93.6759
-96.1874
-98.5875
-100.88
-103.073
-105.171
-107.181
-109.106
-110.952
-112.722
-114.42
-116.051
-117.617
-119.122
-120.568
-121.959
-123.297
-124.584
-125.823
-127.016
-128.166
-129.275
-130.345
-131.379
-132.38
-133.349
-134.291
-135.209
-136.107
-136.988
-137.858
-138.722
-139.587
-140.459
-141.346
-142.257
-143.203
-144.196
-145.249
-146.375
-147.592
-148.913
-150.363
-151.955
-153.724
-155.685
-157.538
-159.13
-160.798
-162.545
-164.382
-166.311
-168.335
-170.454
-172.675
-174.997
-177.431
-179.974
-182.646
-185.427
-188.36
-191.383
-194.586
-197.82
-201.281
-204.636
-208.286
-211.53
-215.111
-217.624
-220.468
-47.5725
-7.6465
-43.0759
-34.8152
-48.2143
-49.7239
-56.1724
-60.0108
-64.4897
-68.3978
-72.1871
-75.7482
-79.1262
-82.3349
-85.3813
-88.2823
-91.0431
-93.6772
-96.1884
-98.5883
-100.88
-103.074
-105.171
-107.181
-109.106
-110.952
-112.721
-114.42
-116.051
-117.617
-119.121
-120.568
-121.958
-123.296
-124.583
-125.822
-127.015
-128.165
-129.274
-130.344
-131.378
-132.378
-133.348
-134.29
-135.208
-136.105
-136.986
-137.856
-138.72
-139.584
-140.456
-141.343
-142.253
-143.199
-144.191
-145.242
-146.367
-147.582
-148.902
-150.348
-151.938
-153.702
-155.657
-157.505
-159.09
-160.751
-162.49
-164.317
-166.234
-168.245
-170.348
-172.551
-174.851
-177.259
-179.77
-182.401
-185.134
-188.001
-190.95
-194.044
-197.164
-200.44
-203.622
-206.959
-209.957
-213.073
-215.34
-217.756
-51.2855
-8.41411
-43.3655
-34.9403
-48.2837
-49.764
-56.1986
-60.0289
-64.5028
-68.4079
-72.195
-75.7547
-79.1316
-82.3395
-85.3852
-88.2858
-91.0461
-93.6798
-96.1908
-98.5904
-100.882
-103.075
-105.173
-107.182
-109.107
-110.953
-112.722
-114.421
-116.051
-117.617
-119.122
-120.568
-121.959
-123.296
-124.583
-125.822
-127.015
-128.165
-129.274
-130.344
-131.378
-132.378
-133.348
-134.289
-135.207
-136.104
-136.985
-137.855
-138.718
-139.582
-140.453
-141.339
-142.249
-143.194
-144.184
-145.234
-146.357
-147.569
-148.885
-150.328
-151.912
-153.669
-155.617
-157.455
-159.03
-160.681
-162.408
-164.221
-166.121
-168.112
-170.192
-172.368
-174.636
-177.006
-179.471
-182.045
-184.711
-187.488
-190.336
-193.289
-196.26
-199.313
-202.281
-205.285
-208.008
-210.704
-212.738
-214.841
-55.4016
-9.34543
-43.7116
-35.0905
-48.3656
-49.8124
-56.2301
-60.0513
-64.5193
-68.4209
-72.2055
-75.7634
-79.1391
-82.346
-85.391
-88.291
-91.0508
-93.6841
-96.1947
-98.594
-100.886
-103.078
-105.176
-107.185
-109.11
-110.955
-112.724
-114.423
-116.053
-117.619
-119.124
-120.57
-121.96
-123.297
-124.584
-125.823
-127.016
-128.166
-129.275
-130.345
-131.378
-132.379
-133.348
-134.29
-135.207
-136.104
-136.985
-137.854
-138.717
-139.58
-140.45
-141.335
-142.244
-143.187
-144.175
-145.223
-146.342
-147.55
-148.862
-150.298
-151.874
-153.621
-155.557
-157.381
-158.942
-160.577
-162.286
-164.078
-165.954
-167.916
-169.964
-172.101
-174.325
-176.64
-179.042
-181.536
-184.109
-186.768
-189.481
-192.258
-195.039
-197.839
-200.552
-203.218
-205.647
-207.972
-209.793
-211.65
-59.8065
-10.4594
-44.1209
-35.2682
-48.4604
-49.8697
-56.2671
-60.0785
-64.5393
-68.4372
-72.2188
-75.7748
-79.149
-82.3549
-85.399
-88.2982
-91.0575
-93.6903
-96.2006
-98.5995
-100.891
-103.083
-105.18
-107.189
-109.114
-110.959
-112.728
-114.426
-116.057
-117.622
-119.127
-120.573
-121.963
-123.3
-124.587
-125.826
-127.019
-128.168
-129.277
-130.347
-131.38
-132.38
-133.35
-134.291
-135.208
-136.105
-136.985
-137.853
-138.716
-139.578
-140.447
-141.33
-142.237
-143.177
-144.163
-145.206
-146.321
-147.523
-148.827
-150.254
-151.819
-153.551
-155.469
-157.272
-158.813
-160.425
-162.108
-163.87
-165.711
-167.633
-169.634
-171.716
-173.876
-176.116
-178.429
-180.816
-183.265
-185.772
-188.312
-190.877
-193.425
-195.946
-198.372
-200.705
-202.835
-204.83
-206.453
-208.091
-64.3023
-11.766
-44.5981
-35.4752
-48.5673
-49.9365
-56.3094
-60.1106
-64.5632
-68.4569
-72.2352
-75.7891
-79.1617
-82.3663
-85.4094
-88.3079
-91.0665
-93.6987
-96.2085
-98.607
-100.898
-103.09
-105.187
-107.196
-109.12
-110.965
-112.734
-114.432
-116.062
-117.628
-119.132
-120.577
-121.968
-123.305
-124.591
-125.83
-127.023
-128.172
-129.281
-130.35
-131.384
-132.384
-133.353
-134.294
-135.21
-136.106
-136.986
-137.853
-138.714
-139.575
-140.442
-141.323
-142.227
-143.164
-144.145
-145.183
-146.291
-147.484
-148.776
-150.189
-151.737
-153.447
-155.338
-157.112
-158.623
-160.203
-161.849
-163.567
-165.359
-167.223
-169.159
-171.164
-173.237
-175.373
-177.568
-179.814
-182.101
-184.418
-186.744
-189.062
-191.341
-193.56
-195.679
-197.684
-199.518
-201.212
-202.637
-204.054
-68.5964
-13.2593
-45.1439
-35.7121
-48.6844
-50.0126
-56.3565
-60.1477
-64.5907
-68.4803
-72.2548
-75.8064
-79.1772
-82.3804
-85.4225
-88.3201
-91.078
-93.7096
-96.2189
-98.617
-100.908
-103.099
-105.196
-107.204
-109.128
-110.973
-112.742
-114.44
-116.069
-117.635
-119.139
-120.584
-121.974
-123.311
-124.598
-125.836
-127.029
-128.178
-129.286
-130.356
-131.389
-132.389
-133.357
-134.298
-135.214
-136.109
-136.987
-137.853
-138.713
-139.571
-140.436
-141.313
-142.213
-143.144
-144.118
-145.148
-146.245
-147.425
-148.701
-150.093
-151.615
-153.293
-155.146
-156.876
-158.346
-159.879
-161.472
-163.13
-164.852
-166.636
-168.481
-170.382
-172.335
-174.335
-176.373
-178.44
-180.524
-182.611
-184.683
-186.72
-188.7
-190.602
-192.402
-194.086
-195.625
-197.034
-198.248
-199.433
-72.307
-14.9077
-45.7501
-35.9774
-48.8079
-50.0972
-56.4071
-60.1895
-64.6216
-68.5073
-72.2776
-75.827
-79.1958
-82.3976
-85.4385
-88.3351
-91.0922
-93.7232
-96.2319
-98.6294
-100.92
-103.111
-105.207
-107.215
-109.139
-110.983
-112.752
-114.449
-116.079
-117.644
-119.148
-120.593
-121.983
-123.32
-124.606
-125.845
-127.037
-128.186
-129.294
-130.363
-131.396
-132.395
-133.363
-134.303
-135.218
-136.112
-136.989
-137.853
-138.71
-139.565
-140.425
-141.298
-142.191
-143.114
-144.078
-145.095
-146.176
-147.336
-148.589
-149.95
-151.436
-153.068
-154.863
-156.532
-157.943
-159.41
-160.928
-162.502
-164.128
-165.804
-167.526
-169.288
-171.084
-172.906
-174.745
-176.59
-178.429
-180.247
-182.028
-183.757
-185.415
-186.989
-188.461
-189.824
-191.066
-192.19
-193.171
-194.103
-74.9986
-16.643
-46.3932
-36.2664
-48.9312
-50.1886
-56.459
-60.2354
-64.6553
-68.5376
-72.3035
-75.8506
-79.2173
-82.4176
-85.4573
-88.353
-91.1092
-93.7394
-96.2475
-98.6445
-100.934
-103.125
-105.221
-107.228
-109.152
-110.996
-112.764
-114.462
-116.091
-117.656
-119.159
-120.605
-121.994
-123.331
-124.617
-125.855
-127.047
-128.196
-129.304
-130.373
-131.405
-132.404
-133.371
-134.31
-135.223
-136.115
-136.99
-137.851
-138.704
-139.554
-140.408
-141.273
-142.157
-143.068
-144.017
-145.015
-146.074
-147.205
-148.422
-149.74
-151.173
-152.738
-154.452
-156.034
-157.363
-158.738
-160.155
-161.613
-163.11
-164.641
-166.2
-167.781
-169.377
-170.978
-172.574
-174.154
-175.708
-177.222
-178.683
-180.079
-181.401
-182.637
-183.779
-184.822
-185.765
-186.612
-187.35
-188.022
-76.2638
-18.3509
-47.0249
-36.5698
-49.0442
-50.2841
-56.5091
-60.2841
-64.6906
-68.5705
-72.332
-75.8769
-79.2416
-82.4404
-85.4788
-88.3734
-91.1287
-93.7582
-96.2656
-98.662
-100.951
-103.141
-105.237
-107.244
-109.167
-111.011
-112.779
-114.476
-116.105
-117.67
-119.173
-120.618
-122.007
-123.344
-124.63
-125.868
-127.06
-128.208
-129.316
-130.384
-131.416
-132.413
-133.379
-134.317
-135.228
-136.118
-136.989
-137.846
-138.693
-139.536
-140.381
-141.235
-142.104
-142.998
-143.925
-144.896
-145.921
-147.011
-148.177
-149.433
-150.789
-152.261
-153.861
-155.322
-156.539
-157.791
-159.07
-160.375
-161.702
-163.045
-164.398
-165.753
-167.103
-168.438
-169.749
-171.027
-172.262
-173.447
-174.571
-175.627
-176.609
-177.513
-178.332
-179.062
-179.702
-180.254
-180.719
-181.122
-75.8565
-19.8616
-47.5654
-36.8722
-49.1333
-50.3793
-56.5534
-60.3336
-64.7257
-68.6049
-72.3619
-75.905
-79.2678
-82.4651
-85.5023
-88.3959
-91.1503
-93.779
-96.2857
-98.6815
-100.97
-103.16
-105.255
-107.262
-109.184
-111.028
-112.795
-114.492
-116.121
-117.685
-119.189
-120.633
-122.022
-123.359
-124.644
-125.882
-127.073
-128.222
-129.328
-130.396
-131.427
-132.423
-133.388
-134.323
-135.232
-136.117
-136.984
-137.834
-138.673
-139.506
-140.338
-141.175
-142.024
-142.893
-143.788
-144.72
-145.697
-146.728
-147.823
-148.99
-150.241
-151.582
-153.025
-154.323
-155.393
-156.481
-157.581
-158.689
-159.802
-160.911
-162.012
-163.097
-164.158
-165.19
-166.184
-167.134
-168.033
-168.874
-169.653
-170.365
-171.005
-171.569
-172.057
-172.467
-172.803
-173.067
-173.266
-173.411
-73.828
-20.9652
-47.9175
-37.1465
-49.1857
-50.4678
-56.5877
-60.3807
-64.7584
-68.6387
-72.3916
-75.9335
-79.2945
-82.4906
-85.5266
-88.4193
-91.1728
-93.8007
-96.3068
-98.7019
-100.99
-103.179
-105.274
-107.28
-109.202
-111.045
-112.813
-114.509
-116.138
-117.702
-119.205
-120.649
-122.038
-123.374
-124.659
-125.897
-127.088
-128.236
-129.342
-130.408
-131.438
-132.433
-133.395
-134.327
-135.232
-136.112
-136.971
-137.813
-138.64
-139.458
-140.272
-141.085
-141.905
-142.737
-143.588
-144.465
-145.375
-146.324
-147.319
-148.366
-149.471
-150.638
-151.871
-152.958
-153.838
-154.719
-155.595
-156.462
-157.315
-158.148
-158.957
-159.736
-160.479
-161.18
-161.835
-162.441
-162.992
-163.484
-163.914
-164.279
-164.579
-164.813
-164.985
-165.095
-165.15
-165.154
-165.113
-165.03
-70.527
-21.5033
-48.0447
-37.3476
-49.2057
-50.5375
-56.6114
-60.4205
-64.7863
-68.6688
-72.4186
-75.9596
-79.3193
-82.5144
-85.5494
-88.4413
-91.1941
-93.8213
-96.3267
-98.7214
-101.009
-103.198
-105.292
-107.298
-109.22
-111.062
-112.829
-114.526
-116.154
-117.718
-119.22
-120.665
-122.053
-123.389
-124.674
-125.911
-127.101
-128.248
-129.354
-130.419
-131.447
-132.439
-133.398
-134.326
-135.225
-136.098
-136.947
-137.776
-138.588
-139.385
-140.172
-140.953
-141.732
-142.514
-143.303
-144.104
-144.922
-145.76
-146.621
-147.508
-148.423
-149.363
-150.329
-151.152
-151.799
-152.43
-153.039
-153.624
-154.18
-154.703
-155.189
-155.636
-156.04
-156.399
-156.709
-156.967
-157.171
-157.321
-157.415
-157.455
-157.442
-157.38
-157.273
-157.124
-156.939
-156.722
-156.478
-156.202
-67.0098
-21.5181
-48.0511
-37.4137
-49.2237
-50.5683
-56.6279
-60.4437
-64.8049
-68.6887
-72.4369
-75.9776
-79.3364
-82.531
-85.5654
-88.4569
-91.209
-93.8359
-96.3408
-98.7352
-101.022
-103.211
-105.305
-107.31
-109.232
-111.074
-112.841
-114.537
-116.165
-117.729
-119.231
-120.675
-122.064
-123.399
-124.684
-125.92
-127.11
-128.257
-129.361
-130.425
-131.451
-132.44
-133.395
-134.318
-135.21
-136.074
-136.912
-137.725
-138.517
-139.29
-140.045
-140.787
-141.518
-142.24
-142.956
-143.669
-144.38
-145.089
-145.798
-146.506
-147.209
-147.903
-148.584
-149.131
-149.542
-149.922
-150.269
-150.581
-150.855
-151.089
-151.282
-151.434
-151.541
-151.604
-151.619
-151.588
-151.509
-151.385
-151.217
-151.007
-150.759
-150.476
-150.164
-149.825
-149.465
-149.086
-148.692
-148.277
-64.7036
-21.3935
-47.9845
-37.4024
-49.2233
-50.5709
-56.6317
-60.4504
-64.8115
-68.6962
-72.4443
-75.9851
-79.3438
-82.5383
-85.5725
-88.4639
-91.2158
-93.8426
-96.3473
-98.7416
-101.028
-103.217
-105.31
-107.316
-109.237
-111.08
-112.847
-114.543
-116.171
-117.734
-119.236
-120.68
-122.069
-123.404
-124.688
-125.924
-127.114
-128.259
-129.362
-130.425
-131.449
-132.435
-133.387
-134.304
-135.189
-136.044
-136.869
-137.667
-138.438
-139.185
-139.909
-140.61
-141.291
-141.952
-142.594
-143.217
-143.821
-144.403
-144.963
-145.495
-145.997
-146.458
-146.875
-147.173
-147.372
-147.531
-147.651
-147.73
-147.765
-147.759
-147.712
-147.624
-147.493
-147.322
-147.11
-146.857
-146.567
-146.241
-145.881
-145.492
-145.076
-144.638
-144.182
-143.71
-143.227
-142.736
-142.239
-141.73
-64.8311
-21.3384
-47.9562
-37.365
-49.2065
-50.5552
-56.6239
-60.4433
-64.807
-68.6924
-72.4413
-75.9827
-79.3417
-82.5367
-85.5709
-88.4626
-91.2145
-93.8417
-96.3463
-98.7408
-101.027
-103.216
-105.31
-107.316
-109.237
-111.079
-112.846
-114.542
-116.17
-117.734
-119.236
-120.68
-122.068
-123.403
-124.687
-125.923
-127.112
-128.257
-129.359
-130.42
-131.441
-132.425
-133.372
-134.284
-135.163
-136.008
-136.82
-137.602
-138.353
-139.074
-139.764
-140.425
-141.056
-141.656
-142.224
-142.759
-143.257
-143.716
-144.131
-144.497
-144.808
-145.054
-145.229
-145.304
-145.316
-145.284
-145.208
-145.089
-144.925
-144.719
-144.475
-144.192
-143.872
-143.517
-143.129
-142.708
-142.259
-141.783
-141.284
-140.764
-140.228
-139.679
-139.121
-138.556
-137.988
-137.419
-136.852
-136.279
-67.3156
-21.3421
-47.9623
-37.2973
-49.1741
-50.5204
-56.6044
-60.422
-64.791
-68.677
-72.4278
-75.9702
-79.33
-82.5259
-85.5606
-88.4531
-91.2053
-93.8329
-96.3378
-98.7327
-101.02
-103.209
-105.302
-107.308
-109.23
-111.072
-112.84
-114.535
-116.164
-117.727
-119.23
-120.673
-122.062
-123.396
-124.681
-125.916
-127.105
-128.249
-129.35
-130.409
-131.429
-132.41
-133.354
-134.26
-135.131
-135.967
-136.768
-137.534
-138.265
-138.96
-139.619
-140.24
-140.823
-141.364
-141.861
-142.312
-142.711
-143.054
-143.335
-143.549
-143.687
-143.74
-143.701
-143.582
-143.435
-143.24
-143.002
-142.719
-142.394
-142.027
-141.623
-141.185
-140.717
-140.219
-139.696
-139.148
-138.58
-137.994
-137.392
-136.779
-136.157
-135.53
-134.9
-134.271
-133.644
-133.023
-132.409
-131.796
-70.8731
-21.1894
-47.8881
-37.1466
-49.1242
-50.4559
-56.572
-60.3837
-64.7628
-68.649
-72.4032
-75.9472
-79.3085
-82.5058
-85.5414
-88.435
-91.1878
-93.8164
-96.3217
-98.7173
-101.005
-103.194
-105.288
-107.295
-109.216
-111.059
-112.827
-114.523
-116.151
-117.715
-119.218
-120.661
-122.05
-123.384
-124.669
-125.903
-127.092
-128.235
-129.336
-130.394
-131.412
-132.39
-133.33
-134.232
-135.097
-135.924
-136.713
-137.464
-138.176
-138.848
-139.477
-140.062
-140.599
-141.086
-141.518
-141.891
-142.199
-142.438
-142.599
-142.676
-142.662
-142.546
-142.324
-142.04
-141.759
-141.43
-141.059
-140.645
-140.19
-139.697
-139.17
-138.612
-138.028
-137.421
-136.795
-136.152
-135.495
-134.828
-134.153
-133.473
-132.791
-132.109
-131.431
-130.757
-130.092
-129.436
-128.79
-128.151
-74.1539
-20.5334
-47.6726
-36.8758
-49.0677
-50.3571
-56.5315
-60.3303
-64.7257
-68.6115
-72.3706
-75.9165
-79.2799
-82.4789
-85.5159
-88.4108
-91.1645
-93.7942
-96.3002
-98.6967
-100.984
-103.175
-105.269
-107.276
-109.198
-111.042
-112.809
-114.506
-116.134
-117.698
-119.201
-120.645
-122.034
-123.368
-124.653
-125.887
-127.076
-128.219
-129.319
-130.375
-131.393
-132.368
-133.306
-134.203
-135.063
-135.882
-136.663
-137.401
-138.098
-138.75
-139.355
-139.91
-140.411
-140.853
-141.233
-141.544
-141.78
-141.935
-142.002
-141.973
-141.841
-141.597
-141.236
-140.829
-140.449
-140.022
-139.554
-139.045
-138.498
-137.917