/*--------------------------------*- C++ -*----------------------------------*\
| =========                 |                                                 |
| \\      /  F ield         | OpenFOAM: The Open Source CFD Toolbox           |
|  \\    /   O peration     | Version:  2306                                  |
|   \\  /    A nd           | Website:  www.openfoam.com                      |
|    \\/     M anipulation  |                                                 |
\*---------------------------------------------------------------------------*/
FoamFile
{
    version     2.0;
    format      ascii;
    arch        "LSB;label=32;scalar=64";
    class       surfaceScalarField;
    location    "1900";
    object      phi;
}
// * * * * * * * * * * * * * * * * * * * * * * * * * * * * * * * * * * * * * //

dimensions      [0 3 -1 0 0 0 0];

oriented        oriented;

internalField   nonuniform List<scalar> 
40747
(
9.40995e-06
5.47054e-06
3.29926e-06
6.11069e-06
1.13905e-05
1.20814e-05
4.38667e-06
1.03031e-05
1.37905e-05
2.00676e-05
4.32383e-06
1.38534e-05
1.67002e-05
2.97113e-05
3.55961e-06
1.74644e-05
2.02297e-05
4.13505e-05
2.18383e-06
2.16055e-05
2.45138e-05
5.53895e-05
1.65245e-07
2.65324e-05
2.97177e-05
7.23102e-05
-2.58602e-06
3.24689e-05
3.60446e-05
9.26852e-05
-6.20166e-06
3.96603e-05
4.37453e-05
0.000117192
-1.08518e-05
4.83955e-05
5.31298e-05
0.000146629
-1.67467e-05
5.90247e-05
6.45838e-05
0.000181929
-2.41396e-05
7.19767e-05
7.85881e-05
0.000224173
-3.33312e-05
8.77797e-05
9.57462e-05
0.0002746
-4.46729e-05
0.000107088
0.000116819
0.000334611
-5.85683e-05
0.000130714
0.000142771
0.000405756
-7.54712e-05
0.000159674
0.000174833
0.000489703
-9.5878e-05
0.00019524
0.000214586
0.00058817
-0.000120311
0.000239019
0.00026407
0.000702809
-0.000149284
0.000293044
0.000325935
0.00083501
-0.000183254
0.000359905
0.00040364
0.000985589
-0.000222534
0.00044292
0.000501719
0.00115432
-0.000267169
0.000546355
0.000626133
0.00133926
-0.000316762
0.000675725
0.000784728
0.0015357
-0.000370216
0.000838182
0.000987826
0.00173482
-0.000425403
0.00104301
0.00124896
0.00192175
-0.000478718
0.00130227
0.00158578
0.002073
-0.000524487
0.00163155
0.00202109
0.00215324
-0.000554153
0.00205075
0.00258399
0.00211129
-0.000554958
0.0025848
0.00331105
0.00187541
-0.000507258
0.00326335
0.00424488
0.00135065
-0.000380141
0.00411777
0.00425795
0.00065721
-0.000200111
0.00407792
0.00437286
-0.000151142
2.33586e-05
0.0041494
0.00436452
-0.000951154
0.000244318
0.00414357
0.00423729
-0.00162394
0.000419583
0.00406203
0.00408931
-0.00210598
0.000537727
0.00397117
0.00321063
-0.00231574
0.000582443
0.00316592
0.00252179
-0.00234112
0.000581342
0.00252289
0.00198465
-0.00224902
0.000552288
0.0020137
0.0015664
-0.00208777
0.000507148
0.00161154
0.00124063
-0.00189119
0.000454056
0.00129373
0.000986498
-0.00168208
0.00039853
0.00104203
0.000787697
-0.00147515
0.000344179
0.000842049
0.00063162
-0.00127935
0.000293216
0.000682583
0.000508569
-0.00109959
0.000246857
0.000554928
0.00041111
-0.000938079
0.000205626
0.000452342
0.000333553
-0.000795274
0.000169587
0.000369592
0.000271543
-0.000670536
0.00013852
0.000302609
0.000221734
-0.000562607
0.00011204
0.000248214
0.000181553
-0.000469914
8.96816e-05
0.000203912
0.000149009
-0.000390779
7.09557e-05
0.000167734
0.000122553
-0.00032354
5.53847e-05
0.000138124
0.000100977
-0.00026663
4.25224e-05
0.000113839
8.33284e-05
-0.000218614
3.1965e-05
9.38858e-05
6.8856e-05
-0.000178204
2.33552e-05
7.74659e-05
5.69617e-05
-0.000144268
1.63822e-05
6.39346e-05
4.71673e-05
-0.000115818
1.07801e-05
5.27693e-05
3.90888e-05
-9.20015e-05
6.32421e-06
4.35447e-05
3.24161e-05
-7.20868e-05
2.82768e-06
3.59126e-05
2.68981e-05
-5.5451e-05
1.38939e-07
2.95868e-05
2.23301e-05
-4.15656e-05
-1.85921e-06
2.43282e-05
1.85455e-05
-2.99835e-05
-3.2457e-06
1.9932e-05
1.54075e-05
-2.0328e-05
-4.04388e-06
1.62056e-05
1.28041e-05
-1.22823e-05
-4.15881e-06
1.2919e-05
1.06431e-05
-5.58059e-06
-3.14198e-06
9.62623e-06
8.84848e-06
5.70651e-06
2.59057e-06
3.52012e-06
1.98499e-06
6.05587e-07
1.79554e-06
1.89449e-07
1.67885e-06
1.16692e-07
1.59674e-06
8.21136e-08
1.53319e-06
6.35562e-08
1.48257e-06
5.06163e-08
1.44032e-06
4.2259e-08
1.40455e-06
3.5766e-08
1.37365e-06
3.08964e-08
1.34667e-06
2.69776e-08
1.32286e-06
2.38158e-08
1.30168e-06
2.11699e-08
1.2827e-06
1.89778e-08
1.26564e-06
1.70584e-08
1.2502e-06
1.54347e-08
1.23616e-06
1.40323e-08
1.22337e-06
1.27833e-08
1.21167e-06
1.16934e-08
1.20093e-06
1.07368e-08
1.19104e-06
9.88014e-09
1.18192e-06
9.1136e-09
1.1735e-06
8.42317e-09
1.16568e-06
7.81104e-09
1.15842e-06
7.25352e-09
1.15167e-06
6.7477e-09
1.14537e-06
6.29043e-09
1.1395e-06
5.87207e-09
1.134e-06
5.48974e-09
1.12886e-06
5.14177e-09
1.12404e-06
4.82146e-09
1.11951e-06
4.52689e-09
1.11526e-06
4.25448e-09
1.11126e-06
4.00348e-09
1.10749e-06
3.77199e-09
1.10393e-06
3.55625e-09
1.10058e-06
3.35531e-09
1.09742e-06
3.16786e-09
1.09444e-06
2.99232e-09
1.09162e-06
2.82699e-09
1.08897e-06
2.6703e-09
1.08646e-06
2.52099e-09
1.0841e-06
2.37741e-09
1.08188e-06
2.23835e-09
1.07979e-06
2.10168e-09
1.07785e-06
1.96636e-09
1.07604e-06
1.83036e-09
1.07438e-06
1.69203e-09
1.07286e-06
1.54856e-09
1.07149e-06
1.39909e-09
1.07029e-06
1.24046e-09
1.06926e-06
1.07218e-09
1.06843e-06
8.90213e-10
1.0678e-06
6.95409e-10
1.0674e-06
4.80166e-10
1.06726e-06
2.48095e-10
1.06739e-06
-1.42329e-11
1.06785e-06
-3.09389e-10
1.06866e-06
-6.47844e-10
1.06987e-06
-1.02823e-09
1.07154e-06
-1.47281e-09
1.07373e-06
-1.9896e-09
1.07658e-06
-2.61963e-09
1.07888e-06
-2.04e-09
1.08142e-06
-2.2165e-09
1.08422e-06
-2.46828e-09
1.08732e-06
-2.78014e-09
1.09075e-06
-3.06469e-09
1.0945e-06
-3.41938e-09
1.09859e-06
-3.73456e-09
1.10304e-06
-4.16367e-09
1.10789e-06
-4.56622e-09
1.11315e-06
-5.09553e-09
1.11889e-06
-5.5953e-09
1.12513e-06
-6.24287e-09
1.13195e-06
-6.84222e-09
1.1394e-06
-7.66136e-09
1.14757e-06
-8.50747e-09
1.15652e-06
-9.65745e-09
1.16651e-06
-1.11271e-08
1.17752e-06
-1.28871e-08
1.19051e-06
-1.56882e-08
1.20533e-06
-1.88938e-08
1.22382e-06
-2.37867e-08
1.25079e-06
-3.43268e-08
1.2809e-06
-4.04018e-08
1.3379e-06
-6.88587e-08
-4.48818e-07
1.78268e-06
8.47339e-06
5.3498e-06
7.27466e-06
1.80432e-06
6.678e-06
7.86117e-07
6.28187e-06
5.1283e-07
6.00001e-06
3.63978e-07
5.77717e-06
2.86398e-07
5.59894e-06
2.28853e-07
5.44877e-06
1.92435e-07
5.32113e-06
1.63406e-07
5.21033e-06
1.41691e-07
5.11325e-06
1.24059e-07
5.02726e-06
1.09794e-07
4.95063e-06
9.78009e-08
4.88175e-06
8.784e-08
4.81972e-06
7.90841e-08
4.76348e-06
7.16626e-08
4.71226e-06
6.5236e-08
4.66553e-06
5.94999e-08
4.62273e-06
5.44855e-08
4.58338e-06
5.00757e-08
4.54712e-06
4.6122e-08
4.51364e-06
4.25765e-08
4.48267e-06
3.93815e-08
4.45393e-06
3.65425e-08
4.42721e-06
3.39567e-08
4.40234e-06
3.16051e-08
4.37914e-06
2.948e-08
4.35748e-06
2.75312e-08
4.33721e-06
2.57511e-08
4.31822e-06
2.41274e-08
4.3004e-06
2.26335e-08
4.28367e-06
2.1257e-08
4.26795e-06
1.99845e-08
4.25314e-06
1.881e-08
4.2392e-06
1.77269e-08
4.22605e-06
1.67162e-08
4.21364e-06
1.57748e-08
4.20193e-06
1.48957e-08
4.19087e-06
1.40725e-08
4.18043e-06
1.32968e-08
4.17056e-06
1.25617e-08
4.16126e-06
1.18612e-08
4.15248e-06
1.1188e-08
4.14422e-06
1.05365e-08
4.13647e-06
9.89697e-09
4.12923e-06
9.26468e-09
4.12248e-06
8.63042e-09
4.11625e-06
7.98662e-09
4.11055e-06
7.32032e-09
4.10539e-06
6.6276e-09
4.10083e-06
5.89367e-09
4.09689e-06
5.11574e-09
4.09362e-06
4.27568e-09
4.0911e-06
3.37179e-09
4.08939e-06
2.38257e-09
4.08858e-06
1.29867e-09
4.08874e-06
1.0504e-10
4.09003e-06
-1.26558e-09
4.09254e-06
-2.79016e-09
4.09644e-06
-4.53316e-09
4.10192e-06
-6.51594e-09
4.10922e-06
-8.849e-09
4.11868e-06
-1.16017e-08
4.12634e-06
-9.13597e-09
4.13477e-06
-1.00007e-08
4.14418e-06
-1.11924e-08
4.15456e-06
-1.24976e-08
4.16604e-06
-1.38219e-08
4.17853e-06
-1.52524e-08
4.19222e-06
-1.67291e-08
4.20703e-06
-1.84117e-08
4.22319e-06
-2.02101e-08
4.24062e-06
-2.22165e-08
4.25962e-06
-2.43526e-08
4.28009e-06
-2.67271e-08
4.30246e-06
-2.92828e-08
4.32647e-06
-3.21156e-08
4.35299e-06
-3.57367e-08
4.3812e-06
-3.92777e-08
4.41347e-06
-4.56454e-08
4.44695e-06
-4.99957e-08
4.48878e-06
-6.26069e-08
4.53144e-06
-6.9105e-08
4.5897e-06
-9.17352e-08
4.66187e-06
-1.19642e-07
4.7452e-06
-1.4214e-07
4.91651e-06
-2.6067e-07
-6.22126e-07
5.08669e-06
1.35827e-05
5.62042e-06
1.28277e-05
2.55939e-06
1.21288e-05
1.48501e-06
1.15748e-05
1.06682e-06
1.11627e-05
7.76093e-07
1.08271e-05
6.21969e-07
1.05556e-05
5.00406e-07
1.03241e-05
4.23921e-07
1.01259e-05
3.61571e-07
9.95273e-06
3.14877e-07
9.80015e-06
2.7664e-07
9.66434e-06
2.45592e-07
9.54277e-06
2.1937e-07
9.43308e-06
1.97517e-07
9.33392e-06
1.78235e-07
9.24373e-06
1.61843e-07
9.16134e-06
1.47611e-07
9.08596e-06
1.34871e-07
9.01672e-06
1.23706e-07
8.95292e-06
1.13866e-07
8.894e-06
1.05025e-07
8.83948e-06
9.70792e-08
8.78894e-06
8.9905e-08
8.74196e-06
8.35183e-08
8.69821e-06
7.76925e-08
8.65742e-06
7.23842e-08
8.61931e-06
6.75809e-08
8.58366e-06
6.31684e-08
8.55027e-06
5.91329e-08
8.51895e-06
5.54465e-08
8.48953e-06
5.2051e-08
8.46187e-06
4.89181e-08
8.43584e-06
4.60185e-08
8.41131e-06
4.33389e-08
8.38818e-06
4.08653e-08
8.36635e-06
3.85543e-08
8.34574e-06
3.63995e-08
8.32627e-06
3.43853e-08
8.30787e-06
3.24973e-08
8.29048e-06
3.07166e-08
8.27404e-06
2.90279e-08
8.25852e-06
2.74175e-08
8.24388e-06
2.58688e-08
8.23009e-06
2.43691e-08
8.21713e-06
2.28961e-08
8.20501e-06
2.14394e-08
8.19372e-06
1.99778e-08
8.18328e-06
1.84939e-08
8.17371e-06
1.6958e-08
8.16506e-06
1.53609e-08
8.15737e-06
1.36685e-08
8.15072e-06
1.18727e-08
8.14519e-06
9.93112e-09
8.14089e-06
7.83444e-09
8.13793e-06
5.53963e-09
8.13646e-06
3.01485e-09
8.13662e-06
2.40752e-10
8.13862e-06
-2.9291e-09
8.14266e-06
-6.45631e-09
8.14901e-06
-1.04769e-08
8.15794e-06
-1.50067e-08
8.16986e-06
-2.03305e-08
8.18528e-06
-2.65384e-08
8.19773e-06
-2.10402e-08
8.21162e-06
-2.32637e-08
8.22704e-06
-2.5954e-08
8.24405e-06
-2.88774e-08
8.26282e-06
-3.18956e-08
8.28328e-06
-3.50934e-08
8.30564e-06
-3.84275e-08
8.32984e-06
-4.20913e-08
8.35615e-06
-4.60473e-08
8.3845e-06
-5.02895e-08
8.41533e-06
-5.49623e-08
8.44846e-06
-5.98852e-08
8.48465e-06
-6.55524e-08
8.52337e-06
-7.12625e-08
8.56626e-06
-7.93127e-08
8.61151e-06
-8.58854e-08
8.66382e-06
-1.0007e-07
8.71687e-06
-1.06464e-07
8.78494e-06
-1.35415e-07
8.8502e-06
-1.41359e-07
8.94518e-06
-1.9564e-07
9.04956e-06
-2.36065e-07
9.17884e-06
-2.88349e-07
9.4593e-06
-5.59798e-07
-7.32996e-07
9.56915e-06
1.83203e-05
4.7646e-06
1.81313e-05
2.74837e-06
1.75259e-05
2.09041e-06
1.69021e-05
1.69059e-06
1.64042e-05
1.27405e-06
1.59832e-05
1.04294e-06
1.56376e-05
8.46002e-07
1.534e-05
7.21594e-07
1.50837e-05
6.17783e-07
1.48589e-05
5.39736e-07
1.46602e-05
4.75301e-07
1.4483e-05
4.22798e-07
1.43241e-05
3.78288e-07
1.41805e-05
3.41095e-07
1.40505e-05
3.082e-07
1.39322e-05
2.80169e-07
1.3824e-05
2.55796e-07
1.37249e-05
2.33944e-07
1.36338e-05
2.14762e-07
1.35498e-05
1.97833e-07
1.34722e-05
1.82608e-07
1.34004e-05
1.68909e-07
1.33338e-05
1.56525e-07
1.32718e-05
1.45489e-07
1.3214e-05
1.35416e-07
1.31602e-05
1.26228e-07
1.31098e-05
1.17908e-07
1.30627e-05
1.10258e-07
1.30186e-05
1.03258e-07
1.29772e-05
9.68572e-08
1.29383e-05
9.09587e-08
1.29017e-05
8.55127e-08
1.28672e-05
8.04694e-08
1.28348e-05
7.58053e-08
1.28042e-05
7.14972e-08
1.27753e-05
6.74703e-08
1.2748e-05
6.37136e-08
1.27222e-05
6.01998e-08
1.26978e-05
5.69045e-08
1.26747e-05
5.37952e-08
1.26529e-05
5.0845e-08
1.26324e-05
4.80304e-08
1.2613e-05
4.53227e-08
1.25947e-05
4.26995e-08
1.25775e-05
4.0122e-08
1.25614e-05
3.75722e-08
1.25464e-05
3.50132e-08
1.25326e-05
3.24143e-08
1.25199e-05
2.97243e-08
1.25084e-05
2.69257e-08
1.24982e-05
2.39596e-08
1.24894e-05
2.08094e-08
1.2482e-05
1.74012e-08
1.24763e-05
1.37123e-08
1.24724e-05
9.67323e-09
1.24704e-05
5.22096e-09
1.24707e-05
3.22471e-10
1.24733e-05
-5.24385e-09
1.24787e-05
-1.14425e-08
1.24872e-05
-1.85162e-08
1.2499e-05
-2.64309e-08
1.25149e-05
-3.57048e-08
1.25352e-05
-4.64386e-08
1.25517e-05
-3.69388e-08
1.25702e-05
-4.10806e-08
1.25906e-05
-4.57332e-08
1.26132e-05
-5.07754e-08
1.2638e-05
-5.60223e-08
1.26651e-05
-6.15417e-08
1.26946e-05
-6.73077e-08
1.27266e-05
-7.35206e-08
1.27613e-05
-8.0267e-08
1.27986e-05
-8.73203e-08
1.28391e-05
-9.52809e-08
1.28826e-05
-1.03352e-07
1.293e-05
-1.131e-07
1.29806e-05
-1.22251e-07
1.30367e-05
-1.36191e-07
1.30955e-05
-1.4599e-07
1.31639e-05
-1.70717e-07
1.32319e-05
-1.77954e-07
1.33208e-05
-2.29164e-07
1.34016e-05
-2.29308e-07
1.35242e-05
-3.27423e-07
1.3646e-05
-3.70143e-07
1.38121e-05
-4.71777e-07
1.4108e-05
-8.74838e-07
-1.04065e-06
1.44152e-05
2.34314e-05
2.9387e-06
2.38029e-05
2.37685e-06
2.33994e-05
2.49394e-06
2.27673e-05
2.32267e-06
2.22058e-05
1.83562e-06
2.17033e-05
1.54534e-06
2.12806e-05
1.26871e-06
2.09108e-05
1.09146e-06
2.05896e-05
9.39003e-07
2.03059e-05
8.23368e-07
2.00543e-05
7.26909e-07
1.98292e-05
6.47895e-07
1.96269e-05
5.80594e-07
1.94438e-05
5.24167e-07
1.92779e-05
4.74137e-07
1.91266e-05
4.31394e-07
1.89882e-05
3.94172e-07
1.88614e-05
3.60753e-07
1.87448e-05
3.31372e-07
1.86372e-05
3.05414e-07
1.85377e-05
2.82049e-07
1.84456e-05
2.61007e-07
1.83601e-05
2.4197e-07
1.82806e-05
2.24988e-07
1.82066e-05
2.09483e-07
1.81374e-05
1.95332e-07
1.80728e-05
1.82507e-07
1.80124e-05
1.70713e-07
1.79557e-05
1.59912e-07
1.79025e-05
1.50033e-07
1.78525e-05
1.40925e-07
1.78055e-05
1.32513e-07
1.77613e-05
1.2472e-07
1.77196e-05
1.1751e-07
1.76803e-05
1.10847e-07
1.76431e-05
1.04618e-07
1.76081e-05
9.88049e-08
1.75749e-05
9.33658e-08
1.75436e-05
8.82632e-08
1.7514e-05
8.34477e-08
1.7486e-05
7.88776e-08
1.74595e-05
7.45166e-08
1.74346e-05
7.03206e-08
1.7411e-05
6.62548e-08
1.7389e-05
6.22594e-08
1.73683e-05
5.83067e-08
1.7349e-05
5.43396e-08
1.73312e-05
5.03104e-08
1.73149e-05
4.61408e-08
1.73001e-05
4.18022e-08
1.72869e-05
3.72046e-08
1.72755e-05
3.23193e-08
1.72661e-05
2.70334e-08
1.72587e-05
2.13046e-08
1.72535e-05
1.5032e-08
1.72509e-05
8.11131e-09
1.72511e-05
4.85895e-10
1.72544e-05
-8.14907e-09
1.72611e-05
-1.77513e-08
1.72718e-05
-2.87239e-08
1.72868e-05
-4.09686e-08
1.73068e-05
-5.52561e-08
1.73326e-05
-7.16773e-08
1.73534e-05
-5.71305e-08
1.73768e-05
-6.37806e-08
1.74028e-05
-7.09208e-08
1.74313e-05
-7.86238e-08
1.74628e-05
-8.66792e-08
1.7497e-05
-9.51087e-08
1.75344e-05
-1.03933e-07
1.75747e-05
-1.13295e-07
1.76185e-05
-1.23519e-07
1.76655e-05
-1.33986e-07
1.77165e-05
-1.46038e-07
1.77709e-05
-1.57866e-07
1.78305e-05
-1.72709e-07
1.78936e-05
-1.85848e-07
1.79638e-05
-2.07186e-07
1.80367e-05
-2.20415e-07
1.81219e-05
-2.58338e-07
1.82056e-05
-2.65422e-07
1.83151e-05
-3.43953e-07
1.84128e-05
-3.34774e-07
1.85614e-05
-4.8594e-07
1.87026e-05
-5.24673e-07
1.89053e-05
-6.93275e-07
1.91959e-05
-1.18606e-06
-1.51603e-06
1.96709e-05
2.9325e-05
1.46024e-07
3.02535e-05
1.44837e-06
3.0125e-05
2.62244e-06
2.95549e-05
2.8928e-06
2.89689e-05
2.42162e-06
2.84004e-05
2.11383e-06
2.79039e-05
1.7652e-06
2.74589e-05
1.53646e-06
2.70669e-05
1.33106e-06
2.67173e-05
1.17294e-06
2.64051e-05
1.03909e-06
2.61245e-05
9.28536e-07
2.58713e-05
8.33731e-07
2.56416e-05
7.5385e-07
2.5433e-05
6.82776e-07
2.52425e-05
6.2185e-07
2.5068e-05
5.68673e-07
2.49079e-05
5.2085e-07
2.47605e-05
4.78726e-07
2.46244e-05
4.41457e-07
2.44986e-05
4.07879e-07
2.4382e-05
3.7761e-07
2.42737e-05
3.50201e-07
2.4173e-05
3.25725e-07
2.40791e-05
3.0337e-07
2.39914e-05
2.82953e-07
2.39095e-05
2.64437e-07
2.38328e-05
2.47404e-07
2.37609e-05
2.31799e-07
2.36934e-05
2.17517e-07
2.363e-05
2.04347e-07
2.35703e-05
1.92178e-07
2.35141e-05
1.80903e-07
2.34612e-05
1.70466e-07
2.34112e-05
1.60818e-07
2.3364e-05
1.51797e-07
2.33195e-05
1.43376e-07
2.32774e-05
1.35495e-07
2.32376e-05
1.281e-07
2.31999e-05
1.2112e-07
2.31644e-05
1.14495e-07
2.31308e-05
1.08173e-07
2.3099e-05
1.0209e-07
2.30692e-05
9.61949e-08
2.30411e-05
9.04028e-08
2.30148e-05
8.46731e-08
2.29903e-05
7.89236e-08
2.29676e-05
7.30848e-08
2.29468e-05
6.70454e-08
2.29279e-05
6.07616e-08
2.29111e-05
5.41059e-08
2.28966e-05
4.70326e-08
2.28844e-05
3.93821e-08
2.28748e-05
3.10847e-08
2.28681e-05
2.20036e-08
2.28646e-05
1.19799e-08
2.28645e-05
9.26419e-10
2.28684e-05
-1.15669e-08
2.28765e-05
-2.54312e-08
2.28896e-05
-4.12753e-08
2.29082e-05
-5.89433e-08
2.2933e-05
-7.94941e-08
2.29649e-05
-1.02956e-07
2.29906e-05
-8.21763e-08
2.30197e-05
-9.19888e-08
2.30518e-05
-1.02235e-07
2.30872e-05
-1.1322e-07
2.31262e-05
-1.24745e-07
2.31686e-05
-1.36746e-07
2.32149e-05
-1.49345e-07
2.32648e-05
-1.62531e-07
2.33188e-05
-1.7701e-07
2.33768e-05
-1.91572e-07
2.34396e-05
-2.08608e-07
2.35066e-05
-2.24866e-07
2.35797e-05
-2.45907e-07
2.36569e-05
-2.63671e-07
2.37428e-05
-2.93937e-07
2.38317e-05
-3.10981e-07
2.39352e-05
-3.64525e-07
2.40367e-05
-3.71209e-07
2.41678e-05
-4.81022e-07
2.42861e-05
-4.61743e-07
2.44606e-05
-6.7156e-07
2.46255e-05
-7.04449e-07
2.48671e-05
-9.55662e-07
2.51552e-05
-1.49692e-06
-2.09945e-06
2.57378e-05
3.63186e-05
-3.70367e-06
3.78211e-05
-5.4093e-08
3.80127e-05
2.43083e-06
3.75662e-05
3.33937e-06
3.70055e-05
2.98226e-06
3.63993e-05
2.72001e-06
3.58426e-05
2.32196e-06
3.53263e-05
2.05274e-06
3.48618e-05
1.79553e-06
3.44416e-05
1.59316e-06
3.40625e-05
1.41819e-06
3.37192e-05
1.27187e-06
3.34077e-05
1.14516e-06
3.31239e-05
1.03761e-06
3.28653e-05
9.41421e-07
3.26285e-05
8.58573e-07
3.24112e-05
7.8602e-07
3.22114e-05
7.20612e-07
3.20272e-05
6.62858e-07
3.1857e-05
6.11657e-07
3.16994e-05
5.65459e-07
3.15532e-05
5.23762e-07
3.14174e-05
4.85963e-07
3.1291e-05
4.52164e-07
3.11731e-05
4.21276e-07
3.10629e-05
3.93046e-07
3.09599e-05
3.67422e-07
3.08635e-05
3.43841e-07
3.07731e-05
3.22224e-07
3.06881e-05
3.02428e-07
3.06083e-05
2.84168e-07
3.05332e-05
2.67289e-07
3.04625e-05
2.51645e-07
3.03958e-05
2.37159e-07
3.03328e-05
2.23761e-07
3.02734e-05
2.11233e-07
3.02173e-05
1.99537e-07
3.01642e-05
1.88587e-07
3.01141e-05
1.7831e-07
3.00666e-05
1.68609e-07
3.00218e-05
1.59401e-07
2.99794e-05
1.50612e-07
2.99394e-05
1.42157e-07
2.99017e-05
1.33964e-07
2.98662e-05
1.25916e-07
2.9833e-05
1.17956e-07
2.98021e-05
1.09972e-07
2.97734e-05
1.01865e-07
2.97471e-05
9.34858e-08
2.97232e-05
8.47696e-08
2.97019e-05
7.55442e-08
2.96834e-05
6.57408e-08
2.96678e-05
5.51447e-08
2.96555e-05
4.36501e-08
2.96467e-05
3.1079e-08
2.96419e-05
1.72017e-08
2.96414e-05
1.89546e-09
2.96458e-05
-1.53853e-08
2.96554e-05
-3.45266e-08
2.96712e-05
-5.63865e-08
2.96937e-05
-8.07471e-08
2.97239e-05
-1.0902e-07
2.97628e-05
-1.4113e-07
2.97943e-05
-1.1277e-07
2.98297e-05
-1.26482e-07
2.9869e-05
-1.40565e-07
2.99123e-05
-1.55552e-07
2.99599e-05
-1.71311e-07
3.00118e-05
-1.87642e-07
3.00682e-05
-2.04841e-07
3.01291e-05
-2.22624e-07
3.0195e-05
-2.42246e-07
3.02656e-05
-2.61699e-07
3.0342e-05
-2.84708e-07
3.04233e-05
-3.06192e-07
3.05119e-05
-3.34635e-07
3.06054e-05
-3.57811e-07
3.0709e-05
-3.98568e-07
3.08162e-05
-4.20129e-07
3.094e-05
-4.91475e-07
3.10624e-05
-4.98533e-07
3.1217e-05
-6.42377e-07
3.13603e-05
-6.14952e-07
3.15619e-05
-8.85785e-07
3.17551e-05
-9.14386e-07
3.20394e-05
-1.26328e-06
3.23337e-05
-1.8165e-06
-2.75824e-06
3.29911e-05
4.47248e-05
-8.76817e-06
4.68458e-05
-2.17512e-06
4.73912e-05
1.88546e-06
4.71141e-05
3.61651e-06
4.66284e-05
3.46795e-06
4.6022e-05
3.32639e-06
4.54293e-05
2.91463e-06
4.48549e-05
2.62721e-06
4.43234e-05
2.32699e-06
4.38328e-05
2.08377e-06
4.33838e-05
1.86717e-06
4.29728e-05
1.68291e-06
4.25969e-05
1.52105e-06
4.22522e-05
1.38224e-06
4.19364e-05
1.25716e-06
4.16463e-05
1.1487e-06
4.1379e-05
1.05325e-06
4.11327e-05
9.66887e-07
4.09052e-05
8.90372e-07
4.06945e-05
8.2234e-07
4.04991e-05
7.60822e-07
4.03176e-05
7.05203e-07
4.01488e-05
6.54705e-07
3.99915e-05
6.0947e-07
3.98446e-05
5.68093e-07
3.97074e-05
5.30239e-07
3.9579e-05
4.95838e-07
3.94587e-05
4.64164e-07
3.93458e-05
4.35107e-07
3.92397e-05
4.08476e-07
3.914e-05
3.83898e-07
3.90461e-05
3.6117e-07
3.89576e-05
3.40096e-07
3.88742e-05
3.20574e-07
3.87955e-05
3.02506e-07
3.87211e-05
2.85611e-07
3.86509e-05
2.69832e-07
3.85844e-05
2.55057e-07
3.85216e-05
2.41185e-07
3.84622e-05
2.2809e-07
3.8406e-05
2.15659e-07
3.83529e-05
2.03794e-07
3.83027e-05
1.92381e-07
3.82555e-05
1.81322e-07
3.8211e-05
1.70461e-07
3.81694e-05
1.59724e-07
3.81305e-05
1.48957e-07
3.80945e-05
1.3803e-07
3.80613e-05
1.26745e-07
3.80313e-05
1.15011e-07
3.80044e-05
1.02603e-07
3.79809e-05
8.94205e-08
3.79611e-05
7.51854e-08
3.79453e-05
5.9745e-08
3.79339e-05
4.2875e-08
3.79274e-05
2.42538e-08
3.79261e-05
3.72162e-09
3.79308e-05
-1.94417e-08
3.79421e-05
-4.50563e-08
3.79608e-05
-7.42853e-08
3.79877e-05
-1.06827e-07
3.8024e-05
-1.44525e-07
3.8071e-05
-1.87172e-07
3.81089e-05
-1.49719e-07
3.81518e-05
-1.68184e-07
3.81994e-05
-1.86955e-07
3.82518e-05
-2.0679e-07
3.83094e-05
-2.27671e-07
3.83721e-05
-2.49216e-07
3.84403e-05
-2.71964e-07
3.85139e-05
-2.95251e-07
3.85935e-05
-3.21031e-07
3.86786e-05
-3.46321e-07
3.87707e-05
-3.76412e-07
3.88685e-05
-4.04081e-07
3.8975e-05
-4.4125e-07
3.90873e-05
-4.70818e-07
3.92112e-05
-5.23716e-07
3.93397e-05
-5.50907e-07
3.94867e-05
-6.4203e-07
3.96337e-05
-6.51266e-07
3.98142e-05
-8.30681e-07
3.99874e-05
-7.99536e-07
4.02189e-05
-1.13168e-06
4.04449e-05
-1.15943e-06
4.07768e-05
-1.62106e-06
4.10896e-05
-2.15737e-06
-3.46542e-06
4.17947e-05
5.48904e-05
-1.52632e-05
5.77032e-05
-4.9879e-06
5.86379e-05
9.50848e-07
5.85633e-05
3.69109e-06
5.81943e-05
3.83697e-06
5.76269e-05
3.89381e-06
5.70303e-05
3.51117e-06
5.64201e-05
3.23743e-06
5.58359e-05
2.91125e-06
5.52824e-05
2.63719e-06
5.47662e-05
2.38334e-06
5.42868e-05
2.16237e-06
5.38434e-05
1.96446e-06
5.34332e-05
1.79235e-06
5.30547e-05
1.63562e-06
5.27049e-05
1.49846e-06
5.23813e-05
1.37688e-06
5.20818e-05
1.26632e-06
5.18042e-05
1.16792e-06
5.15465e-05
1.08005e-06
5.13069e-05
1.00034e-06
5.1084e-05
9.28097e-07
5.08763e-05
8.62368e-07
5.06824e-05
8.03341e-07
5.05011e-05
7.4927e-07
5.03316e-05
6.99734e-07
5.01728e-05
6.54646e-07
5.00238e-05
6.13098e-07
4.9884e-05
5.74945e-07
4.97525e-05
5.39939e-07
4.96288e-05
5.07607e-07
4.95123e-05
4.77688e-07
4.94024e-05
4.49934e-07
4.92988e-05
4.24207e-07
4.9201e-05
4.00378e-07
4.91085e-05
3.7809e-07
4.90211e-05
3.57268e-07
4.89385e-05
3.37763e-07
4.88603e-05
3.19445e-07
4.87863e-05
3.02148e-07
4.87163e-05
2.85727e-07
4.86501e-05
2.70053e-07
4.85876e-05
2.54976e-07
4.85287e-05
2.40368e-07
4.84732e-05
2.26028e-07
4.84212e-05
2.11854e-07
4.83727e-05
1.97649e-07
4.83276e-05
1.83238e-07
4.82862e-05
1.6837e-07
4.82485e-05
1.52917e-07
4.82147e-05
1.36593e-07
4.81852e-05
1.19258e-07
4.81601e-05
1.00558e-07
4.814e-05
8.02824e-08
4.81252e-05
5.81553e-08
4.81163e-05
3.37358e-08
4.81139e-05
6.82811e-09
4.81188e-05
-2.35073e-08
4.81316e-05
-5.70031e-08
4.81535e-05
-9.51999e-08
4.81854e-05
-1.37665e-07
4.82287e-05
-1.86795e-07
4.82849e-05
-2.42186e-07
4.83303e-05
-1.93945e-07
4.83817e-05
-2.18163e-07
4.84388e-05
-2.42619e-07
4.85017e-05
-2.68304e-07
4.85709e-05
-2.95332e-07
4.86461e-05
-3.23137e-07
4.87281e-05
-3.52519e-07
4.88163e-05
-3.82383e-07
4.89117e-05
-4.15481e-07
4.90137e-05
-4.47736e-07
4.91239e-05
-4.86176e-07
4.9241e-05
-5.21191e-07
4.93681e-05
-5.68545e-07
4.95021e-05
-6.05726e-07
4.96496e-05
-6.72536e-07
4.98029e-05
-7.06879e-07
4.99763e-05
-8.19609e-07
5.01522e-05
-8.33802e-07
5.03619e-05
-1.04941e-06
5.05702e-05
-1.02084e-06
5.08357e-05
-1.41368e-06
5.10999e-05
-1.44495e-06
5.14827e-05
-2.03249e-06
5.18312e-05
-2.53636e-06
-4.19289e-06
5.25558e-05
6.72223e-05
-2.34608e-05
7.08283e-05
-8.59384e-06
7.21969e-05
-4.1779e-07
7.23523e-05
3.53574e-06
7.21325e-05
4.05673e-06
7.16383e-05
4.38806e-06
7.10717e-05
4.07779e-06
7.04542e-05
3.85487e-06
6.98395e-05
3.52604e-06
6.9239e-05
3.23762e-06
6.86659e-05
2.95644e-06
6.81238e-05
2.70449e-06
6.76151e-05
2.47318e-06
6.7139e-05
2.26836e-06
6.66954e-05
2.07915e-06
6.62823e-05
1.9116e-06
6.58975e-05
1.7616e-06
6.55395e-05
1.62425e-06
6.52061e-05
1.50124e-06
6.48954e-05
1.39074e-06
6.46056e-05
1.29003e-06
6.43352e-05
1.19847e-06
6.40826e-05
1.11492e-06
6.38463e-05
1.03962e-06
6.3625e-05
9.70497e-07
6.34177e-05
9.07043e-07
6.32231e-05
8.4916e-07
6.30404e-05
7.95764e-07
6.28687e-05
7.46659e-07
6.27071e-05
7.01536e-07
6.25549e-05
6.59813e-07
6.24114e-05
6.21168e-07
6.2276e-05
5.85294e-07
6.21482e-05
5.52012e-07
6.20275e-05
5.21151e-07
6.19133e-05
4.92275e-07
6.18054e-05
4.65287e-07
6.17032e-05
4.39992e-07
6.16065e-05
4.16223e-07
6.1515e-05
3.93772e-07
6.14283e-05
3.72455e-07
6.13464e-05
3.52102e-07
6.1269e-05
3.32526e-07
6.11959e-05
3.13557e-07
6.11272e-05
2.94942e-07
6.10627e-05
2.7655e-07
6.10024e-05
2.58125e-07
6.09464e-05
2.39439e-07
6.08948e-05
2.20182e-07
6.08478e-05
2.00177e-07
6.08056e-05
1.79068e-07
6.07685e-05
1.56662e-07
6.0737e-05
1.3252e-07
6.07114e-05
1.06356e-07
6.06923e-05
7.78408e-08
6.06805e-05
4.63787e-08
6.06764e-05
1.17401e-08
6.06812e-05
-2.72824e-08
6.06957e-05
-7.03118e-08
6.07211e-05
-1.19361e-07
6.07585e-05
-1.7379e-07
6.08097e-05
-2.36704e-07
6.08763e-05
-3.07422e-07
6.09304e-05
-2.46498e-07
6.09916e-05
-2.77627e-07
6.10597e-05
-3.08945e-07
6.11347e-05
-3.41662e-07
6.12172e-05
-3.76033e-07
6.1307e-05
-4.11333e-07
6.14047e-05
-4.48594e-07
6.15099e-05
-4.86314e-07
6.16237e-05
-5.28059e-07
6.17452e-05
-5.68613e-07
6.18764e-05
-6.1684e-07
6.20158e-05
-6.60601e-07
6.21668e-05
-7.19768e-07
6.23261e-05
-7.66075e-07
6.25006e-05
-8.48684e-07
6.26828e-05
-8.92139e-07
6.28866e-05
-1.02823e-06
6.30962e-05
-1.05104e-06
6.33394e-05
-1.30299e-06
6.35881e-05
-1.28429e-06
6.38927e-05
-1.73694e-06
6.42018e-05
-1.77778e-06
6.46354e-05
-2.49714e-06
6.50401e-05
-2.97346e-06
-4.91557e-06
6.57589e-05
8.22083e-05
-3.36925e-05
8.67369e-05
-1.31224e-05
8.85974e-05
-2.27833e-06
8.90105e-05
3.1227e-06
8.89666e-05
4.10064e-06
8.85726e-05
4.78209e-06
8.8066e-05
4.58442e-06
8.74708e-05
4.45008e-06
8.68523e-05
4.14448e-06
8.62275e-05
3.86247e-06
8.56153e-05
3.56859e-06
8.50238e-05
3.29598e-06
8.44589e-05
3.03802e-06
8.39227e-05
2.80454e-06
8.3417e-05
2.58483e-06
8.29411e-05
2.38744e-06
8.24941e-05
2.20848e-06
8.20753e-05
2.04306e-06
8.16827e-05
1.89371e-06
8.13149e-05
1.7585e-06
8.09703e-05
1.6345e-06
8.06475e-05
1.52127e-06
8.03448e-05
1.41751e-06
8.00608e-05
1.32357e-06
7.97942e-05
1.23707e-06
7.95437e-05
1.15744e-06
7.93083e-05
1.08458e-06
7.90867e-05
1.01728e-06
7.88781e-05
9.55244e-07
7.86815e-05
8.98126e-07
7.84961e-05
8.45227e-07
7.83211e-05
7.96163e-07
7.81558e-05
7.50574e-07
7.79996e-05
7.08227e-07
7.78519e-05
6.68902e-07
7.77121e-05
6.32088e-07
7.75798e-05
5.97655e-07
7.74545e-05
5.65356e-07
7.73359e-05
5.34985e-07
7.72235e-05
5.06281e-07
7.7117e-05
4.79017e-07
7.70163e-05
4.52978e-07
7.69211e-05
4.27929e-07
7.68312e-05
4.03652e-07
7.67465e-05
3.79835e-07
7.6667e-05
3.56306e-07
7.65926e-05
3.32744e-07
7.65234e-05
3.08854e-07
7.64596e-05
2.84261e-07
7.64014e-05
2.58724e-07
7.6349e-05
2.31808e-07
7.63029e-05
2.0325e-07
7.62634e-05
1.72516e-07
7.62312e-05
1.3923e-07
7.62068e-05
1.02998e-07
7.61911e-05
6.30321e-08
7.61849e-05
1.90708e-08
7.61893e-05
-3.04104e-08
7.62054e-05
-8.49063e-08
7.62345e-05
-1.4702e-07
7.62782e-05
-2.15793e-07
7.63384e-05
-2.95247e-07
7.6417e-05
-3.8431e-07
7.64809e-05
-3.08583e-07
7.65533e-05
-3.47963e-07
7.6634e-05
-3.87535e-07
7.6723e-05
-4.28659e-07
7.68209e-05
-4.71778e-07
7.69275e-05
-5.16011e-07
7.70435e-05
-5.62612e-07
7.71684e-05
-6.09689e-07
7.73033e-05
-6.61616e-07
7.74476e-05
-7.12041e-07
7.7603e-05
-7.71692e-07
7.77682e-05
-8.25874e-07
7.79468e-05
-8.98662e-07
7.81355e-05
-9.55964e-07
7.83413e-05
-1.05636e-06
7.8557e-05
-1.11142e-06
7.87957e-05
-1.27257e-06
7.90445e-05
-1.30839e-06
7.93264e-05
-1.59666e-06
7.96213e-05
-1.59578e-06
7.997e-05
-2.1065e-06
8.03328e-05
-2.16653e-06
8.08139e-05
-3.01084e-06
8.12913e-05
-3.48416e-06
-5.61621e-06
8.19869e-05
0.00010044
-4.63528e-05
0.00010605
-1.87319e-05
0.000108475
-4.7035e-06
0.000109178
2.41985e-06
0.000109334
3.94412e-06
0.000109062
5.0546e-06
0.000108639
5.00683e-06
0.000108092
4.99721e-06
0.000107497
4.73987e-06
0.000106873
4.48627e-06
0.000106245
4.19675e-06
0.000105624
3.91698e-06
0.000105019
3.64264e-06
0.000104436
3.38797e-06
0.000103877
3.14297e-06
0.000103346
2.91914e-06
0.000102841
2.71306e-06
0.000102364
2.52029e-06
0.000101913
2.34454e-06
0.000101487
2.18388e-06
0.000101086
2.03533e-06
0.000100709
1.89888e-06
0.000100353
1.77319e-06
0.000100018
1.65871e-06
9.97018e-05
1.55285e-06
9.94041e-05
1.45501e-06
9.91235e-05
1.36517e-06
9.88587e-05
1.28199e-06
9.86088e-05
1.2051e-06
9.83728e-05
1.13411e-06
9.81498e-05
1.06821e-06
9.7939e-05
1.00699e-06
9.77396e-05
9.50013e-07
9.75508e-05
8.96994e-07
9.73721e-05
8.47672e-07
9.72028e-05
8.01463e-07
9.70424e-05
7.58189e-07
9.68903e-05
7.17554e-07
9.67461e-05
6.79306e-07
9.66094e-05
6.43127e-07
9.64798e-05
6.08741e-07
9.63571e-05
5.7588e-07
9.6241e-05
5.44257e-07
9.61313e-05
5.13596e-07
9.60279e-05
4.8352e-07
9.59306e-05
4.53803e-07
9.58397e-05
4.24049e-07
9.5755e-05
3.93885e-07
9.56767e-05
3.62862e-07
9.56052e-05
3.30657e-07
9.55407e-05
2.96751e-07
9.54838e-05
2.60783e-07
9.54348e-05
2.22123e-07
9.53946e-05
1.80278e-07
9.53637e-05
1.34781e-07
9.53434e-05
8.46086e-08
9.53344e-05
2.94671e-08
9.53382e-05
-3.25316e-08
9.53558e-05
-1.00748e-07
9.53892e-05
-1.78509e-07
9.54399e-05
-2.64395e-07
9.55103e-05
-3.63601e-07
9.56026e-05
-4.74526e-07
9.56779e-05
-3.81608e-07
9.57632e-05
-4.3079e-07
9.58584e-05
-4.80254e-07
9.59636e-05
-5.31396e-07
9.60793e-05
-5.84914e-07
9.62053e-05
-6.39743e-07
9.63424e-05
-6.97401e-07
9.64901e-05
-7.55584e-07
9.66495e-05
-8.19477e-07
9.682e-05
-8.81612e-07
9.70036e-05
-9.54547e-07
9.71988e-05
-1.02115e-06
9.74093e-05
-1.10955e-06
9.76321e-05
-1.18016e-06
9.78739e-05
-1.3004e-06
9.81286e-05
-1.37016e-06
9.84076e-05
-1.55794e-06
9.87014e-05
-1.61189e-06
9.90277e-05
-1.93625e-06
9.93758e-05
-1.96206e-06
9.97731e-05
-2.52661e-06
0.000100199
-2.62041e-06
0.000100723
-3.56838e-06
0.00010128
-4.0738e-06
-6.28294e-06
0.00010194
0.000122639
-6.19038e-05
0.000129517
-2.56104e-05
0.000132596
-7.78176e-06
0.000133627
1.38844e-06
0.00013401
3.56133e-06
0.000133877
5.18742e-06
0.000133558
5.3258e-06
0.00013308
5.47573e-06
0.00013253
5.28924e-06
0.000131932
5.08493e-06
0.000131312
4.81664e-06
0.000130684
4.54419e-06
0.000130061
4.26565e-06
0.00012945
3.99959e-06
0.000128855
3.73718e-06
0.000128281
3.493e-06
0.00012773
3.26421e-06
0.000127203
3.0472e-06
0.000126701
2.84712e-06
0.000126222
2.66209e-06
0.000125768