/*--------------------------------*- C++ -*----------------------------------*\
| =========                 |                                                 |
| \\      /  F ield         | OpenFOAM: The Open Source CFD Toolbox           |
|  \\    /   O peration     | Version:  2306                                  |
|   \\  /    A nd           | Website:  www.openfoam.com                      |
|    \\/     M anipulation  |                                                 |
\*---------------------------------------------------------------------------*/
FoamFile
{
    version     2.0;
    format      ascii;
    arch        "LSB;label=32;scalar=64";
    class       volSymmTensorField;
    location    "1900";
    object      turbulenceProperties:devReff;
}
// * * * * * * * * * * * * * * * * * * * * * * * * * * * * * * * * * * * * * //

dimensions      [0 2 -2 0 0 0 0];

internalField   nonuniform List<symmTensor> 
20540
(
(45.5035 -80.1208 -0 -45.5029 -0 -0.000585762)
(99.1487 -92.2921 -0 -93.1538 -0 -5.99486)
(45.4556 -167.128 -0 -45.456 -0 0.000375549)
(34.2041 -192.619 -0 -39.7356 -0 5.53148)
(45.3908 -180.078 -0 -45.3909 -0 0.000145978)
(-0.151276 -207.732 -0 -1.05484 -0 1.20611)
(45.3061 -191.471 -0 -45.3061 -0 -1.24017e-05)
(-14.5528 -221.134 -0 15.3491 -0 -0.796247)
(45.1969 -201.246 -0 -45.1969 -0 -4.48877e-05)
(-20.9244 -232.757 -0 21.3627 -0 -0.438244)
(45.0581 -209.303 -0 -45.058 -0 -3.79497e-05)
(-24.9255 -242.493 -0 24.9879 -0 -0.062394)
(44.8831 -215.791 -0 -44.8831 -0 -4.94319e-05)
(-28.0189 -250.528 -0 28.0048 -0 0.014132)
(44.6647 -220.887 -0 -44.6646 -0 -7.41635e-05)
(-30.4753 -257.085 -0 30.472 -0 0.00337829)
(44.3936 -224.757 -0 -44.3935 -0 -0.000110144)
(-32.4384 -262.379 -0 32.4416 -0 -0.00321501)
(44.0591 -227.541 -0 -44.059 -0 -0.000162235)
(-34.0296 -266.598 -0 34.0317 -0 -0.00207042)
(43.6482 -229.345 -0 -43.648 -0 -0.000238865)
(-35.3254 -269.896 -0 35.3256 -0 -0.000186647)
(43.1453 -230.245 -0 -43.145 -0 -0.000351959)
(-36.3647 -272.4 -0 36.3638 -0 0.000937272)
(42.5317 -230.284 -0 -42.5311 -0 -0.000518878)
(-37.1644 -274.205 -0 37.1625 -0 0.00187785)
(41.785 -229.481 -0 -41.7842 -0 -0.000765259)
(-37.727 -275.38 -0 37.724 -0 0.00308991)
(40.8789 -227.825 -0 -40.8778 -0 -0.00112893)
(-38.0442 -275.971 -0 38.0393 -0 0.00480653)
(39.7822 -225.283 -0 -39.7806 -0 -0.00166555)
(-38.0975 -275.996 -0 38.0902 -0 0.00727407)
(38.4585 -221.794 -0 -38.456 -0 -0.00245668)
(-37.8596 -275.447 -0 37.8488 -0 0.0108574)
(36.8657 -217.279 -0 -36.8621 -0 -0.00362152)
(-37.294 -274.289 -0 37.2779 -0 0.0160933)
(34.9564 -211.634 -0 -34.9511 -0 -0.00533394)
(-36.355 -272.449 -0 36.3313 -0 0.0237663)
(32.6785 -204.738 -0 -32.6707 -0 -0.00784559)
(-34.9882 -269.816 -0 34.9532 -0 0.0350316)
(29.9776 -196.455 -0 -29.9661 -0 -0.0115092)
(-33.1308 -266.225 -0 33.0792 -0 0.0516022)
(26.8012 -186.641 -0 -26.7844 -0 -0.0167921)
(-30.7138 -261.447 -0 30.6378 -0 0.0760106)
(23.1076 -175.153 -0 -23.0832 -0 -0.0243219)
(-27.666 -255.172 -0 27.554 -0 0.111966)
(18.879 -161.865 -0 -18.8438 -0 -0.0351806)
(-23.9214 -246.991 -0 23.7565 -0 0.164839)
(14.1443 -146.684 -0 -14.0927 -0 -0.0515708)
(-19.431 -236.374 -0 19.1884 -0 0.242644)
(9.01467 -129.581 -0 -8.93865 -0 -0.0760234)
(-14.1788 -222.64 -0 13.8186 -0 0.360161)
(3.74355 -110.619 -0 -3.64036 -0 -0.103191)
(-8.20224 -204.918 -0 7.65459 -0 0.547645)
(-1.19021 -89.9881 -0 1.29537 -0 -0.105158)
(-1.63615 -182.057 -0 0.789277 -0 0.846874)
(-5.04612 -67.9448 -0 5.11099 -0 -0.0648733)
(5.15682 -152.365 -0 -6.40009 -0 1.24327)
(-6.91164 -44.3869 -0 6.93329 -0 -0.0216518)
(11.386 -113.12 -0 -12.9881 -0 1.60214)
(-6.70634 -23.412 -0 6.81707 -0 -0.110726)
(15.2206 -66.2023 -0 -16.9997 -0 1.77915)
(-5.495 -5.94528 -0 5.71382 -0 -0.218816)
(16.596 -19.7032 -0 -18.347 -0 1.75101)
(-5.59119 7.7353 -0 5.80243 -0 -0.211245)
(16.5516 25.2504 -0 -18.3067 -0 1.75512)
(-6.72188 25.6202 -0 6.81172 -0 -0.0898421)
(15.0575 71.9851 -0 -16.8109 -0 1.75331)
(-6.70349 46.493 -0 6.72526 -0 -0.0217712)
(11.1134 118.021 -0 -12.6552 -0 1.54177)
(-4.63523 69.6251 -0 4.70398 -0 -0.0687517)
(4.9865 155.848 -0 -6.17213 -0 1.18564)
(-0.667569 91.3377 -0 0.772774 -0 -0.105205)
(-1.66108 184.932 -0 0.846278 -0 0.814799)
(4.32057 111.786 -0 -4.22014 -0 -0.100439)
(-8.13132 207.551 -0 7.59533 -0 0.535984)
(9.62949 130.688 -0 -9.55559 -0 -0.0739007)
(-14.0794 225.226 -0 13.7205 -0 0.358907)
(14.8055 147.846 -0 -14.7546 -0 -0.0508398)
(-19.3637 239.041 -0 19.1182 -0 0.245566)
(19.6038 163.181 -0 -19.5685 -0 -0.0352893)
(-23.9336 249.81 -0 23.7644 -0 0.1692)
(23.9126 176.704 -0 -23.8879 -0 -0.0247718)
(-27.7922 258.178 -0 27.6756 -0 0.116582)
(27.6988 188.489 -0 -27.6814 -0 -0.0173403)
(-30.9774 264.652 -0 30.8971 -0 0.0803261)
(30.9748 198.645 -0 -30.9628 -0 -0.0120495)
(-33.5465 269.63 -0 33.4912 -0 0.0553753)
(33.7781 207.299 -0 -33.7698 -0 -0.00832932)
(-35.5645 273.416 -0 35.5263 -0 0.0381935)
(36.1573 214.583 -0 -36.1516 -0 -0.00574182)
(-37.0959 276.239 -0 37.0696 -0 0.0263462)
(38.1643 220.626 -0 -38.1604 -0 -0.00395171)
(-38.2012 278.268 -0 38.1831 -0 0.0181631)
(39.8494 225.544 -0 -39.8467 -0 -0.0027165)
(-38.9339 279.62 -0 38.9214 -0 0.0125023)
(41.2591 229.438 -0 -41.2573 -0 -0.00186588)
(-39.3396 280.375 -0 39.331 -0 0.00857853)
(42.4349 232.393 -0 -42.4336 -0 -0.00128108)
(-39.4562 280.578 -0 39.4504 -0 0.00584815)
(43.413 234.472 -0 -43.4121 -0 -0.000879508)
(-39.3134 280.247 -0 39.3095 -0 0.00393256)
(44.2247 235.718 -0 -44.2241 -0 -0.000603909)
(-38.9329 279.374 -0 38.9304 -0 0.00257097)
(44.8969 236.151 -0 -44.8965 -0 -0.000414797)
(-38.3284 277.931 -0 38.3268 -0 0.00158463)
(45.4521 235.77 -0 -45.4518 -0 -0.000285017)
(-37.5044 275.866 -0 37.5036 -0 0.000782298)
(45.9095 234.548 -0 -45.9093 -0 -0.000195942)
(-36.4552 273.105 -0 36.4555 -0 -0.000261874)
(46.2852 232.432 -0 -46.2851 -0 -0.000134789)
(-35.1617 269.547 -0 35.1638 -0 -0.00208029)
(46.5927 229.342 -0 -46.5926 -0 -9.26831e-05)
(-33.5828 265.068 -0 33.5859 -0 -0.00311172)
(46.8434 225.166 -0 -46.8433 -0 -6.3346e-05)
(-31.6407 259.511 -0 31.6372 -0 0.00348606)
(47.0465 219.762 -0 -47.0465 -0 -4.32251e-05)
(-29.2135 252.689 -0 29.2002 -0 0.0132301)
(47.2102 212.955 -0 -47.2102 -0 -3.37532e-05)
(-26.1562 244.382 -0 26.2221 -0 -0.0658479)
(47.3409 204.553 -0 -47.3409 -0 -3.76163e-05)
(-22.1868 234.354 -0 22.6255 -0 -0.438739)
(47.4443 194.371 -0 -47.4443 -0 -1.17964e-05)
(-15.81 222.381 -0 16.5801 -0 -0.770121)
(47.5251 182.303 -0 -47.5252 -0 0.000127406)
(-1.36552 208.337 -0 0.137963 -0 1.22756)
(47.5872 168.571 -0 -47.5876 -0 0.00038376)
(33.0698 192.471 -0 -38.4307 -0 5.36085)
(47.6328 80.6744 -0 -47.6323 -0 -0.000572238)
(96.985 92.0645 -0 -91.144 -0 -5.84099)
(0.00520119 -9.50166 -0 -0.00414729 -0 -0.0010539)
(0.00116508 -7.08166 -0 -0.00123153 -0 6.64463e-05)
(0.000374828 -6.39793 -0 -0.000404877 -0 3.00482e-05)
(0.000236893 -5.90835 -0 -0.000244794 -0 7.90049e-06)
(0.000167251 -5.61977 -0 -0.000173042 -0 5.7906e-06)
(0.000135475 -5.37355 -0 -0.000138165 -0 2.69034e-06)
(0.000110603 -5.19289 -0 -0.000113145 -0 2.5422e-06)
(9.61155e-05 -5.03724 -0 -9.7853e-05 -0 1.73751e-06)
(8.40886e-05 -4.90891 -0 -8.56472e-05 -0 1.55857e-06)
(7.53833e-05 -4.79725 -0 -7.66574e-05 -0 1.27409e-06)
(6.82167e-05 -4.7008 -0 -6.93398e-05 -0 1.12317e-06)
(6.24598e-05 -4.61536 -0 -6.3442e-05 -0 9.82219e-07)
(5.75768e-05 -4.53994 -0 -5.84517e-05 -0 8.74938e-07)
(5.35365e-05 -4.4722 -0 -5.43228e-05 -0 7.86223e-07)
(4.9913e-05 -4.41144 -0 -5.0622e-05 -0 7.09069e-07)
(4.68489e-05 -4.35658 -0 -4.74954e-05 -0 6.46425e-07)
(4.41839e-05 -4.30673 -0 -4.4776e-05 -0 5.92156e-07)
(4.17563e-05 -4.26131 -0 -4.23002e-05 -0 5.43966e-07)
(3.96278e-05 -4.21986 -0 -4.01308e-05 -0 5.02971e-07)
(3.77492e-05 -4.18179 -0 -3.82171e-05 -0 4.67843e-07)
(3.60411e-05 -4.14681 -0 -3.64768e-05 -0 4.35685e-07)
(3.44914e-05 -4.11453 -0 -3.48994e-05 -0 4.0798e-07)
(3.30769e-05 -4.08473 -0 -3.34598e-05 -0 3.82916e-07)
(3.18245e-05 -4.05712 -0 -3.21866e-05 -0 3.62142e-07)
(3.06646e-05 -4.03148 -0 -3.10069e-05 -0 3.42321e-07)
(2.9597e-05 -4.00765 -0 -2.99227e-05 -0 3.25623e-07)
(2.863e-05 -3.98545 -0 -2.89404e-05 -0 3.10412e-07)
(2.77292e-05 -3.96472 -0 -2.80266e-05 -0 2.97354e-07)
(2.68997e-05 -3.94536 -0 -2.71851e-05 -0 2.85337e-07)
(2.61409e-05 -3.92724 -0 -2.64165e-05 -0 2.75544e-07)
(2.54347e-05 -3.91026 -0 -2.5701e-05 -0 2.66286e-07)
(2.47774e-05 -3.89431 -0 -2.50362e-05 -0 2.58762e-07)
(2.41617e-05 -3.87934 -0 -2.44137e-05 -0 2.51978e-07)
(2.35894e-05 -3.86526 -0 -2.38363e-05 -0 2.46941e-07)
(2.30597e-05 -3.852 -0 -2.33025e-05 -0 2.4279e-07)
(2.25551e-05 -3.8395 -0 -2.2795e-05 -0 2.3983e-07)
(2.20779e-05 -3.82772 -0 -2.23157e-05 -0 2.37796e-07)
(2.16239e-05 -3.8166 -0 -2.1861e-05 -0 2.37018e-07)
(2.11891e-05 -3.80611 -0 -2.14262e-05 -0 2.37102e-07)
(2.07654e-05 -3.7962 -0 -2.10035e-05 -0 2.38172e-07)
(2.03455e-05 -3.78684 -0 -2.05856e-05 -0 2.40106e-07)
(1.99226e-05 -3.778 -0 -2.01656e-05 -0 2.43064e-07)
(1.94858e-05 -3.76968 -0 -1.97327e-05 -0 2.46944e-07)
(1.90261e-05 -3.76183 -0 -1.9278e-05 -0 2.51935e-07)
(1.85247e-05 -3.75446 -0 -1.87827e-05 -0 2.5798e-07)
(1.79705e-05 -3.74755 -0 -1.82359e-05 -0 2.65373e-07)
(1.73411e-05 -3.74111 -0 -1.76153e-05 -0 2.74149e-07)
(1.66146e-05 -3.73514 -0 -1.68992e-05 -0 2.8458e-07)
(1.57543e-05 -3.72964 -0 -1.60511e-05 -0 2.96803e-07)
(1.47387e-05 -3.72465 -0 -1.5051e-05 -0 3.12215e-07)
(1.35169e-05 -3.72019 -0 -1.38493e-05 -0 3.32365e-07)
(1.2059e-05 -3.71628 -0 -1.24219e-05 -0 3.62874e-07)
(1.02938e-05 -3.71298 -0 -1.06998e-05 -0 4.06024e-07)
(8.1795e-06 -3.71034 -0 -8.65873e-06 -0 4.79234e-07)
(5.62712e-06 -3.70842 -0 -6.19296e-06 -0 5.65845e-07)
(2.57399e-06 -3.7073 -0 -3.26993e-06 -0 6.95936e-07)
(-1.07794e-06 -3.70705 -0 2.52992e-07 -0 8.24951e-07)
(-5.55903e-06 -3.70777 -0 4.59659e-06 -0 9.62439e-07)
(-1.0913e-05 -3.70962 -0 9.82319e-06 -0 1.08986e-06)
(-1.73526e-05 -3.71265 -0 1.6126e-05 -0 1.22657e-06)
(-2.51871e-05 -3.7171 -0 2.38921e-05 -0 1.29502e-06)
(-3.49579e-05 -3.72308 -0 3.35468e-05 -0 1.41114e-06)
(-4.71985e-05 -3.731 -0 4.57392e-05 -0 1.45932e-06)
(-5.85065e-05 -3.73939 -0 5.60669e-05 -0 2.43968e-06)
(-6.80519e-05 -3.74707 -0 6.43963e-05 -0 3.65565e-06)
(-7.92087e-05 -3.75555 -0 7.56123e-05 -0 3.59631e-06)
(-9.29238e-05 -3.76487 -0 8.9302e-05 -0 3.6218e-06)
(-0.000107851 -3.77528 -0 0.000103811 -0 4.03958e-06)
(-0.000124999 -3.78661 -0 0.000121083 -0 3.9158e-06)
(-0.000143664 -3.79908 -0 0.000139465 -0 4.19947e-06)
(-0.000165882 -3.81255 -0 0.000162465 -0 3.41622e-06)
(-0.000190622 -3.82731 -0 0.000187553 -0 3.06903e-06)
(-0.000219782 -3.84324 -0 0.000218503 -0 1.27803e-06)
(-0.000253146 -3.86055 -0 0.000252356 -0 7.89278e-07)
(-0.000291485 -3.87945 -0 0.000293805 -0 -2.32001e-06)
(-0.000337092 -3.89963 -0 0.000339172 -0 -2.08043e-06)
(-0.000387505 -3.92232 -0 0.000395609 -0 -8.10315e-06)
(-0.00045477 -3.94561 -0 0.000462915 -0 -8.14507e-06)
(-0.000521974 -3.97348 -0 0.00054469 -0 -2.27155e-05)
(-0.000637165 -3.99979 -0 0.00066175 -0 -2.45848e-05)
(-0.00072635 -4.03626 -0 0.000787525 -0 -6.11758e-05)
(-0.0009627 -4.06419 -0 0.00101989 -0 -5.71867e-05)
(-0.00110131 -4.11892 -0 0.00125036 -0 -0.000149047)
(-0.00159945 -4.14578 -0 0.00171124 -0 -0.000111796)
(-0.0022117 -4.23735 -0 0.00250895 -0 -0.00029725)
(-0.00269045 -4.2882 -0 0.00298592 -0 -0.00029547)
(-0.00633088 -4.38745 -0 0.00725741 -0 -0.000926527)
(-0.037612 -4.71679 2.60185e-21 0.0349136 -0 0.0026984)
(0.00590609 -9.68315 -0 -0.00668308 -0 0.000776993)
(0.00205614 -6.18213 -0 -0.00196896 -0 -8.71761e-05)
(0.00102011 -5.61077 -0 -0.00101034 -0 -9.77091e-06)
(0.000702339 -5.20091 -0 -0.000696377 -0 -5.96207e-06)
(0.000505129 -4.9572 -0 -0.000503891 -0 -1.23796e-06)
(0.000414072 -4.75189 -0 -0.000411055 -0 -3.01716e-06)
(0.000339107 -4.60091 -0 -0.000337328 -0 -1.77806e-06)
(0.000295718 -4.47202 -0 -0.000293636 -0 -2.08237e-06)
(0.00025916 -4.36588 -0 -0.000257441 -0 -1.71918e-06)
(0.000232698 -4.27394 -0 -0.000231036 -0 -1.66246e-06)
(0.000210837 -4.19467 -0 -0.000209323 -0 -1.51452e-06)
(0.000193245 -4.12461 -0 -0.000191826 -0 -1.41897e-06)
(0.000178305 -4.06285 -0 -0.000176981 -0 -1.32449e-06)
(0.000165928 -4.00747 -0 -0.000164683 -0 -1.24479e-06)
(0.000154816 -3.95783 -0 -0.000153645 -0 -1.17071e-06)
(0.000145408 -3.91306 -0 -0.000144302 -0 -1.10604e-06)
(0.000137221 -3.87239 -0 -0.000136172 -0 -1.04927e-06)
(0.000129758 -3.83535 -0 -0.000128763 -0 -9.95248e-07)
(0.000123208 -3.80157 -0 -0.000122259 -0 -9.48661e-07)
(0.000117422 -3.77055 -0 -0.000116517 -0 -9.05524e-07)
(0.000112161 -3.74205 -0 -0.000111294 -0 -8.66724e-07)
(0.000107383 -3.71575 -0 -0.000106552 -0 -8.30221e-07)
(0.000103019 -3.69148 -0 -0.000102222 -0 -7.97378e-07)
(9.91513e-05 -3.66898 -0 -9.83842e-05 -0 -7.67074e-07)
(9.55702e-05 -3.64809 -0 -9.48311e-05 -0 -7.39084e-07)
(9.22699e-05 -3.62868 -0 -9.15574e-05 -0 -7.1254e-07)
(8.92803e-05 -3.61059 -0 -8.85917e-05 -0 -6.88596e-07)
(8.64925e-05 -3.5937 -0 -8.58272e-05 -0 -6.65305e-07)
(8.39249e-05 -3.57792 -0 -8.32809e-05 -0 -6.44041e-07)
(8.15732e-05 -3.56315 -0 -8.09494e-05 -0 -6.23732e-07)
(7.93849e-05 -3.54931 -0 -7.87803e-05 -0 -6.04626e-07)
(7.73458e-05 -3.53631 -0 -7.67597e-05 -0 -5.86092e-07)
(7.54357e-05 -3.5241 -0 -7.48674e-05 -0 -5.68285e-07)
(7.36571e-05 -3.51261 -0 -7.31062e-05 -0 -5.50885e-07)
(7.20109e-05 -3.5018 -0 -7.14769e-05 -0 -5.34031e-07)
(7.04416e-05 -3.4916 -0 -6.99246e-05 -0 -5.16964e-07)
(6.89565e-05 -3.48199 -0 -6.84563e-05 -0 -5.00147e-07)
(6.75429e-05 -3.47292 -0 -6.70597e-05 -0 -4.83176e-07)
(6.61889e-05 -3.46435 -0 -6.57228e-05 -0 -4.66102e-07)
(6.487e-05 -3.45625 -0 -6.44213e-05 -0 -4.48666e-07)
(6.35645e-05 -3.44861 -0 -6.31337e-05 -0 -4.30748e-07)
(6.22515e-05 -3.44139 -0 -6.18395e-05 -0 -4.12012e-07)
(6.0899e-05 -3.43458 -0 -6.05066e-05 -0 -3.9237e-07)
(5.94795e-05 -3.42816 -0 -5.91081e-05 -0 -3.7142e-07)
(5.79373e-05 -3.42212 -0 -5.75887e-05 -0 -3.4856e-07)
(5.62392e-05 -3.41646 -0 -5.59156e-05 -0 -3.23631e-07)
(5.43186e-05 -3.41117 -0 -5.40226e-05 -0 -2.95985e-07)
(5.21101e-05 -3.40625 -0 -5.18456e-05 -0 -2.64565e-07)
(4.95033e-05 -3.40171 -0 -4.92751e-05 -0 -2.28123e-07)
(4.64342e-05 -3.39757 -0 -4.62497e-05 -0 -1.84423e-07)
(4.27484e-05 -3.39384 -0 -4.26195e-05 -0 -1.28928e-07)
(3.8353e-05 -3.39055 -0 -3.82975e-05 -0 -5.55804e-08)
(3.3035e-05 -3.38773 -0 -3.30787e-05 -0 4.3711e-08)
(2.66487e-05 -3.38542 -0 -2.68289e-05 -0 1.80262e-07)
(1.89708e-05 -3.38366 -0 -1.93218e-05 -0 3.50949e-07)
(9.74406e-06 -3.38252 -0 -1.03016e-05 -0 5.57506e-07)
(-1.19329e-06 -3.38204 -0 3.96178e-07 -0 7.97116e-07)
(-1.45921e-05 -3.3823 -0 1.35505e-05 -0 1.04158e-06)
(-3.05127e-05 -3.38341 -0 2.92019e-05 -0 1.31083e-06)
(-4.96701e-05 -3.38542 -0 4.8119e-05 -0 1.5511e-06)
(-7.26498e-05 -3.38849 -0 7.08037e-05 -0 1.84604e-06)
(-0.000101193 -3.3927 -0 9.89727e-05 -0 2.2201e-06)
(-0.000136154 -3.39833 -0 0.00013359 -0 2.5642e-06)
(-0.000169839 -3.40428 -0 0.000166127 -0 3.71285e-06)
(-0.000199413 -3.40978 -0 0.000193882 -0 5.53174e-06)
(-0.000231954 -3.41592 -0 0.00022642 -0 5.53387e-06)
(-0.000270762 -3.42264 -0 0.000264614 -0 6.14797e-06)
(-0.000313833 -3.43015 -0 0.00030709 -0 6.74307e-06)
(-0.000361855 -3.43831 -0 0.000354669 -0 7.18604e-06)
(-0.000415373 -3.4473 -0 0.000407883 -0 7.49025e-06)
(-0.00047627 -3.45699 -0 0.000468851 -0 7.41886e-06)
(-0.000545463 -3.46758 -0 0.000538379 -0 7.0845e-06)
(-0.000622881 -3.47898 -0 0.000616985 -0 5.89554e-06)
(-0.000714122 -3.49129 -0 0.000708611 -0 5.51056e-06)
(-0.00081254 -3.5047 -0 0.000809954 -0 2.58562e-06)
(-0.000936017 -3.51887 -0 0.000933175 -0 2.84201e-06)
(-0.00105907 -3.53477 -0 0.00106272 -0 -3.64938e-06)
(-0.00123943 -3.5509 -0 0.00124396 -0 -4.53017e-06)
(-0.00138674 -3.57029 -0 0.00140687 -0 -2.01251e-05)
(-0.00169673 -3.58807 -0 0.0017218 -0 -2.50721e-05)
(-0.00184142 -3.61349 -0 0.00190463 -0 -6.32114e-05)
(-0.0024958 -3.63116 -0 0.00256172 -0 -6.59242e-05)
(-0.00260131 -3.66958 -0 0.0027576 -0 -0.000156289)
(-0.0039543 -3.68288 -0 0.00409936 -0 -0.000145065)
(-0.00490708 -3.74687 -0 0.00517429 -0 -0.000267218)
(-0.00573076 -3.76362 -0 0.00659775 -0 -0.000866983)
(-0.0149374 -3.83748 -0 0.0127739 -0 0.00216351)
(-0.00954457 -4.00366 -7.35808e-21 0.00925685 -0 0.000287722)
(0.00463443 -12.1312 -0 -0.00690647 -0 0.00227204)
(0.00283498 -7.75343 -0 -0.00282377 -0 -1.12181e-05)
(0.00222922 -6.88471 -0 -0.00222789 -0 -1.33442e-06)
(0.0017177 -6.30088 -0 -0.00172244 -0 4.74218e-06)
(0.00125546 -5.94302 -0 -0.00126708 -0 1.16206e-05)
(0.00102845 -5.64329 -0 -0.0010354 -0 6.95593e-06)
(0.000836328 -5.41886 -0 -0.000843648 -0 7.31994e-06)
(0.000723638 -5.22809 -0 -0.000729219 -0 5.58165e-06)
(0.000629189 -5.07012 -0 -0.000634351 -0 5.16217e-06)
(0.000560766 -4.93356 -0 -0.000565224 -0 4.4576e-06)
(0.000504626 -4.81581 -0 -0.00050866 -0 4.03423e-06)
(0.000459606 -4.7119 -0 -0.00046325 -0 3.64356e-06)
(0.000421668 -4.62046 -0 -0.000424995 -0 3.32661e-06)
(0.000390333 -4.53859 -0 -0.000393396 -0 3.06297e-06)
(0.000362466 -4.46538 -0 -0.000365293 -0 2.82731e-06)
(0.000338944 -4.39948 -0 -0.000341572 -0 2.62834e-06)
(0.000318574 -4.33974 -0 -0.000321029 -0 2.455e-06)
(0.000300143 -4.28546 -0 -0.000302443 -0 2.3009e-06)
(0.000284023 -4.23605 -0 -0.000286186 -0 2.16338e-06)
(0.000269833 -4.19077 -0 -0.000271877 -0 2.04391e-06)
(0.000256999 -4.14925 -0 -0.000258935 -0 1.93599e-06)
(0.000245391 -4.11102 -0 -0.00024723 -0 1.83912e-06)
(0.000234835 -4.07579 -0 -0.000236586 -0 1.75127e-06)
(0.000225491 -4.04322 -0 -0.000227164 -0 1.67324e-06)
(0.000216881 -4.01301 -0 -0.000218484 -0 1.60328e-06)
(0.000208971 -3.98498 -0 -0.00021051 -0 1.53879e-06)
(0.00020182 -3.95891 -0 -0.000203302 -0 1.48169e-06)
(0.000195175 -3.93461 -0 -0.000196604 -0 1.42902e-06)
(0.00018907 -3.91194 -0 -0.000190452 -0 1.38165e-06)
(0.000183487 -3.89074 -0 -0.000184825 -0 1.33866e-06)
(0.000178306 -3.8709 -0 -0.000179607 -0 1.3003e-06)
(0.000173489 -3.8523 -0 -0.000174754 -0 1.26509e-06)
(0.000168988 -3.83485 -0 -0.000170222 -0 1.23382e-06)
(0.000164803 -3.81845 -0 -0.000166009 -0 1.20592e-06)
(0.000160934 -3.80303 -0 -0.000162116 -0 1.18182e-06)
(0.000157257 -3.7885 -0 -0.000158418 -0 1.16067e-06)
(0.000153785 -3.77482 -0 -0.000154927 -0 1.14226e-06)
(0.000150487 -3.76192 -0 -0.000151613 -0 1.1265e-06)
(0.000147336 -3.74975 -0 -0.000148449 -0 1.11309e-06)
(0.000144276 -3.73825 -0 -0.000145378 -0 1.10161e-06)
(0.000141261 -3.7274 -0 -0.000142352 -0 1.09171e-06)
(0.00013824 -3.71716 -0 -0.000139323 -0 1.08297e-06)
(0.000135147 -3.70749 -0 -0.000136222 -0 1.07512e-06)
(0.000131917 -3.69838 -0 -0.000132985 -0 1.06773e-06)
(0.000128429 -3.6898 -0 -0.000129489 -0 1.05973e-06)
(0.000124612 -3.68175 -0 -0.000125663 -0 1.05101e-06)
(0.000120322 -3.6742 -0 -0.000121363 -0 1.04122e-06)
(0.000115413 -3.66717 -0 -0.000116442 -0 1.0294e-06)
(0.000109649 -3.66065 -0 -0.000110664 -0 1.01483e-06)
(0.000102887 -3.65466 -0 -0.000103886 -0 9.98401e-07)
(9.47983e-05 -3.64922 -0 -9.57812e-05 -0 9.82873e-07)
(8.51794e-05 -3.64434 -0 -8.61592e-05 -0 9.79811e-07)
(7.35618e-05 -3.64006 -0 -7.45514e-05 -0 9.89621e-07)
(5.96233e-05 -3.63643 -0 -6.06648e-05 -0 1.04158e-06)
(4.28789e-05 -3.63349 -0 -4.39904e-05 -0 1.11144e-06)
(2.27503e-05 -3.63131 -0 -2.39579e-05 -0 1.20763e-06)
(-1.14899e-06 -3.62996 -0 -1.5695e-07 -0 1.30594e-06)
(-3.02115e-05 -3.62949 -0 2.88803e-05 -0 1.33128e-06)
(-6.49247e-05 -3.63008 -0 6.35556e-05 -0 1.36915e-06)
(-0.000106764 -3.63171 -0 0.00010559 -0 1.17394e-06)
(-0.000156471 -3.63462 -0 0.00015549 -0 9.80796e-07)
(-0.000218165 -3.63891 -0 0.000217471 -0 6.93398e-07)
(-0.000293152 -3.6448 -0 0.000293095 -0 5.6938e-08)
(-0.000366663 -3.65105 -0 0.000365375 -0 1.28845e-06)
(-0.00043322 -3.65694 -0 0.000429501 -0 3.71946e-06)
(-0.000504004 -3.66372 -0 0.000501162 -0 2.84244e-06)
(-0.0005873 -3.67114 -0 0.000584509 -0 2.791e-06)
(-0.000680759 -3.67943 -0 0.000678242 -0 2.51684e-06)
(-0.000784907 -3.68844 -0 0.000782818 -0 2.08973e-06)
(-0.00090108 -3.6984 -0 0.000900071 -0 1.0093e-06)
(-0.00103176 -3.70909 -0 0.00103226 -0 -4.99e-07)
(-0.00118108 -3.7208 -0 0.00118424 -0 -3.15841e-06)
(-0.00134507 -3.73328 -0 0.0013517 -0 -6.62665e-06)
(-0.00154164 -3.74678 -0 0.00155123 -0 -9.59342e-06)
(-0.00174882 -3.76128 -0 0.00176448 -0 -1.56509e-05)
(-0.00201612 -3.77667 -0 0.00203399 -0 -1.78733e-05)
(-0.00227315 -3.79363 -0 0.00230177 -0 -2.86189e-05)
(-0.00266829 -3.81103 -0 0.00270198 -0 -3.36917e-05)
(-0.00296259 -3.83144 -0 0.00301956 -0 -5.69667e-05)
(-0.00365352 -3.85056 -0 0.00372391 -0 -7.03837e-05)
(-0.00388728 -3.87707 -0 0.00401362 -0 -0.000126342)
(-0.00536283 -3.89557 -0 0.00549429 -0 -0.000131458)
(-0.00534523 -3.93552 -0 0.00562962 -0 -0.000284386)
(-0.00841078 -3.9487 -0 0.00859749 -0 -0.000186711)
(-0.00970138 -4.01544 -0 0.0103224 -0 -0.00062103)
(-0.0117262 -4.02264 -0 0.0122088 -0 -0.000482599)
(-0.0324755 -4.15979 -0 0.0320253 -0 0.000450208)
(-0.0210573 -3.88185 -0 0.0329168 -0 -0.0118595)
(-0.015961 -11.9026 -0 0.0154495 -0 0.000511462)
(0.00136306 -7.74735 -0 -0.0013305 -0 -3.25593e-05)
(0.0032738 -6.85243 -0 -0.00325685 -0 -1.69465e-05)
(0.00313519 -6.34018 -0 -0.00311945 -0 -1.57406e-05)
(0.00242833 -6.03114 -0 -0.00243121 -0 2.87401e-06)
(0.00205338 -5.77459 -0 -0.00205346 -0 8.11307e-08)
(0.00169278 -5.57922 -0 -0.0016963 -0 3.52246e-06)
(0.00147881 -5.41269 -0 -0.00148122 -0 2.4087e-06)
(0.0012934 -5.27329 -0 -0.00129638 -0 2.98222e-06)
(0.00115793 -5.15221 -0 -0.00116063 -0 2.70361e-06)
(0.00104547 -5.04715 -0 -0.00104817 -0 2.70258e-06)
(0.000954748 -4.95396 -0 -0.000957343 -0 2.59507e-06)
(0.000877863 -4.8716 -0 -0.000880372 -0 2.50839e-06)
(0.00081409 -4.79751 -0 -0.000816515 -0 2.4255e-06)
(0.000757184 -4.73103 -0 -0.000759518 -0 2.33426e-06)
(0.000708968 -4.67095 -0 -0.000711222 -0 2.25333e-06)
(0.000667131 -4.61631 -0 -0.000669306 -0 2.17524e-06)
(0.000629196 -4.5665 -0 -0.000631297 -0 2.10089e-06)
(0.000595931 -4.52104 -0 -0.000597959 -0 2.02818e-06)
(0.000566603 -4.47924 -0 -0.000568568 -0 1.9646e-06)
(0.000540046 -4.44083 -0 -0.000541949 -0 1.90233e-06)
(0.00051599 -4.40536 -0 -0.000517835 -0 1.84516e-06)
(0.000494079 -4.37262 -0 -0.00049587 -0 1.7902e-06)
(0.000474655 -4.34227 -0 -0.000476396 -0 1.74152e-06)
(0.000456751 -4.31406 -0 -0.000458447 -0 1.69612e-06)
(0.000440284 -4.28785 -0 -0.000441937 -0 1.65347e-06)
(0.000425378 -4.26341 -0 -0.000426993 -0 1.61507e-06)
(0.000411521 -4.2406 -0 -0.0004131 -0 1.5794e-06)
(0.000398776 -4.21928 -0 -0.000400322 -0 1.54659e-06)
(0.000387109 -4.19932 -0 -0.000388626 -0 1.51709e-06)
(0.00037628 -4.18061 -0 -0.00037777 -0 1.49066e-06)
(0.000366203 -4.16304 -0 -0.00036767 -0 1.46676e-06)
(0.000356782 -4.14653 -0 -0.000358228 -0 1.44591e-06)
(0.000348015 -4.131 -0 -0.000349443 -0 1.42799e-06)
(0.000339903 -4.11638 -0 -0.000341316 -0 1.41365e-06)
(0.000332192 -4.10259 -0 -0.000333594 -0 1.40222e-06)
(0.000324904 -4.08959 -0 -0.000326298 -0 1.3934e-06)
(0.000317976 -4.07731 -0 -0.000319364 -0 1.38741e-06)
(0.000311353 -4.06572 -0 -0.000312737 -0 1.384e-06)
(0.000304918 -4.05475 -0 -0.000306301 -0 1.38291e-06)
(0.000298572 -4.0444 -0 -0.000299955 -0 1.38393e-06)
(0.000292211 -4.0346 -0 -0.000293598 -0 1.3871e-06)
(0.000285692 -4.02535 -0 -0.000287084 -0 1.3919e-06)
(0.000278882 -4.01661 -0 -0.00028028 -0 1.39861e-06)
(0.000271523 -4.00837 -0 -0.00027293 -0 1.40677e-06)
(0.000263466 -4.00061 -0 -0.000264882 -0 1.41608e-06)
(0.000254405 -3.99332 -0 -0.000255832 -0 1.42662e-06)
(0.000244036 -3.9865 -0 -0.000245475 -0 1.43892e-06)
(0.000231862 -3.98014 -0 -0.000233315 -0 1.45284e-06)
(0.000217575 -3.97427 -0 -0.000219048 -0 1.4724e-06)
(0.000200493 -3.96887 -0 -0.000201998 -0 1.50493e-06)
(0.000180165 -3.96399 -0 -0.000181733 -0 1.56805e-06)
(0.000155627 -3.95962 -0 -0.000157298 -0 1.67149e-06)
(0.00012613 -3.95582 -0 -0.000127984 -0 1.85327e-06)
(9.07068e-05 -3.9526 -0 -9.27916e-05 -0 2.08479e-06)
(4.80627e-05 -3.95004 -0 -5.04347e-05 -0 2.37201e-06)
(-2.75024e-06 -3.94816 -0 4.66795e-08 -0 2.70356e-06)
(-6.41379e-05 -3.94704 -0 6.12292e-05 -0 2.90876e-06)
(-0.000137423 -3.94678 -0 0.000134187 -0 3.23589e-06)
(-0.000226163 -3.94741 -0 0.000222812 -0 3.35169e-06)
(-0.00033093 -3.94902 -0 0.000327564 -0 3.36599e-06)
(-0.000459975 -3.95179 -0 0.000456507 -0 3.46801e-06)
(-0.000615456 -3.95579 -0 0.000611995 -0 3.46116e-06)
(-0.00077134 -3.96009 -0 0.000765462 -0 5.87772e-06)
(-0.000915058 -3.96422 -0 0.000905357 -0 9.70075e-06)
(-0.00106376 -3.96911 -0 0.00105507 -0 8.69217e-06)
(-0.001237 -3.97449 -0 0.00122775 -0 9.25352e-06)
(-0.00143202 -3.98052 -0 0.00142225 -0 9.76918e-06)
(-0.00164887 -3.98705 -0 0.0016389 -0 9.97341e-06)
(-0.00189075 -3.9943 -0 0.00188132 -0 9.425e-06)
(-0.00215962 -4.00201 -0 0.00215147 -0 8.14992e-06)
(-0.00246774 -4.01049 -0 0.00246189 -0 5.85342e-06)
(-0.00280051 -4.01939 -0 0.0027985 -0 2.01349e-06)
(-0.00320485 -4.02902 -0 0.00320489 -0 -3.54111e-08)
(-0.00362078 -4.03915 -0 0.00362813 -0 -7.34256e-06)
(-0.0041719 -4.04996 -0 0.00417957 -0 -7.67216e-06)
(-0.00467922 -4.06133 -0 0.00470158 -0 -2.23555e-05)
(-0.00550038 -4.07342 -0 0.00552603 -0 -2.56441e-05)
(-0.00604854 -4.08637 -0 0.0061099 -0 -6.13602e-05)
(-0.00750031 -4.09936 -0 0.00757319 -0 -7.28875e-05)
(-0.00781273 -4.1155 -0 0.00797158 -0 -0.000158855)
(-0.0109395 -4.12762 -0 0.0110967 -0 -0.000157148)
(-0.0103367 -4.15042 -0 0.0107074 -0 -0.000370716)
(-0.0170115 -4.16014 -0 0.0173277 -0 -0.000316234)
(-0.0173988 -4.19463 -0 0.0179988 -0 -0.00060007)
(-0.0248299 -4.18441 -0 0.0263359 -0 -0.00150596)
(-0.0525366 -4.30109 -0 0.0512882 -0 0.00124836)
(-0.0440827 -3.85149 -0 0.0404403 -0 0.00364248)
(-0.0580579 -11.6586 -0 0.0576328 -0 0.00042507)
(-0.00458914 -7.71392 -0 0.00461994 -0 -3.08001e-05)
(0.00337497 -6.73307 -0 -0.00336027 -0 -1.47047e-05)
(0.00460927 -6.19074 -0 -0.00457204 -0 -3.72219e-05)
(0.00384813 -5.87842 -0 -0.00383531 -0 -1.28152e-05)
(0.00339231 -5.63057 -0 -0.00337702 -0 -1.52942e-05)
(0.00284544 -5.44184 -0 -0.00283731 -0 -8.12915e-06)
(0.00251467 -5.28219 -0 -0.00250614 -0 -8.53626e-06)
(0.00221461 -5.14836 -0 -0.00220797 -0 -6.63944e-06)
(0.00199236 -5.03222 -0 -0.00198613 -0 -6.2287e-06)
(0.0018052 -4.93139 -0 -0.00179967 -0 -5.52792e-06)
(0.00165302 -4.84192 -0 -0.00164792 -0 -5.09971e-06)
(0.00152323 -4.76288 -0 -0.00151853 -0 -4.6952e-06)
(0.00141502 -4.69174 -0 -0.00141065 -0 -4.36629e-06)
(0.00131815 -4.62795 -0 -0.00131407 -0 -4.0747e-06)
(0.00123575 -4.57029 -0 -0.00123192 -0 -3.82146e-06)
(0.00116408 -4.51785 -0 -0.00116048 -0 -3.60422e-06)
(0.001099 -4.47008 -0 -0.00109559 -0 -3.40266e-06)
(0.00104178 -4.42648 -0 -0.00103855 -0 -3.22933e-06)
(0.00099125 -4.3864 -0 -0.000988179 -0 -3.07132e-06)
(0.000945448 -4.34958 -0 -0.000942519 -0 -2.92971e-06)
(0.000903911 -4.31559 -0 -0.000901112 -0 -2.79859e-06)
(0.000866027 -4.28422 -0 -0.000863348 -0 -2.67944e-06)
(0.00083239 -4.25514 -0 -0.000829819 -0 -2.57148e-06)
(0.000801384 -4.22812 -0 -0.000798913 -0 -2.47054e-06)
(0.000772838 -4.20302 -0 -0.000770462 -0 -2.37626e-06)
(0.000746966 -4.17963 -0 -0.000744677 -0 -2.28926e-06)
(0.000722912 -4.15779 -0 -0.000720705 -0 -2.20657e-06)
(0.000700768 -4.1374 -0 -0.000698638 -0 -2.12911e-06)
(0.000680479 -4.11829 -0 -0.000678423 -0 -2.05619e-06)
(0.000661643 -4.10039 -0 -0.000659657 -0 -1.98627e-06)
(0.000644107 -4.08359 -0 -0.000642188 -0 -1.91902e-06)
(0.000627705 -4.0678 -0 -0.000625852 -0 -1.85309e-06)
(0.00061243 -4.05295 -0 -0.000610642 -0 -1.78848e-06)
(0.000598284 -4.03897 -0 -0.00059656 -0 -1.72488e-06)
(0.000584842 -4.02579 -0 -0.000583181 -0 -1.66043e-06)
(0.000572129 -4.01336 -0 -0.000570534 -0 -1.59583e-06)
(0.000560037 -4.00162 -0 -0.000558507 -0 -1.53021e-06)
(0.00054847 -3.99054 -0 -0.000547006 -0 -1.46348e-06)
(0.00053723 -3.98006 -0 -0.000535835 -0 -1.39482e-06)
(0.000526139 -3.97016 -0 -0.000524816 -0 -1.32345e-06)
(0.000515019 -3.96079 -0 -0.00051377 -0 -1.24822e-06)
(0.000503619 -3.95193 -0 -0.00050245 -0 -1.1683e-06)
(0.000491703 -3.94356 -0 -0.000490621 -0 -1.08195e-06)
(0.000478825 -3.93566 -0 -0.000477838 -0 -9.86997e-07)
(0.00046472 -3.92821 -0 -0.000463838 -0 -8.82024e-07)
(0.000448853 -3.9212 -0 -0.000448089 -0 -7.6377e-07)
(0.000430687 -3.91462 -0 -0.000430059 -0 -6.28255e-07)
(0.000409369 -3.90847 -0 -0.000408899 -0 -4.69986e-07)
(0.000384338 -3.90275 -0 -0.000384058 -0 -2.79656e-07)
(0.000354426 -3.89746 -0 -0.000354388 -0 -3.82656e-08)
(0.000318813 -3.89262 -0 -0.000319099 -0 2.86104e-07)
(0.000275856 -3.88824 -0 -0.000276573 -0 7.17733e-07)
(0.00022418 -3.88435 -0 -0.000225507 -0 1.32646e-06)
(0.000162153 -3.88095 -0 -0.000164225 -0 2.07201e-06)
(8.74537e-05 -3.87811 -0 -9.04391e-05 -0 2.98541e-06)
(-1.7674e-06 -3.87584 -0 -2.28283e-06 -0 4.05024e-06)
(-0.000109379 -3.87419 -0 0.000104318 -0 5.06112e-06)
(-0.000237312 -3.87324 -0 0.000231033 -0 6.27833e-06)
(-0.00039259 -3.87304 -0 0.000385168 -0 7.42256e-06)
(-0.000576064 -3.87361 -0 0.000567389 -0 8.67498e-06)
(-0.000800632 -3.87507 -0 0.00079054 -0 1.00917e-05)
(-0.00106894 -3.87751 -0 0.00105737 -0 1.15747e-05)
(-0.00134065 -3.88027 -0 0.00132382 -0 1.68292e-05)
(-0.00159352 -3.88294 -0 0.00156966 -0 2.38595e-05)
(-0.00185254 -3.88626 -0 0.00182872 -0 2.38156e-05)
(-0.0021515 -3.88995 -0 0.00212538 -0 2.61251e-05)
(-0.00248868 -3.89416 -0 0.00245996 -0 2.87223e-05)
(-0.00286213 -3.89867 -0 0.0028313 -0 3.0835e-05)
(-0.00327978 -3.90375 -0 0.00324754 -0 3.22375e-05)
(-0.00373871 -3.90907 -0 0.00370628 -0 3.24334e-05)
(-0.00426756 -3.91503 -0 0.00423594 -0 3.16207e-05)
(-0.00482965 -3.92112 -0 0.00480133 -0 2.83199e-05)
(-0.00552117 -3.92784 -0 0.0054927 -0 2.84661e-05)
(-0.0062159 -3.93465 -0 0.00619559 -0 2.03091e-05)
(-0.0071573 -3.94216 -0 0.00713313 -0 2.41746e-05)
(-0.00799122 -3.94939 -0 0.0079868 -0 4.41709e-06)
(-0.00939623 -3.95778 -0 0.00938923 -0 6.99975e-06)
(-0.0102614 -3.96533 -0 0.0103069 -0 -4.55194e-05)
(-0.0127386 -3.97453 -0 0.012788 -0 -4.93536e-05)
(-0.0131203 -3.98243 -0 0.0133057 -0 -0.000185384)
(-0.018358 -3.99351 -0 0.0185171 -0 -0.000159073)
(-0.0170643 -3.99981 -0 0.0175653 -0 -0.000500985)
(-0.0280167 -4.01774 -0 0.0283821 -0 -0.000365413)
(-0.0275365 -4.01346 -0 0.0283515 -0 -0.000814969)
(-0.0414359 -4.02588 -0 0.0434034 -0 -0.00196749)