/*--------------------------------*- C++ -*----------------------------------*\
| =========                 |                                                 |
| \\      /  F ield         | OpenFOAM: The Open Source CFD Toolbox           |
|  \\    /   O peration     | Version:  2306                                  |
|   \\  /    A nd           | Website:  www.openfoam.com                      |
|    \\/     M anipulation  |                                                 |
\*---------------------------------------------------------------------------*/
FoamFile
{
    version     2.0;
    format      ascii;
    arch        "LSB;label=32;scalar=64";
    class       volVectorField;
    location    "1900";
    object      U;
}
// * * * * * * * * * * * * * * * * * * * * * * * * * * * * * * * * * * * * * //

dimensions      [0 1 -1 0 0 0 0];

internalField   nonuniform List<vector> 
20540
(
(28.6416 0.0011027 0)
(27.7434 0.00211987 0)
(28.6588 0.00353749 0)
(27.7606 0.00556079 0)
(28.6813 0.00647932 0)
(27.7832 0.00650168 0)
(28.7105 0.0100325 0)
(27.8125 0.0056717 0)
(28.7478 0.014322 0)
(27.85 0.00401415 0)
(28.795 0.0194978 0)
(27.8974 0.00167391 0)
(28.8541 0.0257386 0)
(27.9569 -0.00153172 0)
(28.9275 0.0332572 0)
(28.0309 -0.00580803 0)
(29.0181 0.0423061 0)
(28.1225 -0.0113639 0)
(29.1294 0.0531835 0)
(28.2351 -0.0184507 0)
(29.2655 0.0662391 0)
(28.3732 -0.0273796 0)
(29.4313 0.0818804 0)
(28.5417 -0.038525 0)
(29.6323 0.100578 0)
(28.7469 -0.0523276 0)
(29.8754 0.122866 0)
(28.996 -0.0692979 0)
(30.1684 0.149344 0)
(29.2977 -0.0900164 0)
(30.5204 0.180668 0)
(29.662 -0.115128 0)
(30.9416 0.21753 0)
(30.101 -0.145327 0)
(31.4439 0.260623 0)
(30.6284 -0.181323 0)
(32.0405 0.310579 0)
(31.2603 -0.223786 0)
(32.7456 0.367868 0)
(32.0148 -0.273259 0)
(33.5749 0.432646 0)
(32.9121 -0.330018 0)
(34.5444 0.50452 0)
(33.9744 -0.393866 0)
(35.6705 0.582209 0)
(35.2247 -0.463853 0)
(36.9687 0.663064 0)
(36.6864 -0.537874 0)
(38.4532 0.742381 0)
(38.3806 -0.612149 0)
(40.1352 0.812468 0)
(40.3234 -0.680531 0)
(42.0232 0.861429 0)
(42.5212 -0.733505 0)
(44.1223 0.872029 0)
(44.9631 -0.756566 0)
(46.4365 0.821588 0)
(47.6074 -0.727798 0)
(48.9624 0.680643 0)
(50.3476 -0.616255 0)
(51.2631 0.441002 0)
(52.6046 -0.406749 0)
(52.7607 0.122849 0)
(53.8775 -0.125962 0)
(52.6474 -0.247463 0)
(53.7865 0.188207 0)
(51.0123 -0.554575 0)
(52.3655 0.463106 0)
(48.6748 -0.780013 0)
(50.0395 0.661816 0)
(46.1766 -0.908405 0)
(47.3106 0.76611 0)
(43.8814 -0.950841 0)
(44.6781 0.792897 0)
(41.7889 -0.934694 0)
(42.2402 0.770226 0)
(39.8961 -0.881413 0)
(40.0362 0.718241 0)
(38.1991 -0.80742 0)
(38.0773 0.650534 0)
(36.6913 -0.724173 0)
(36.3585 0.576233 0)
(35.3633 -0.639202 0)
(34.8658 0.501403 0)
(34.2029 -0.557205 0)
(33.5801 0.429895 0)
(33.1962 -0.480907 0)
(32.4801 0.36396 0)
(32.3285 -0.411691 0)
(31.5442 0.304719 0)
(31.5849 -0.350048 0)
(30.7515 0.252529 0)
(30.9509 -0.295907 0)
(30.0828 0.207255 0)
(30.4128 -0.248861 0)
(29.5205 0.168464 0)
(29.958 -0.20832 0)
(29.0491 0.135568 0)
(29.575 -0.173616 0)
(28.6549 0.107912 0)
(29.2535 -0.144064 0)
(28.3261 0.0848361 0)
(28.9846 -0.119009 0)
(28.0524 0.0657139 0)
(28.7604 -0.0978384 0)
(27.8252 0.0499689 0)
(28.574 -0.0800013 0)
(27.6371 0.0370863 0)
(28.4195 -0.0650074 0)
(27.4817 0.0266149 0)
(28.292 -0.0524275 0)
(27.3537 0.0181652 0)
(28.1871 -0.0418894 0)
(27.2487 0.0114056 0)
(28.1013 -0.0330731 0)
(27.1629 0.00606028 0)
(28.0314 -0.0257051 0)
(27.0931 0.00190546 0)
(27.9748 -0.0195531 0)
(27.0367 -0.00124562 0)
(27.9294 -0.0144199 0)
(26.9915 -0.0035784 0)
(27.8933 -0.0101396 0)
(26.9556 -0.00525587 0)
(27.8649 -0.00657218 0)
(26.9274 -0.00612576 0)
(27.8429 -0.0036001 0)
(26.9056 -0.0052837 0)
(27.8262 -0.00112485 0)
(26.8889 -0.00202394 0)
(9.24646 0.000502439 0)
(6.22321 0.00034041 0)
(5.56716 4.29027e-05 0)
(5.11683 8.28641e-06 0)
(4.85681 4.74332e-06 0)
(4.63546 1.78233e-06 0)
(4.47454 1.75634e-06 0)
(4.33602 1.15844e-06 0)
(4.22232 1.11015e-06 0)
(4.12354 9.53635e-07 0)
(4.03842 8.94171e-07 0)
(3.96312 8.32199e-07 0)
(3.89675 7.8934e-07 0)
(3.83722 7.524e-07 0)
(3.78387 7.17339e-07 0)
(3.73576 6.90045e-07 0)
(3.69207 6.6515e-07 0)
(3.65229 6.4004e-07 0)
(3.61603 6.20402e-07 0)
(3.58273 6.01169e-07 0)
(3.55216 5.83475e-07 0)
(3.52396 5.66939e-07 0)
(3.49794 5.52782e-07 0)
(3.47385 5.40014e-07 0)
(3.45147 5.27793e-07 0)
(3.43069 5.17111e-07 0)
(3.41134 5.08269e-07 0)
(3.39327 4.99532e-07 0)
(3.37641 4.92497e-07 0)
(3.36062 4.86724e-07 0)
(3.34583 4.81416e-07 0)
(3.33196 4.77021e-07 0)
(3.31892 4.73461e-07 0)
(3.30667 4.71908e-07 0)
(3.29514 4.71046e-07 0)
(3.28427 4.71056e-07 0)
(3.27402 4.7214e-07 0)
(3.26436 4.74473e-07 0)
(3.25524 4.77412e-07 0)
(3.24662 4.80974e-07 0)
(3.2385 4.84886e-07 0)
(3.23082 4.88761e-07 0)
(3.2236 4.92976e-07 0)
(3.21679 4.9685e-07 0)
(3.2104 4.9898e-07 0)
(3.20441 5.00581e-07 0)
(3.19884 5.01295e-07 0)
(3.19368 4.99123e-07 0)
(3.18894 4.93675e-07 0)
(3.18465 4.84311e-07 0)
(3.18082 4.6983e-07 0)
(3.17749 4.61203e-07 0)
(3.1747 4.46447e-07 0)
(3.17251 4.69538e-07 0)
(3.17096 4.75777e-07 0)
(3.17013 5.47933e-07 0)
(3.1701 5.5739e-07 0)
(3.17094 5.75788e-07 0)
(3.1728 4.91083e-07 0)
(3.17575 3.6439e-07 0)
(3.17999 5.69332e-08 0)
(3.18562 -4.51294e-07 0)
(3.19305 -1.45096e-06 0)
(3.20092 -4.91408e-07 0)
(3.20814 6.0142e-07 0)
(3.21606 1.8677e-07 0)
(3.22476 -8.29804e-07 0)
(3.23448 -1.22493e-06 0)
(3.24508 -2.74274e-06 0)
(3.25674 -3.40348e-06 0)
(3.26936 -6.1259e-06 0)
(3.28318 -8.2788e-06 0)
(3.29814 -1.27093e-05 0)
(3.31442 -1.58719e-05 0)
(3.33226 -2.24326e-05 0)
(3.35137 -2.55639e-05 0)
(3.37295 -3.63255e-05 0)
(3.39525 -4.12836e-05 0)
(3.42198 -6.40151e-05 0)
(3.44753 -7.346e-05 0)
(3.4827 -0.000130529 0)
(3.51066 -0.000125622 0)
(3.56358 -0.000306676 0)
(3.59276 -0.000162215 0)
(3.68313 -0.000887451 0)
(3.74173 0.000648302 0)
(3.85796 -0.00666896 0)
(4.11627 -0.0393624 0)
(23.0084 0.00495836 0)
(18.7011 0.00199196 0)
(17.0334 0.000755966 0)
(15.7974 0.000460165 0)
(15.0574 0.000327325 0)
(14.4229 0.000260371 0)
(13.9541 0.000213606 0)
(13.5492 0.000184391 0)
(13.2142 0.000161401 0)
(12.9221 0.000144324 0)
(12.6692 0.000130486 0)
(12.4448 0.000119311 0)
(12.2465 0.000109863 0)
(12.0681 0.000102045 0)
(11.9079 9.50434e-05 0)
(11.7632 8.91285e-05 0)
(11.6315 8.3985e-05 0)
(11.5114 7.93064e-05 0)
(11.4018 7.52055e-05 0)
(11.3011 7.15918e-05 0)
(11.2084 6.8305e-05 0)
(11.1229 6.53286e-05 0)
(11.0439 6.26113e-05 0)
(10.9707 6.02107e-05 0)
(10.9027 5.79856e-05 0)
(10.8394 5.59425e-05 0)
(10.7805 5.40904e-05 0)
(10.7254 5.23697e-05 0)
(10.674 5.07838e-05 0)
(10.6258 4.93368e-05 0)
(10.5807 4.79892e-05 0)
(10.5383 4.67385e-05 0)
(10.4985 4.55672e-05 0)
(10.461 4.44808e-05 0)
(10.4257 4.34765e-05 0)
(10.3925 4.25227e-05 0)
(10.3611 4.16219e-05 0)
(10.3315 4.07678e-05 0)
(10.3036 3.99519e-05 0)
(10.2772 3.91596e-05 0)
(10.2523 3.83772e-05 0)
(10.2287 3.7593e-05 0)
(10.2065 3.67859e-05 0)
(10.1856 3.59402e-05 0)
(10.166 3.50227e-05 0)
(10.1475 3.4012e-05 0)
(10.1304 3.28667e-05 0)
(10.1144 3.15494e-05 0)
(10.0997 2.99922e-05 0)
(10.0864 2.81613e-05 0)
(10.0744 2.59682e-05 0)
(10.0639 2.3365e-05 0)
(10.055 2.02413e-05 0)
(10.0479 1.65312e-05 0)
(10.0426 1.20717e-05 0)
(10.0394 6.7582e-06 0)
(10.0386 3.95981e-07 0)
(10.0402 -7.49688e-06 0)
(10.0448 -1.69361e-05 0)
(10.0525 -2.83209e-05 0)
(10.0639 -4.23525e-05 0)
(10.0793 -5.95855e-05 0)
(10.0998 -8.10989e-05 0)
(10.1214 -9.97484e-05 0)
(10.1413 -0.000114379 0)
(10.1632 -0.000134972 0)
(10.1873 -0.000159306 0)
(10.2142 -0.00018519 0)
(10.2434 -0.000215896 0)
(10.2756 -0.00024895 0)
(10.3104 -0.000290147 0)
(10.3485 -0.000335118 0)
(10.3896 -0.000390997 0)
(10.4341 -0.000451399 0)
(10.4827 -0.000526794 0)
(10.5345 -0.000607397 0)
(10.5926 -0.000711174 0)
(10.652 -0.000831104 0)
(10.723 -0.000983742 0)
(10.7897 -0.00119467 0)
(10.8824 -0.00142915 0)
(10.952 -0.00186201 0)
(11.0908 -0.00224538 0)
(11.1549 -0.00321195 0)
(11.3842 -0.00417143 0)
(11.502 -0.00691681 0)
(11.7245 -0.00721901 0)
(12.629 -0.0125672 0)
(28.4263 0.00806797 0)
(26.752 0.00351671 0)
(25.3323 0.00187013 0)
(23.9397 0.00131155 0)
(23.0572 0.000968299 0)
(22.2743 0.000792988 0)
(21.6865 0.00065747 0)
(21.1729 0.000574556 0)
(20.7442 0.000506589 0)
(20.3679 0.000456301 0)
(20.0401 0.000414923 0)
(19.7478 0.000381383 0)
(19.4882 0.000352816 0)
(19.2539 0.000329081 0)
(19.0425 0.000307672 0)
(18.851 0.000289512 0)
(18.6761 0.000273667 0)
(18.5162 0.000259178 0)
(18.3699 0.000246432 0)
(18.235 0.00023516 0)
(18.1106 0.000224883 0)
(17.9956 0.000215534 0)
(17.8892 0.00020698 0)
(17.7903 0.000199394 0)
(17.6983 0.000192358 0)
(17.6126 0.000185867 0)
(17.5326 0.000179982 0)
(17.4578 0.000174489 0)
(17.3878 0.000169426 0)
(17.3222 0.000164787 0)
(17.2606 0.000160469 0)
(17.2027 0.000156443 0)
(17.1482 0.000152672 0)
(17.097 0.000149162 0)
(17.0486 0.000145916 0)
(17.003 0.000142823 0)
(16.96 0.000139897 0)
(16.9193 0.000137115 0)
(16.8809 0.000134452 0)
(16.8446 0.000131859 0)
(16.8103 0.000129292 0)
(16.7778 0.00012671 0)
(16.7472 0.000124047 0)
(16.7184 0.000121249 0)
(16.6912 0.000118202 0)
(16.6657 0.00011484 0)
(16.642 0.000111028 0)
(16.6199 0.000106634 0)
(16.5996 0.000101435 0)
(16.581 9.53085e-05 0)
(16.5644 8.7953e-05 0)
(16.5498 7.92153e-05 0)
(16.5374 6.86735e-05 0)
(16.5273 5.61259e-05 0)
(16.5198 4.10387e-05 0)
(16.5153 2.29793e-05 0)
(16.5138 1.46757e-06 0)
(16.5158 -2.50722e-05 0)
(16.5219 -5.68157e-05 0)
(16.5322 -9.54008e-05 0)
(16.5475 -0.000141758 0)
(16.5683 -0.000199488 0)
(16.5959 -0.000271051 0)
(16.625 -0.00033452 0)
(16.6519 -0.000386748 0)
(16.6816 -0.000453943 0)
(16.7143 -0.00053207 0)
(16.7507 -0.000618475 0)
(16.7903 -0.000716657 0)
(16.8338 -0.000825857 0)
(16.8808 -0.000953524 0)
(16.9321 -0.00109887 0)
(16.9874 -0.00126627 0)
(17.0471 -0.00145768 0)
(17.1124 -0.00167664 0)
(17.1814 -0.00193091 0)
(17.2593 -0.00221779 0)
(17.3382 -0.00259436 0)
(17.4335 -0.00297723 0)
(17.5212 -0.00363908 0)
(17.6464 -0.00413739 0)
(17.735 -0.00547276 0)
(17.9247 -0.00622866 0)
(17.9953 -0.00873576 0)
(18.3148 -0.0119961 0)
(18.4146 -0.0139301 0)
(18.7918 -0.0294797 0)
(19.7312 -0.0644735 0)
(30.6813 0.00763868 0)
(30.7982 0.00417252 0)
(30.0474 0.00290814 0)
(28.794 0.00229695 0)
(27.9343 0.00175868 0)
(27.1294 0.00147423 0)
(26.5143 0.00123406 0)
(25.9702 0.0010878 0)
(25.513 0.000964253 0)
(25.1098 0.000872713 0)
(24.7574 0.00079658 0)
(24.4425 0.000734643 0)
(24.1621 0.000681603 0)
(23.9087 0.000637406 0)
(23.6798 0.000597358 0)
(23.4721 0.000563287 0)
(23.2824 0.000533498 0)
(23.1088 0.000506167 0)
(22.9496 0.000482064 0)
(22.8029 0.00046071 0)
(22.6676 0.000441203 0)
(22.5424 0.000423419 0)
(22.4264 0.000407111 0)
(22.3186 0.000392628 0)
(22.2182 0.000379179 0)
(22.1247 0.000366745 0)
(22.0374 0.000355459 0)
(21.9557 0.000344908 0)
(21.8793 0.000335168 0)
(21.8075 0.000326234 0)
(21.7402 0.000317907 0)
(21.6769 0.000310134 0)
(21.6173 0.000302842 0)
(21.5612 0.000296045 0)
(21.5083 0.000289751 0)
(21.4584 0.000283745 0)
(21.4113 0.000278054 0)
(21.3668 0.000272633 0)
(21.3247 0.000267436 0)
(21.2849 0.000262367 0)
(21.2473 0.000257339 0)
(21.2118 0.000252272 0)
(21.1782 0.000247037 0)
(21.1466 0.000241526 0)
(21.1168 0.000235513 0)
(21.0889 0.000228869 0)
(21.0628 0.000221327 0)
(21.0386 0.000212625 0)
(21.0163 0.000202323 0)
(20.996 0.00019017 0)
(20.9777 0.000175573 0)
(20.9617 0.000158202 0)
(20.9481 0.000137221 0)
(20.9371 0.000112146 0)
(20.9289 8.19922e-05 0)
(20.9238 4.57775e-05 0)
(20.9223 2.63798e-06 0)
(20.9245 -5.02726e-05 0)
(20.9311 -0.000113453 0)
(20.9425 -0.000190338 0)
(20.9594 -0.000281992 0)
(20.9822 -0.000395534 0)
(21.0124 -0.000534712 0)
(21.0442 -0.000663133 0)
(21.0736 -0.00077318 0)
(21.1063 -0.00090526 0)
(21.1421 -0.00105752 0)
(21.1819 -0.00122731 0)
(21.2253 -0.00141845 0)
(21.2728 -0.00163181 0)
(21.3242 -0.0018762 0)
(21.3801 -0.00215547 0)
(21.4405 -0.00246956 0)
(21.5052 -0.00283522 0)
(21.5763 -0.00323984 0)
(21.6508 -0.00372826 0)
(21.7355 -0.00424715 0)
(21.8201 -0.00497301 0)
(21.924 -0.00562768 0)
(22.0166 -0.00690901 0)
(22.1538 -0.00763641 0)
(22.2438 -0.0102854 0)
(22.4528 -0.0110238 0)
(22.5125 -0.0162819 0)
(22.8656 -0.0201562 0)
(22.9208 -0.025745 0)
(23.3815 -0.0524096 0)
(24.055 -0.0761789 0)
(31.9248 0.00566587 0)
(33.0538 0.00397814 0)
(32.9662 0.00369091 0)
(31.9654 0.0033185 0)
(31.1982 0.00265175 0)
(30.4142 0.00227852 0)
(29.7982 0.00192649 0)
(29.2422 0.00171071 0)
(28.77 0.00152262 0)
(28.3505 0.00138245 0)
(27.9821 0.00126469 0)
(27.6518 0.00116847 0)
(27.3571 0.00108572 0)
(27.0901 0.00101657 0)
(26.8488 0.000953754 0)
(26.6294 0.000900184 0)
(26.4289 0.00085329 0)
(26.2452 0.000810203 0)
(26.0768 0.000772144 0)
(25.9215 0.000738394 0)
(25.7781 0.00070754 0)
(25.6454 0.000679383 0)
(25.5224 0.000653538 0)
(25.4082 0.000630564 0)
(25.3017 0.000609227 0)
(25.2025 0.000589482 0)
(25.1099 0.000571547 0)
(25.0232 0.000554774 0)
(24.9421 0.000539279 0)
(24.866 0.000525057 0)
(24.7945 0.000511798 0)
(24.7273 0.000499414 0)
(24.664 0.00048779 0)
(24.6045 0.000476947 0)
(24.5483 0.000466898 0)
(24.4953 0.000457307 0)
(24.4452 0.000448213 0)
(24.3979 0.000439543 0)
(24.3532 0.000431224 0)
(24.311 0.000423105 0)
(24.271 0.000415048 0)
(24.2333 0.000406919 0)
(24.1976 0.000398518 0)
(24.164 0.000389666 0)
(24.1324 0.000380002 0)
(24.1027 0.000369319 0)
(24.075 0.000357187 0)
(24.0493 0.000343183 0)
(24.0255 0.000326605 0)
(24.0039 0.000307039 0)
(23.9845 0.000283539 0)
(23.9674 0.000255545 0)
(23.9528 0.000221724 0)
(23.941 0.00018122 0)
(23.9322 0.000132509 0)
(23.9268 7.3919e-05 0)
(23.9249 4.02681e-06 0)
(23.9272 -8.13718e-05 0)
(23.934 -0.000183242 0)
(23.9458 -0.000307283 0)
(23.9634 -0.000454734 0)
(23.9873 -0.000636696 0)
(24.019 -0.000857958 0)
(24.0521 -0.00106679 0)
(24.083 -0.00124994 0)
(24.1172 -0.00146173 0)
(24.1547 -0.00170476 0)
(24.1964 -0.00197671 0)
(24.2417 -0.00228164 0)
(24.2914 -0.00262244 0)
(24.3452 -0.00300837 0)
(24.4033 -0.00345062 0)
(24.4664 -0.00394054 0)
(24.5336 -0.00451821 0)
(24.6077 -0.0051432 0)
(24.6845 -0.00591721 0)
(24.7726 -0.00670771 0)
(24.8594 -0.0078613 0)
(24.9673 -0.00882121 0)
(25.0613 -0.0108643 0)
(25.2037 -0.0118021 0)
(25.2927 -0.0160554 0)
(25.5076 -0.01661 0)
(25.5623 -0.0252078 0)
(25.9195 -0.0292594 0)
(25.9557 -0.0396791 0)
(26.4457 -0.0747799 0)
(26.8794 -0.1005 0)
(32.7548 0.00232518 0)
(34.4581 0.00296739 0)
(34.8977 0.0041011 0)
(34.1962 0.0043049 0)
(33.58 0.00362953 0)
(32.86 0.00322196 0)
(32.271 0.00276429 0)
(31.7224 0.0024793 0)
(31.2486 0.00221938 0)
(30.8228 0.00202339 0)
(30.446 0.00185624 0)
(30.1063 0.00171868 0)
(29.8018 0.0015996 0)
(29.5253 0.00149964 0)
(29.2747 0.00140852 0)
(29.0464 0.00133055 0)
(28.8376 0.00126216 0)
(28.646 0.00119923 0)
(28.4701 0.00114352 0)
(28.3078 0.00109406 0)
(28.1579 0.00104881 0)
(28.019 0.00100747 0)
(27.8903 0.000969484 0)
(27.7706 0.000935682 0)
(27.6591 0.000904285 0)
(27.5552 0.000875208 0)
(27.4581 0.000848776 0)
(27.3672 0.00082405 0)
(27.2821 0.000801196 0)
(27.2022 0.000780204 0)
(27.1272 0.000760631 0)
(27.0567 0.000742342 0)
(26.9903 0.000725171 0)
(26.9278 0.000709141 0)
(26.8689 0.000694277 0)
(26.8132 0.00068009 0)
(26.7607 0.000666633 0)
(26.711 0.000653795 0)
(26.6641 0.000641471 0)
(26.6197 0.00062944 0)
(26.5777 0.000617498 0)
(26.538 0.000605446 0)
(26.5006 0.000592988 0)
(26.4653 0.000579858 0)
(26.432 0.000565524 0)
(26.4009 0.000549677 0)
(26.3717 0.000531681 0)
(26.3446 0.000510908 0)
(26.3196 0.000486328 0)
(26.2969 0.000457309 0)
(26.2764 0.000422467 0)
(26.2583 0.000380937 0)
(26.2429 0.00033077 0)
(26.2304 0.00027061 0)
(26.2209 0.000198274 0)
(26.2149 0.000111193 0)
(26.2127 7.18348e-06 0)
(26.2147 -0.000119585 0)
(26.2215 -0.000270583 0)
(26.2334 -0.000454544 0)
(26.2514 -0.000672848 0)
(26.2758 -0.000941495 0)
(26.3082 -0.0012661 0)
(26.3421 -0.00157697 0)
(26.3737 -0.00185379 0)
(26.4088 -0.0021665 0)
(26.4473 -0.00252375 0)
(26.4899 -0.00292444 0)
(26.5364 -0.00337215 0)
(26.5872 -0.00387333 0)
(26.6423 -0.00443548 0)
(26.7016 -0.00508165 0)
(26.7661 -0.00578861 0)
(26.8344 -0.00663084 0)
(26.91 -0.00752502 0)
(26.9878 -0.00865494 0)
(27.0775 -0.00977324 0)
(27.1648 -0.0114576 0)
(27.2742 -0.012775 0)
(27.3682 -0.015753 0)
(27.5115 -0.0169207 0)
(27.6004 -0.0230953 0)
(27.8123 -0.0234018 0)
(27.8703 -0.0358639 0)
(28.2121 -0.0399984 0)
(28.2501 -0.0564251 0)
(28.7362 -0.0969696 0)
(29.0058 -0.138504 0)
(33.379 -0.00248405 0)
(35.4255 0.00112399 0)
(36.2415 0.00404114 0)
(35.8218 0.00513751 0)
(35.3874 0.00460948 0)
(34.7677 0.00426234 0)
(34.2339 0.00373043 0)
(33.7136 0.00339201 0)
(33.2535 0.00306161 0)
(32.8328 0.00280756 0)
(32.4561 0.00258603 0)
(32.1136 0.00240158 0)
(31.8047 0.00224028 0)
(31.5228 0.00210391 0)
(31.2663 0.00197894 0)
(31.0321 0.00187149 0)
(30.8172 0.00177694 0)
(30.6198 0.0016897 0)
(30.4383 0.00161229 0)
(30.2705 0.00154342 0)
(30.1154 0.00148031 0)
(29.9715 0.00142259 0)
(29.8381 0.00136948 0)
(29.714 0.00132215 0)
(29.5983 0.00127818 0)
(29.4903 0.00123742 0)
(29.3894 0.00120033 0)
(29.295 0.00116562 0)
(29.2065 0.00113352 0)
(29.1235 0.00110401 0)
(29.0454 0.00107648 0)
(28.9721 0.00105076 0)
(28.903 0.00102659 0)
(28.8379 0.00100402 0)
(28.7765 0.000983079 0)
(28.7186 0.000963091 0)
(28.6638 0.000944123 0)
(28.6121 0.000926021 0)
(28.5632 0.000908637 0)
(28.517 0.000891664 0)
(28.4732 0.000874814 0)
(28.4319 0.000857808 0)
(28.3929 0.000840232 0)
(28.356 0.000821706 0)
(28.3214 0.000801489 0)
(28.2888 0.000779143 0)
(28.2584 0.000753777 0)
(28.2301 0.000724497 0)
(28.204 0.000689876 0)
(28.1802 0.000648999 0)
(28.1587 0.000599947 0)
(28.1398 0.00054146 0)
(28.1235 0.000470835 0)
(28.1102 0.000386073 0)
(28.1001 0.000284199 0)
(28.0936 0.000161501 0)
(28.0909 1.48446e-05 0)
(28.0925 -0.000163681 0)
(28.099 -0.000375943 0)
(28.1108 -0.000634507 0)
(28.1288 -0.000941209 0)
(28.1533 -0.00131765 0)
(28.186 -0.00177025 0)
(28.2202 -0.00220767 0)
(28.2521 -0.00260108 0)
(28.2875 -0.00303924 0)
(28.3264 -0.00353732 0)
(28.3695 -0.0040969 0)
(28.4165 -0.00471999 0)
(28.4677 -0.00541881 0)
(28.5234 -0.00619603 0)
(28.5831 -0.00709202 0)
(28.6482 -0.0080623 0)
(28.7167 -0.00922667 0)
(28.7928 -0.0104445 0)
(28.8707 -0.0120066 0)
(28.9606 -0.0135153 0)
(29.0477 -0.0158379 0)
(29.1569 -0.0175795 0)
(29.2505 -0.0216564 0)
(29.3917 -0.0231175 0)
(29.4819 -0.0314554 0)
(29.6852 -0.0316261 0)
(29.7516 -0.0482536 0)
(30.0679 -0.0526412 0)
(30.1181 -0.0760262 0)
(30.5847 -0.119464 0)
(30.7469 -0.185017 0)
(33.8866 -0.00894709 0)
(36.1501 -0.00161073 0)
(37.2244 0.0034538 0)
(37.0374 0.00572461 0)
(36.784 0.00550051 0)
(36.2858 0.00533585 0)
(35.8303 0.00478645 0)
(35.3589 0.00443031 0)
(34.9288 0.00404385 0)
(34.526 0.00373825 0)
(34.1593 0.0034629 0)
(33.822 0.00322959 0)
(33.5147 0.00302239 0)
(33.2325 0.00284537 0)
(32.9743 0.00268182 0)
(32.7374 0.00254018 0)
(32.5193 0.00241492 0)
(32.3183 0.0022989 0)
(32.1331 0.00219558 0)
(31.9615 0.00210336 0)
(31.8027 0.00201867 0)
(31.6552 0.00194107 0)
(31.5182 0.00186955 0)
(31.3906 0.00180568 0)
(31.2715 0.00174629 0)
(31.1603 0.00169118 0)
(31.0564 0.00164095 0)
(30.959 0.00159393 0)
(30.8677 0.00155041 0)
(30.782 0.00151036 0)
(30.7014 0.00147299 0)
(30.6256 0.00143804 0)
(30.5543 0.0014052 0)
(30.487 0.00137451 0)
(30.4235 0.001346 0)
(30.3636 0.00131879 0)
(30.3069 0.00129297 0)
(30.2534 0.00126831 0)
(30.2028 0.00124462 0)
(30.1549 0.00122149 0)
(30.1096 0.00119853 0)
(30.0668 0.00117535 0)
(30.0264 0.00115141 0)
(29.9882 0.00112617 0)
(29.9523 0.00109865 0)
(29.9185 0.00106824 0)
(29.887 0.00103373 0)
(29.8576 0.000993915 0)
(29.8305 0.000946877 0)
(29.8057 0.000891339 0)
(29.7833 0.000824742 0)
(29.7635 0.000745316 0)
(29.7465 0.000649463 0)
(29.7324 0.000534369 0)
(29.7217 0.000396125 0)
(29.7145 0.000229565 0)
(29.7113 3.04438e-05 0)
(29.7125 -0.000211803 0)
(29.7186 -0.000499386 0)
(29.73 -0.000849508 0)
(29.7478 -0.00126459 0)
(29.7721 -0.00177322 0)
(29.8046 -0.00238224 0)
(29.8387 -0.00297406 0)
(29.8706 -0.00351018 0)
(29.906 -0.00410188 0)
(29.945 -0.00477124 0)
(29.988 -0.00552396 0)
(30.0351 -0.00635949 0)
(30.0862 -0.00729823 0)
(30.1419 -0.00833481 0)
(30.2015 -0.00953236 0)
(30.2664 -0.0108191 0)
(30.3347 -0.0123702 0)
(30.4105 -0.013974 0)
(30.4879 -0.016052 0)
(30.5772 -0.0180253 0)
(30.6636 -0.0210998 0)
(30.7714 -0.0233539 0)
(30.8645 -0.0286835 0)
(31.0019 -0.030566 0)
(31.0939 -0.0412462 0)
(31.2858 -0.0415608 0)
(31.3627 -0.062495 0)
(31.6505 -0.0674337 0)
(31.7148 -0.0988701 0)
(32.1573 -0.142994 0)
(32.2502 -0.236538 0)
(34.3225 -0.0173303 0)
(36.7291 -0.00533083 0)
(37.9797 0.00228791 0)
(37.9719 0.00600502 0)
(37.8777 0.00622359 0)
(37.5038 0.00637156 0)
(37.1399 0.00587769 0)
(36.7334 0.00555841 0)
(36.3484 0.00514568 0)
(35.9767 0.00480702 0)
(35.631 0.00448704 0)
(35.3078 0.00420908 0)
(35.0096 0.00395665 0)
(34.7331 0.00373771 0)
(34.478 0.00353292 0)
(34.2425 0.00335378 0)
(34.0246 0.00319411 0)
(33.823 0.00304538 0)
(33.6364 0.00291225 0)
(33.4632 0.00279287 0)
(33.3024 0.00268283 0)
(33.1527 0.00258175 0)
(33.0134 0.00248838 0)
(32.8835 0.00240473 0)
(32.7621 0.00232684 0)
(32.6487 0.00225446 0)
(32.5424 0.00218835 0)
(32.4428 0.00212643 0)
(32.3494 0.00206904 0)
(32.2616 0.00201616 0)
(32.179 0.00196678 0)
(32.1013 0.00192055 0)
(32.028 0.0018771 0)
(31.9589 0.00183647 0)
(31.8937 0.00179867 0)
(31.8321 0.00176259 0)
(31.7739 0.00172835 0)
(31.7189 0.00169563 0)
(31.6668 0.00166418 0)
(31.6175 0.00163347 0)
(31.5709 0.00160298 0)
(31.5268 0.00157221 0)
(31.4852 0.00154043 0)
(31.4458 0.00150693 0)
(31.4088 0.00147042 0)
(31.374 0.00143011 0)
(31.3414 0.0013844 0)
(31.3111 0.00133165 0)
(31.283 0.0012694 0)
(31.2574 0.00119592 0)
(31.2342 0.00110786 0)
(31.2136 0.00100284 0)
(31.1958 0.000876172 0)
(31.1811 0.000724042 0)
(31.1697 0.000541453 0)
(31.1619 0.000321404 0)
(31.1581 5.83756e-05 0)
(31.1587 -0.000261515 0)
(31.1643 -0.000640797 0)
(31.1753 -0.00110234 0)
(31.1926 -0.00164902 0)
(31.2164 -0.0023181 0)
(31.2486 -0.00311676 0)
(31.2823 -0.00389527 0)
(31.3139 -0.004604 0)
(31.349 -0.005382 0)
(31.3877 -0.00625823 0)
(31.4304 -0.00724357 0)
(31.4771 -0.00833481 0)
(31.5278 -0.00956176 0)
(31.583 -0.0109094 0)
(31.6421 -0.0124677 0)
(31.7065 -0.0141333 0)
(31.7741 -0.0161441 0)
(31.849 -0.0182082 0)
(31.9256 -0.0208961 0)
(32.0136 -0.0234227 0)
(32.0989 -0.027373 0)
(32.2046 -0.0302543 0)
(32.2969 -0.0369907 0)
(32.4297 -0.0394853 0)
(32.5234 -0.0526376 0)
(32.7031 -0.0535048 0)
(32.7895 -0.0788276 0)
(33.0509 -0.0846746 0)
(33.1263 -0.125294 0)
(33.5438 -0.168649 0)
(33.5957 -0.290775 0)
(34.7125 -0.027986 0)
(37.2151 -0.0101684 0)
(38.5868 0.000480606 0)
(38.7124 0.00593297 0)
(38.7479 0.00671784 0)
(38.4872 0.00730401 0)
(38.2162 0.00694185 0)
(37.8832 0.0067258 0)
(37.5544 0.00632964 0)
(37.2253 0.00598911 0)
(36.9112 0.00564445 0)
(36.6114 0.00533469 0)
(36.3304 0.00504445 0)
(36.0664 0.00478748 0)
(35.8204 0.00454269 0)
(35.5912 0.00432565 0)
(35.3777 0.00413 0)
(35.179 0.00394619 0)
(34.9942 0.00378052 0)
(34.8218 0.00363093 0)
(34.6613 0.00349227 0)
(34.5114 0.00336447 0)
(34.3716 0.003246 0)
(34.2408 0.00313943 0)
(34.1184 0.00303995 0)
(34.0037 0.0029473 0)
(33.8962 0.00286245 0)
(33.7953 0.00278289 0)
(33.7005 0.00270904 0)
(33.6113 0.00264085 0)
(33.5274 0.00257708 0)
(33.4483 0.00251732 0)
(33.3737 0.00246113 0)
(33.3033 0.00240851 0)
(33.2368 0.00235948 0)
(33.174 0.00231268 0)
(33.1145 0.00226824 0)
(33.0583 0.00222575 0)
(33.0051 0.00218488 0)
(32.9547 0.00214494 0)
(32.907 0.0021053 0)
(32.8619 0.00206529 0)
(32.8193 0.00202397 0)
(32.779 0.00198041 0)
(32.741 0.00193298 0)
(32.7053 0.00188062 0)
(32.6719 0.00182126 0)
(32.6407 0.00175278 0)
(32.6119 0.00167207 0)
(32.5855 0.00157678 0)
(32.5615 0.00146271 0)
(32.5403 0.00132661 0)
(32.5218 0.0011626 0)
(32.5064 0.000965586 0)
(32.4944 0.000729332 0)
(32.4859 0.000444521 0)
(32.4816 0.000104206 0)
(32.4816 -0.000309579 0)
(32.4866 -0.000799662 0)
(32.497 -0.00139592 0)
(32.5137 -0.00210126 0)
(32.5369 -0.00296386 0)
(32.5685 -0.00399078 0)
(32.6015 -0.00499353 0)
(32.6326 -0.00590976 0)
(32.6672 -0.00691219 0)
(32.7053 -0.00803676 0)
(32.7474 -0.00930056 0)
(32.7935 -0.010698 0)
(32.8436 -0.012269 0)
(32.8979 -0.0139882 0)
(32.9562 -0.0159755 0)
(33.0196 -0.0180932 0)
(33.0863 -0.0206477 0)
(33.1599 -0.0232597 0)
(33.2353 -0.0266639 0)
(33.3215 -0.0298501 0)
(33.4056 -0.0348133 0)
(33.5085 -0.0384663 0)
(33.5998 -0.0467669 0)
(33.7275 -0.0501233 0)
(33.8224 -0.0658532 0)
(33.9905 -0.067769 0)
(34.0838 -0.097562 0)
(34.3228 -0.104754 0)
(34.4052 -0.155396 0)
(34.7953 -0.1979 0)
(34.8294 -0.345351 0)
(35.0731 -0.0413532 0)
(37.6391 -0.0162974 0)
(39.0939 -0.00204919 0)
(39.3177 0.00546547 0)
(39.4541 0.00693566 0)
(39.289 0.0080804 0)
(39.1031 0.00791995 0)
(38.8435 0.00787571 0)
(38.5758 0.00754537 0)
(38.2966 0.00724363 0)
(38.0225 0.00690416 0)
(37.7547 0.00658487 0)
(37.4988 0.00627262 0)
(37.2546 0.00598855 0)
(37.024 0.00571088 0)
(36.8068 0.00546031 0)
(36.6025 0.00523087 0)
(36.411 0.00501265 0)
(36.2316 0.00481411 0)
(36.0634 0.00463312 0)
(35.9059 0.00446401 0)
(35.7582 0.00430733 0)
(35.62 0.00416143 0)
(35.4902 0.0040294 0)
(35.3684 0.00390573 0)
(35.2541 0.00379012 0)
(35.1467 0.00368387 0)
(35.0456 0.00358411 0)
(34.9505 0.00349126 0)
(34.8609 0.0034053 0)
(34.7764 0.00332476 0)
(34.6967 0.00324916 0)
(34.6214 0.00317801 0)
(34.5503 0.00311128 0)
(34.4831 0.00304895 0)
(34.4195 0.00298945 0)
(34.3593 0.00293289 0)
(34.3024 0.00287876 0)
(34.2484 0.00282664 0)
(34.1973 0.00277569 0)
(34.1489 0.00272509 0)
(34.103 0.00267397 0)
(34.0597 0.0026212 0)
(34.0187 0.00256555 0)
(33.9801 0.00250496 0)
(33.9437 0.0024381 0)
(33.9096 0.00236232 0)
(33.8779 0.00227487 0)
(33.8484 0.00217192 0)
(33.8214 0.00205035 0)
(33.7968 0.00190494 0)
(33.775 0.00173141 0)
(33.7559 0.00152243 0)
(33.74 0.00127141 0)
(33.7273 0.000970635 0)
(33.7183 0.00060791 0)
(33.7134 0.000174686 0)
(33.7128 -0.000351905 0)
(33.7172 -0.000975027 0)
(33.7269 -0.00173328 0)
(33.7429 -0.00262874 0)
(33.7654 -0.00372347 0)
(33.7961 -0.00502363 0)
(33.8284 -0.00629431 0)
(33.8588 -0.00745825 0)
(33.8926 -0.0087298 0)
(33.9301 -0.0101513 0)
(33.9713 -0.0117468 0)
(34.0165 -0.0135094 0)
(34.0657 -0.0154889 0)
(34.119 -0.0176509 0)
(34.1762 -0.0201458 0)
(34.2383 -0.0228014 0)
(34.3038 -0.0259956 0)
(34.3758 -0.0292596 0)
(34.4498 -0.0334999 0)
(34.5339 -0.0374745 0)
(34.6164 -0.0436007 0)
(34.7163 -0.0482019 0)
(34.8063 -0.0582317 0)
(34.9288 -0.0627518 0)
(35.024 -0.0811671 0)
(35.1818 -0.0846842 0)
(35.2787 -0.119021 0)
(35.499 -0.128179 0)
(35.5857 -0.188987 0)
(35.9442 -0.23204 0)
(35.9741 -0.398963 0)
(35.4157 -0.0579606 0)
(38.0206 -0.0239351 0)
(39.5315 -0.00540415 0)
(39.827 0.00455424 0)
(40.0401 0.00683563 0)
(39.9518 0.00866005 0)
(39.8384 0.00876312 0)
(39.6457 0.00895524 0)
(39.4377 0.00873864 0)
(39.2108 0.0085196 0)
(38.9813 0.00822093 0)
(38.7513 0.00792155 0)
(38.5268 0.0076109 0)
(38.3088 0.00731814 0)
(38.0998 0.00702167 0)
(37.9002 0.00674823 0)
(37.7105 0.00649253 0)
(37.5309 0.00624515 0)
(37.3612 0.00601734 0)
(37.2008 0.005807 0)
(37.0497 0.00560824 0)
(36.9073 0.0054228 0)
(36.7732 0.00524896 0)
(36.6469 0.00509046 0)
(36.5279 0.0049412 0)
(36.4157 0.00480094 0)
(36.31 0.00467143 0)
(36.2103 0.00454957 0)
(36.1162 0.00443573 0)
(36.0273 0.00432995 0)
(35.9434 0.00423056 0)
(35.8641 0.00413705 0)
(35.7891 0.00404892 0)
(35.7181 0.00396606 0)
(35.6509 0.00388846 0)
(35.5873 0.00381433 0)
(35.527 0.00374377 0)
(35.4699 0.00367614 0)
(35.4157 0.00361092 0)
(35.3643 0.00354707 0)
(35.3156 0.00348361 0)
(35.2695 0.00341944 0)
(35.2258 0.00335315 0)
(35.1845 0.00328318 0)
(35.1455 0.00320701 0)
(35.1088 0.0031229 0)
(35.0744 0.00302755 0)
(35.0422 0.00291747 0)
(35.0124 0.00278798 0)
(34.9849 0.002635 0)
(34.96 0.00245215 0)
(34.9377 0.00223383 0)
(34.9182 0.0019711 0)
(34.9018 0.00165551 0)
(34.8887 0.00127762 0)
(34.8792 0.000821704 0)
(34.8738 0.000277395 0)
(34.8726 -0.000383915 0)
(34.8764 -0.00116591 0)
(34.8854 -0.00211795 0)
(34.9008 -0.00324006 0)
(34.9224 -0.0046119 0)
(34.9522 -0.00623764 0)
(34.9836 -0.00782697 0)
(35.0132 -0.009285 0)
(35.0461 -0.010878 0)
(35.0827 -0.0126528 0)
(35.123 -0.0146423 0)
(35.1672 -0.0168384 0)
(35.2152 -0.0193017 0)
(35.2673 -0.0219894 0)
(35.3232 -0.0250828 0)
(35.3838 -0.0283765 0)
(35.4478 -0.0323206 0)
(35.5181 -0.0363593 0)
(35.5904 -0.041571 0)
(35.6722 -0.0464884 0)
(35.7529 -0.0539418 0)
(35.8496 -0.0597057 0)
(35.938 -0.0716392 0)
(36.0553 -0.0776747 0)
(36.1499 -0.098892 0)
(36.2985 -0.104619 0)
(36.3967 -0.143486 0)
(36.6005 -0.155563 0)
(36.6893 -0.225683 0)
(37.0136 -0.271915 0)
(37.0426 -0.450348 0)
(35.749 -0.0784326 0)
(38.3729 -0.0333434 0)
(39.9197 -0.00971085 0)
(40.2671 0.00314166 0)
(40.5373 0.00637593 0)
(40.5091 0.00900989 0)
(40.4546 0.0094332 0)
(40.3192 0.00992111 0)
(40.1649 0.00986043 0)
(39.9877 0.0097653 0)
(39.8028 0.00954295 0)
(39.6129 0.00929536 0)
(39.4235 0.00901437 0)
(39.2361 0.00873679 0)
(39.0535 0.00844172 0)
(38.8766 0.00816229 0)
(38.7062 0.00789379 0)
(38.5431 0.00762809 0)
(38.3874 0.00737969 0)
(38.2389 0.00714655 0)
(38.098 0.00692295 0)
(37.9642 0.00671232 0)
(37.8374 0.00651312 0)
(37.7172 0.00632975 0)
(37.6034 0.00615574 0)
(37.4957 0.00599108 0)
(37.3938 0.00583808 0)
(37.2973 0.00569365 0)
(37.206 0.00555806 0)
(37.1195 0.00543144 0)
(37.0375 0.00531198 0)
(36.9599 0.00519925 0)
(36.8863 0.00509277 0)
(36.8165 0.00499232 0)
(36.7504 0.00489789 0)
(36.6876 0.00480762 0)
(36.628 0.00472148 0)
(36.5715 0.00463874 0)
(36.5178 0.00455877 0)
(36.4668 0.00448031 0)
(36.4184 0.00440221 0)
(36.3725 0.00432309 0)
(36.3291 0.00424124 0)
(36.2879 0.00415467 0)
(36.249 0.00406039 0)
(36.2123 0.00395609 0)
(36.1779 0.00383776 0)
(36.1457 0.003701 0)
(36.1158 0.00354018 0)
(36.0883 0.00335002 0)
(36.0632 0.00312281 0)
(36.0408 0.00285131 0)
(36.0211 0.00252479 0)
(36.0045 0.00213248 0)
(35.9911 0.00166295 0)
(35.9813 0.00109622 0)
(35.9754 0.000419791 0)
(35.9738 -0.000401519 0)
(35.9771 -0.00137239 0)
(35.9855 -0.00255507 0)
(36.0001 -0.0039462 0)
(36.0209 -0.00564735 0)
(36.0498 -0.00765947 0)
(36.0801 -0.00962636 0)
(36.1089 -0.011432 0)
(36.1409 -0.0134077 0)
(36.1765 -0.0156015 0)
(36.2157 -0.0180577 0)