/*--------------------------------*- C++ -*----------------------------------*\
| =========                 |                                                 |
| \\      /  F ield         | OpenFOAM: The Open Source CFD Toolbox           |
|  \\    /   O peration     | Version:  2306                                  |
|   \\  /    A nd           | Website:  www.openfoam.com                      |
|    \\/     M anipulation  |                                                 |
\*---------------------------------------------------------------------------*/
FoamFile
{
    version     2.0;
    format      ascii;
    arch        "LSB;label=32;scalar=64";
    class       volVectorField;
    location    "1900";
    object      wallShearStress;
}
// * * * * * * * * * * * * * * * * * * * * * * * * * * * * * * * * * * * * * //

dimensions      [0 2 -2 0 0 0 0];

internalField   uniform (0 0 0);

boundaryField
{
    inlet
    {
        type            calculated;
        value           uniform (0 0 0);
    }
    outlet
    {
        type            calculated;
        value           uniform (0 0 0);
    }
    lowerWallStartup
    {
        type            symmetryPlane;
    }
    upperWallStartup
    {
        type            symmetryPlane;
    }
    upperWall
    {
        type            calculated;
        value           nonuniform List<vector> 
218
(
(-10.6523 0.002693 0)
(-7.25511 0.00081996 0)
(-6.51311 0.000167541 0)
(-5.99589 8.35708e-05 0)
(-5.69706 5.79686e-05 0)
(-5.44085 4.48856e-05 0)
(-5.25442 3.7175e-05 0)
(-5.09332 3.20232e-05 0)
(-4.96105 2.81673e-05 0)
(-4.84636 2.53218e-05 0)
(-4.74668 2.30015e-05 0)
(-4.65928 2.10928e-05 0)
(-4.58155 1.9533e-05 0)
(-4.51224 1.81702e-05 0)
(-4.44998 1.70175e-05 0)
(-4.39373 1.60053e-05 0)
(-4.34278 1.51054e-05 0)
(-4.29634 1.43409e-05 0)
(-4.25393 1.36126e-05 0)
(-4.21507 1.30098e-05 0)
(-4.17936 1.24146e-05 0)
(-4.14641 1.195e-05 0)
(-4.116 1.1431e-05 0)
(-4.08784 1.10745e-05 0)
(-4.06172 1.06206e-05 0)
(-4.03742 1.03588e-05 0)
(-4.01479 9.94359e-06 0)
(-3.99369 9.75689e-06 0)
(-3.97396 9.36847e-06 0)
(-3.95551 9.25079e-06 0)
(-3.93822 8.88132e-06 0)
(-3.922 8.82487e-06 0)
(-3.90674 8.4717e-06 0)
(-3.89242 8.46242e-06 0)
(-3.8789 8.12268e-06 0)
(-3.86618 8.1561e-06 0)
(-3.85415 7.83418e-06 0)
(-3.84281 7.90309e-06 0)
(-3.83205 7.60569e-06 0)
(-3.82189 7.70351e-06 0)
(-3.8122 7.43974e-06 0)
(-3.80304 7.56421e-06 0)
(-3.79426 7.35567e-06 0)
(-3.78591 7.50458e-06 0)
(-3.77787 7.37584e-06 0)
(-3.77018 7.5546e-06 0)
(-3.76269 7.5427e-06 0)
(-3.75546 7.76334e-06 0)
(-3.74834 7.91996e-06 0)
(-3.74137 8.19935e-06 0)
(-3.7344 8.59418e-06 0)
(-3.72745 8.96285e-06 0)
(-3.72038 9.67349e-06 0)
(-3.7132 1.01944e-05 0)
(-3.70577 1.12584e-05 0)
(-3.69808 1.20456e-05 0)
(-3.69 1.33731e-05 0)
(-3.68153 1.46287e-05 0)
(-3.67251 1.61376e-05 0)
(-3.66301 1.79264e-05 0)
(-3.65279 1.97316e-05 0)
(-3.64205 2.19157e-05 0)
(-3.63043 2.41032e-05 0)
(-3.62025 2.70282e-05 0)
(-3.61199 2.90717e-05 0)
(-3.60373 3.12793e-05 0)
(-3.59531 3.34826e-05 0)
(-3.58687 3.51113e-05 0)
(-3.57841 3.71206e-05 0)
(-3.56999 3.88463e-05 0)
(-3.5616 4.09046e-05 0)
(-3.55331 4.27137e-05 0)
(-3.54507 4.47371e-05 0)
(-3.53699 4.6496e-05 0)
(-3.529 4.85225e-05 0)
(-3.5212 5.00481e-05 0)
(-3.51351 5.23338e-05 0)
(-3.50605 5.33336e-05 0)
(-3.49868 5.61103e-05 0)
(-3.49167 5.66552e-05 0)
(-3.4846 5.95497e-05 0)
(-3.47815 5.96592e-05 0)
(-3.47125 6.30184e-05 0)
(-3.46559 6.16725e-05 0)
(-3.45849 6.73986e-05 0)
(-3.45433 6.23286e-05 0)
(-3.44585 7.22705e-05 0)
(-3.44511 8.43877e-05 0)
(-3.43676 8.30037e-05 -1.77775e-20)
(-3.42984 6.73657e-05 0)
(-3.42463 6.94878e-05 1.75793e-20)
(-3.41904 7.39103e-05 -1.74806e-20)
(-3.41324 7.45787e-05 0)
(-3.40742 7.2503e-05 -1.72762e-20)
(-3.40163 7.35954e-05 0)
(-3.39577 7.24416e-05 0)
(-3.38991 7.36913e-05 0)
(-3.38397 7.25419e-05 0)
(-3.37803 7.37662e-05 1.67318e-20)
(-3.37201 7.31429e-05 0)
(-3.366 7.33326e-05 -1.6501e-20)
(-3.35989 7.33092e-05 0)
(-3.35378 7.30586e-05 -1.62629e-20)
(-3.34759 7.3052e-05 1.61409e-20)
(-3.3414 7.27307e-05 0)
(-3.33513 7.2854e-05 1.58917e-20)
(-3.32888 7.30405e-05 0)
(-3.32255 7.23846e-05 -1.56356e-20)
(-3.31625 7.32932e-05 0)
(-3.30989 7.24776e-05 0)
(-3.30354 7.32021e-05 0)
(-3.29713 7.23955e-05 0)
(-3.29073 7.28113e-05 0)
(-3.28427 7.20042e-05 0)
(-3.27782 7.20217e-05 0)
(-3.27132 7.18626e-05 1.45473e-20)
(-3.26484 7.06395e-05 -1.44047e-20)
(-3.25832 7.10565e-05 1.42602e-20)
(-3.25183 6.98224e-05 -1.41149e-20)
(-3.24529 7.02785e-05 0)
(-3.23881 6.88843e-05 -1.382e-20)
(-3.23227 6.94196e-05 0)
(-3.22578 6.78012e-05 -1.35205e-20)
(-3.21924 6.82917e-05 0)
(-3.21275 6.69423e-05 0)
(-3.20622 6.64524e-05 -1.30623e-20)
(-3.19975 6.5711e-05 0)
(-3.19325 6.53322e-05 -1.27521e-20)
(-3.18683 6.46779e-05 0)
(-3.18038 6.43429e-05 -1.24384e-20)
(-3.174 6.38829e-05 0)
(-3.1676 6.33339e-05 -1.21219e-20)
(-3.16127 6.27115e-05 0)
(-3.15492 6.2634e-05 0)
(-3.14866 6.0982e-05 -1.16426e-20)
(-3.14238 6.14517e-05 0)
(-3.13619 5.97962e-05 -1.13206e-20)
(-3.13 6.03784e-05 0)
(-3.1239 5.84633e-05 -1.09974e-20)
(-3.11779 5.9122e-05 0)
(-3.11177 5.69861e-05 -1.06735e-20)
(-3.10576 5.7689e-05 0)
(-3.09982 5.5805e-05 0)
(-3.09393 5.56969e-05 -1.01866e-20)
(-3.08809 5.42118e-05 0)
(-3.08231 5.41394e-05 -9.86234e-21)
(-3.07658 5.23447e-05 0)
(-3.07092 5.23618e-05 -9.53871e-21)
(-3.0653 5.04376e-05 0)
(-3.05977 5.04777e-05 0)
(-3.05427 4.83101e-05 -9.05547e-21)
(-3.04886 4.90912e-05 -8.8947e-21)
(-3.04349 4.55865e-05 0)
(-3.03822 4.711e-05 -8.57512e-21)
(-3.03298 4.34216e-05 0)
(-3.02786 4.51826e-05 -8.25776e-21)
(-3.02275 4.12593e-05 0)
(-3.01778 4.32351e-05 -7.94302e-21)
(-3.01279 3.92226e-05 0)
(-3.00798 4.11603e-05 -7.63114e-21)
(-3.00313 3.75536e-05 -7.47674e-21)
(-2.99848 3.88124e-05 0)
(-2.99379 3.57494e-05 -7.16987e-21)
(-2.98931 3.71083e-05 0)
(-2.98476 3.40214e-05 -6.86683e-21)
(-2.98045 3.52348e-05 0)
(-2.97603 3.1932e-05 0)
(-2.97188 3.36399e-05 -6.41953e-21)
(-2.96759 2.91417e-05 6.27305e-21)
(-2.96362 3.17482e-05 -6.12694e-21)
(-2.95948 2.71079e-05 5.9828e-21)
(-2.95569 3.0034e-05 0)
(-2.95168 2.54501e-05 0)
(-2.94809 2.82246e-05 0)
(-2.9442 2.35259e-05 5.41705e-21)
(-2.9408 2.61786e-05 0)
(-2.937 2.21464e-05 0)
(-2.93383 2.3625e-05 0)
(-2.93009 2.05596e-05 0)
(-2.9272 2.14022e-05 0)
(-2.92343 1.95153e-05 0)
(-2.92101 1.89361e-05 0)
(-2.91687 1.83986e-05 -4.34925e-21)
(-2.91551 1.81165e-05 4.22046e-21)
(-2.90986 6.06112e-06 0)
(-2.90897 2.67773e-05 0)
(-2.90716 2.49103e-05 -1.02414e-21)
(-2.90405 2.56299e-05 8.65217e-22)
(-2.90085 2.26072e-05 1.45372e-21)
(-2.89734 2.36799e-05 1.21313e-21)
(-2.89338 2.33087e-05 2.00848e-21)
(-2.88902 2.38196e-05 1.64614e-21)
(-2.88423 2.48441e-05 1.33275e-21)
(-2.87907 2.61176e-05 0)
(-2.87351 2.74962e-05 1.66022e-21)
(-2.86771 3.07179e-05 0)
(-2.86162 3.33033e-05 -1.85161e-21)
(-2.85553 3.83903e-05 0)
(-2.84941 4.25808e-05 0)
(-2.84369 4.87758e-05 0)
(-2.83837 5.54006e-05 0)
(-2.83399 6.3225e-05 0)
(-2.83054 6.93008e-05 0)
(-2.82853 7.5434e-05 -3.37103e-21)
(-2.82797 7.80177e-05 0)
(-2.82888 7.79613e-05 8.48499e-21)
(-2.83172 7.03889e-05 -8.55726e-21)
(-2.83495 6.05853e-05 8.12741e-21)
(-2.84105 3.2045e-05 0)
(-2.84448 1.23426e-05 1.3176e-20)
(-2.85366 -6.0598e-05 0)
(-2.85404 -6.9342e-05 0)
(-2.86766 -0.000267241 0)
(-2.86059 -0.000183645 0)
(-2.8857 -0.000787985 0)
(-2.85847 -0.000263109 0)
(-2.94585 -0.00281282 -3.83584e-20)
(-2.6926 -0.00232793 0)
)
;
    }
    lowerWall
    {
        type            calculated;
        value           nonuniform List<vector> 
266
(
(-10.9221 -0.00279685 0)
(-7.33986 -0.000897306 0)
(-6.56417 -0.000181356 0)
(-6.03202 -8.87954e-05 0)
(-5.72488 -6.09238e-05 0)
(-5.46348 -4.6802e-05 0)
(-5.27347 -3.85845e-05 0)
(-5.10993 -3.31204e-05 0)
(-4.97573 -2.91232e-05 0)
(-4.85914 -2.60898e-05 0)
(-4.75867 -2.3673e-05 0)
(-4.66981 -2.17153e-05 0)
(-4.59149 -2.00656e-05 0)
(-4.52124 -1.8698e-05 0)
(-4.45829 -1.74673e-05 0)
(-4.40153 -1.64293e-05 0)
(-4.34998 -1.55244e-05 0)
(-4.30306 -1.46958e-05 0)
(-4.26027 -1.39725e-05 0)
(-4.221 -1.33307e-05 0)
(-4.18493 -1.27469e-05 0)
(-4.15166 -1.22158e-05 0)
(-4.12097 -1.17325e-05 0)
(-4.09255 -1.13037e-05 0)
(-4.06616 -1.0906e-05 0)
(-4.04165 -1.05404e-05 0)
(-4.01882 -1.02106e-05 0)
(-3.99751 -9.90214e-06 0)
(-3.97762 -9.61967e-06 0)
(-3.959 -9.3619e-06 0)
(-3.94156 -9.12213e-06 0)
(-3.92519 -8.89947e-06 0)
(-3.90982 -8.69168e-06 0)
(-3.89537 -8.50083e-06 0)
(-3.88177 -8.32494e-06 0)
(-3.86895 -8.15836e-06 0)
(-3.85687 -8.00221e-06 0)
(-3.84546 -7.85536e-06 0)
(-3.83471 -7.7155e-06 0)
(-3.82455 -7.57997e-06 0)
(-3.81497 -7.44598e-06 0)
(-3.80592 -7.31057e-06 0)
(-3.79739 -7.17077e-06 0)
(-3.78936 -7.02243e-06 0)
(-3.78183 -6.85715e-06 0)
(-3.77477 -6.67301e-06 0)
(-3.7682 -6.46199e-06 0)
(-3.76211 -6.21361e-06 0)
(-3.75652 -5.91497e-06 0)
(-3.75146 -5.55751e-06 0)
(-3.74695 -5.12185e-06 0)
(-3.74303 -4.61342e-06 0)
(-3.73973 -3.98895e-06 0)
(-3.73715 -3.29788e-06 0)
(-3.73532 -2.43019e-06 0)
(-3.73434 -1.48508e-06 0)
(-3.7343 -2.42725e-07 0)
(-3.7353 1.2641e-06 0)
(-3.73749 3.21976e-06 0)
(-3.74097 5.60539e-06 0)
(-3.74597 8.71602e-06 0)
(-3.75261 1.28016e-05 0)
(-3.76137 1.84576e-05 0)
(-3.77065 2.1036e-05 0)
(-3.77916 2.28974e-05 0)
(-3.7885 2.7238e-05 0)
(-3.79876 3.34028e-05 0)
(-3.81023 3.91247e-05 0)
(-3.82272 4.71679e-05 0)
(-3.83648 5.45047e-05 0)
(-3.85137 6.59057e-05 0)
(-3.86767 7.73954e-05 0)
(-3.88531 9.34509e-05 0)
(-3.9045 0.000109345 0)
(-3.92554 0.000131359 0)
(-3.94809 0.000151514 0)
(-3.97354 0.000183169 0)
(-3.99985 0.000213295 0)
(-4.03137 0.000266488 0)
(-4.0615 0.00031898 0)
(-4.103 0.000426091 0)
(-4.13597 0.000498239 0)
(-4.1984 0.000798157 0)
(-4.23282 0.000749096 0)
(-4.33945 0.00203008 0)
(-4.40853 -0.000222936 0)
(-4.54542 0.0122713 0)
(-4.85444 0.0752286 0)
(1.95453 2.30637 0)
(-0.0176771 -0.00822965 0)
(-0.00472775 -0.0074294 1.07889e-24)
(0.00269686 -0.00968248 -3.63907e-24)
(-0.00446272 -0.0099138 0)
(-0.00357347 -0.010115 0)
(-0.00541685 -0.00995405 0)
(-0.00727585 -0.00946185 0)
(-0.00928602 -0.00866338 0)
(-0.0114977 -0.00754807 -4.01566e-21)
(-0.0139744 -0.00595484 5.81721e-21)
(-0.0167258 -0.00344881 -1.75678e-20)
(-0.0197581 0.000962444 2.79024e-20)
(-0.0223384 0.0083296 -0)
(-0.0221563 0.0165329 1.33467e-19)
(-0.0196568 0.0223124 -1.55668e-19)
(-0.0167748 0.0272794 0)
(-0.0134069 0.0333722 0)
(-0.00871137 0.040536 0)
(-0.00192068 0.0463126 3.29564e-19)
(0.00648945 0.0481868 -2.97632e-19)
(0.0148615 0.0428751 5.58504e-19)
(0.0225359 0.0306951 -5.91405e-19)
(0.0295571 0.0114075 0)
(0.031713 -0.0117527 1.86704e-18)
(0.026811 -0.029109 -1.21548e-18)
(0.0245453 -0.0434911 0)
(0.0250485 -0.058013 0)
(0.0271942 -0.0708001 0)
(0.0303749 -0.0825399 0)
(0.0336292 -0.0929299 0)
(0.0362947 -0.101698 0)
(0.0379438 -0.108377 -5.86515e-19)
(0.0391808 -0.112566 4.02451e-22)
(0.0404567 -0.116053 5.35613e-19)
(0.0409865 -0.119904 0)
(0.0399805 -0.125586 0)
(0.0330962 -0.138903 0)
(0.012319 -0.149244 0)
(0.00121427 -0.0732108 0)
(0.0212937 0.0112133 1.74023e-19)
(0.0279285 -0.024167 -1.32391e-19)
(0.0135384 -0.210744 0)
(-0.0521061 -0.520596 0)
(-0.13754 -0.645999 0)
(-0.227517 -0.656533 -5.6358e-20)
(-0.277838 -0.561352 6.02655e-20)
(-0.297193 -0.591401 -0)
(0.0742231 -0.133664 0)
(-0.0795974 0.0484523 -2.37225e-22)
(-0.108062 -0.000631056 0)
(-0.063012 0.000156793 -4.29977e-22)
(-0.0291404 -1.23408e-05 0)
(-0.0428839 0.000205605 0)
(-0.476471 -0.000750118 0)
(-0.108264 -0.000391931 0)
(-0.123932 3.34482e-05 0)
(-0.135159 0.000238718 -4.30384e-22)
(-0.111468 0.000710028 0)
(-0.0265983 0.00302942 0)
(0.131733 -0.000905326 0)
(0.276652 -0.0012769 0)
(0.405735 -0.000670855 0)
(0.515638 -0.000580274 0)
(0.611798 -0.000517741 0)
(0.698175 -0.000470967 0)
(0.778523 -0.000450655 0)
(0.855104 -0.000442909 0)
(0.929182 -0.000448225 3.07603e-22)
(1.00131 -0.000452882 0)
(1.07147 -0.000459036 3.05946e-22)
(1.13966 -0.000457154 0)
(1.20582 -0.000458422 3.02696e-22)
(1.27015 -0.000456287 0)
(1.33271 -0.000463163 2.97746e-22)
(1.39362 -0.000470726 0)
(1.45256 -0.000486093 0)
(1.50912 -0.000496886 0)
(1.56245 -0.00050892 2.82082e-22)
(1.61177 -0.000508241 2.76789e-22)
(1.65623 -0.000504521 2.70901e-22)
(1.69514 -0.000486379 2.64429e-22)
(1.72816 -0.000465623 2.5739e-22)
(1.75494 -0.000435525 0)
(1.77563 -0.000405186 -0)
(1.79013 -0.00037176 2.33269e-22)
(1.79873 -0.000339088 2.24375e-22)
(1.80137 -0.000307946 2.15118e-22)
(1.7982 -0.000276039 2.0554e-22)
(1.78909 -0.000247475 1.95665e-22)
(1.77403 -0.000216205 1.85528e-22)
(1.75287 -0.000187833 0)
(1.72544 -0.00015616 1.64563e-22)
(1.69167 -0.000125784 1.53792e-22)
(1.65136 -9.29097e-05 1.4287e-22)
(1.60448 -5.95246e-05 1.31834e-22)
(1.55095 -2.49648e-05 1.20719e-22)
(1.49085 1.16314e-05 1.09574e-22)
(1.42424 4.82243e-05 0)
(1.3514 8.75424e-05 8.73735e-23)
(1.27243 0.000125936 7.64191e-23)
(1.18811 0.000166536 6.56452e-23)
(1.09819 0.000205366 5.5079e-23)
(1.00489 0.000243766 4.48194e-23)
(0.905081 0.000285514 3.48088e-23)
(0.804508 0.00315418 0)
(0.752727 0.000663676 2.30549e-23)
(0.594851 -0.00245823 0)
(0.485565 0.000388685 0)
(0.379852 0.000433581 -0)
(0.270091 0.00113604 1.65584e-23)
(0.158039 0.000565243 0)
(0.0586109 -0.00089161 -0)
(-0.0675827 0.000738049 0)
(-0.15807 0.000667741 -0)
(-0.262006 0.00045281 0)
(-0.36468 0.000447968 -0)
(-0.464911 0.000444316 5.69774e-23)
(-0.563005 0.000436816 0)
(-0.658518 0.000431773 0)
(-0.751381 0.00042335 -0)
(-0.84144 0.000417114 7.1669e-23)
(-0.92855 0.000408688 0)
(-1.01259 0.000400582 0)
(-1.0935 0.000392396 -0)
(-1.17113 0.000382949 0)
(-1.24556 0.000375064 -0)
(-1.31665 0.00036504 -0)
(-1.38456 0.000357431 8.51617e-23)
(-1.44923 0.000346636 0)
(-1.51079 0.000339027 -0)
(-1.56928 0.00032801 8.7071e-23)
(-1.62473 0.000320153 -0)
(-1.6775 0.000309393 8.73702e-23)
(-1.72693 0.000300659 0)
(-1.77479 0.000290066 0)
(-1.81799 0.000279544 -8.66591e-23)
(-1.86249 0.000269587 -0)
(-1.89823 0.000254883 8.55999e-23)
(-1.94191 0.000252902 0)
(-1.96855 0.000222213 -0)
(-2.01349 0.000246485 0)
(-2.03024 0.000175788 0)
(-2.07766 0.000271081 -0)
(-2.08905 0.000110099 8.0436e-23)
(-2.11457 0.000242758 0)
(-2.14911 0.00012221 -0)
(-2.1648 0.000156713 9.27023e-21)
(-2.19668 0.000146045 1.59041e-20)
(-2.22337 0.000143043 0)
(-2.25534 0.000140839 0)
(-2.2875 0.000139295 0)
(-2.32197 0.000139579 -0)
(-2.35737 0.000141128 0)
(-2.39388 0.000144606 -2.41304e-20)
(-2.43069 0.000149526 0)
(-2.46748 0.000156171 -3.36939e-20)
(-2.50335 0.00016372 2.78999e-20)
(-2.53798 0.000172051 0)
(-2.57019 0.000179484 0)
(-2.60009 0.000186003 0)
(-2.62613 0.000188602 4.9134e-20)
(-2.64936 0.000188874 -3.94753e-20)
(-2.66734 0.00018208 0)
(-2.68314 0.000174554 5.03359e-20)
(-2.69203 0.000157344 0)
(-2.70101 0.000147189 6.417e-20)
(-2.70046 0.000123034 0)
(-2.70509 0.00012336 0)
(-2.69588 9.55157e-05 0)
(-2.70152 0.000125431 0)
(-2.68627 8.53201e-05 0)
(-2.69907 0.000167651 1.46944e-19)
(-2.6799 8.6569e-05 -7.85125e-20)
(-2.69773 0.000259736 0)
(-2.69248 0.000121094 3.01311e-20)
(-2.71186 0.00041778 0)
(-2.82964 0.000101303 0)
)
;
    }
    front
    {
        type            empty;
    }
    back
    {
        type            empty;
    }
}


// ************************************************************************* //
