/*--------------------------------*- C++ -*----------------------------------*\
| =========                 |                                                 |
| \\      /  F ield         | OpenFOAM: The Open Source CFD Toolbox           |
|  \\    /   O peration     | Version:  2306                                  |
|   \\  /    A nd           | Website:  www.openfoam.com                      |
|    \\/     M anipulation  |                                                 |
\*---------------------------------------------------------------------------*/
FoamFile
{
    version     2.0;
    format      ascii;
    arch        "LSB;label=32;scalar=64";
    class       volScalarField;
    location    "1600";
    object      cp;
}
// * * * * * * * * * * * * * * * * * * * * * * * * * * * * * * * * * * * * * //

dimensions      [0 0 0 0 0 0 0];

internalField   nonuniform List<scalar> 
20540
(
-5.86114
-5.85912
-5.86114
-5.85912
-5.86114
-5.85912
-5.86114
-5.85912
-5.86114
-5.85913
-5.86114
-5.85913
-5.86114
-5.85913
-5.86114
-5.85914
-5.86114
-5.85915
-5.86114
-5.85915
-5.86114
-5.85916
-5.86115
-5.85917
-5.86115
-5.85918
-5.86115
-5.8592
-5.86115
-5.85922
-5.86115
-5.85924
-5.86116
-5.85927
-5.86116
-5.8593
-5.86117
-5.85933
-5.86117
-5.85938
-5.86118
-5.85943
-5.86119
-5.85949
-5.8612
-5.85956
-5.86121
-5.85965
-5.86122
-5.85974
-5.86124
-5.85985
-5.86125
-5.85996
-5.86127
-5.86008
-5.86129
-5.8602
-5.8613
-5.86032
-5.86131
-5.86039
-5.86132
-5.86042
-5.86132
-5.8604
-5.86131
-5.86035
-5.8613
-5.86025
-5.86129
-5.86013
-5.86127
-5.85999
-5.86125
-5.85986
-5.86124
-5.85974
-5.86122
-5.85963
-5.86121
-5.85953
-5.8612
-5.85944
-5.86119
-5.85937
-5.86118
-5.8593
-5.86117
-5.85925
-5.86117
-5.8592
-5.86116
-5.85916
-5.86116
-5.85913
-5.86115
-5.8591
-5.86115
-5.85908
-5.86115
-5.85906
-5.86115
-5.85904
-5.86114
-5.85903
-5.86114
-5.85902
-5.86114
-5.85901
-5.86114
-5.859
-5.86114
-5.85899
-5.86114
-5.85899
-5.86114
-5.85898
-5.86114
-5.85898
-5.86114
-5.85898
-5.86114
-5.85897
-5.86114
-5.85897
-5.86114
-5.85897
-5.86114
-5.85897
-5.86242
-5.87176
-5.87927
-5.88498
-5.89335
-5.90136
-5.91176
-5.92101
-5.93238
-5.94284
-5.95518
-5.96674
-5.97966
-5.99184
-6.00477
-6.01695
-6.02927
-6.04078
-6.05191
-6.06214
-6.07161
-6.08015
-6.08771
-6.09437
-6.1
-6.10477
-6.10857
-6.1116
-6.1138
-6.11538
-6.11632
-6.11681
-6.11688
-6.11664
-6.11612
-6.11538
-6.11443
-6.11332
-6.11206
-6.11065
-6.10915
-6.10752
-6.10575
-6.1039
-6.10161
-6.09936
-6.09653
-6.09245
-6.09063
-6.08247
-6.07972
-6.10891
-6.06822
-6.00157
-6.09279
-6.13181
-6.05291
-5.94512
-5.81942
-5.71015
-5.80278
-6.07091
-6.12498
-6.04801
-5.91649
-5.78503
-5.68395
-5.61296
-5.56787
-5.56684
-5.64927
-5.75265
-5.82502
-5.72924
-5.65629
-5.81662
-5.94186
-6.03698
-6.10515
-6.09599
-6.0364
-5.94171
-5.83233
-5.76034
-5.68416
-5.75303
-5.95892
-5.84313
-5.86242
-5.87176
-5.87927
-5.88498
-5.89335
-5.90136
-5.91176
-5.92101
-5.93238
-5.94284
-5.95518
-5.96674
-5.97966
-5.99184
-6.00477
-6.01695
-6.02927
-6.04078
-6.05191
-6.06214
-6.07161
-6.08015
-6.08771
-6.09437
-6.1
-6.10477
-6.10857
-6.1116
-6.1138
-6.11538
-6.11632
-6.11681
-6.11688
-6.11664
-6.11612
-6.11538
-6.11443
-6.11332
-6.11206
-6.11065
-6.10915
-6.10752
-6.10575
-6.1039
-6.10161
-6.09936
-6.09653
-6.09245
-6.09063
-6.08247
-6.07971
-6.10891
-6.06822
-6.00157
-6.09279
-6.13181
-6.05291
-5.94512
-5.81943
-5.71016
-5.80278
-6.0709
-6.12497
-6.04802
-5.9165
-5.78503
-5.68396
-5.61298
-5.56788
-5.56686
-5.64929
-5.75266
-5.825
-5.72921
-5.65634
-5.81663
-5.94184
-6.03696
-6.10514
-6.096
-6.03641
-5.94174
-5.83238
-5.76038
-5.68402
-5.75317
-5.95788
-5.85496
-5.86242
-5.87176
-5.87927
-5.88498
-5.89335
-5.90136
-5.91176
-5.92101
-5.93238
-5.94284
-5.95518
-5.96674
-5.97966
-5.99184
-6.00477
-6.01695
-6.02927
-6.04078
-6.05191
-6.06214
-6.07161
-6.08015
-6.08771
-6.09437
-6.1
-6.10477
-6.10857
-6.1116
-6.1138
-6.11538
-6.11632
-6.11681
-6.11688
-6.11664
-6.11612
-6.11538
-6.11443
-6.11332
-6.11206
-6.11065
-6.10915
-6.10752
-6.10575
-6.1039
-6.10161
-6.09936
-6.09653
-6.09245
-6.09063
-6.08247
-6.07971
-6.10891
-6.06822
-6.00157
-6.09278
-6.13181
-6.05292
-5.94512
-5.81944
-5.71018
-5.80278
-6.0709
-6.12498
-6.04804
-5.91651
-5.78504
-5.68398
-5.61299
-5.5679
-5.56687
-5.64931
-5.7527
-5.82502
-5.72915
-5.65634
-5.81669
-5.94188
-6.037
-6.1052
-6.09605
-6.03645
-5.9418
-5.83246
-5.76047
-5.68396
-5.75361
-5.95593
-5.86573
-5.86242
-5.87176
-5.87927
-5.88498
-5.89335
-5.90136
-5.91176
-5.92101
-5.93238
-5.94284
-5.95518
-5.96674
-5.97966
-5.99184
-6.00477
-6.01695
-6.02927
-6.04078
-6.05191
-6.06214
-6.07161
-6.08015
-6.08771
-6.09437
-6.1
-6.10477
-6.10857
-6.1116
-6.1138
-6.11538
-6.11632
-6.11681
-6.11688
-6.11664
-6.11612
-6.11538
-6.11443
-6.11332
-6.11206
-6.11065
-6.10915
-6.10752
-6.10575
-6.1039
-6.10161
-6.09936
-6.09653
-6.09245
-6.09063
-6.08247
-6.07971
-6.10891
-6.06822
-6.00157
-6.09278
-6.13181
-6.05293
-5.94512
-5.81946
-5.71021
-5.80279
-6.07094
-6.125
-6.04808
-5.91653
-5.78506
-5.68401
-5.61301
-5.56791
-5.5669
-5.64935
-5.75281
-5.82514
-5.729
-5.65626
-5.81687
-5.94208
-6.03725
-6.10552
-6.09622
-6.03657
-5.94196
-5.83267
-5.76072
-5.68405
-5.75461
-5.95304
-5.87444
-5.86242
-5.87176
-5.87927
-5.88498
-5.89335
-5.90136
-5.91176
-5.92101
-5.93238
-5.94284
-5.95518
-5.96674
-5.97966
-5.99184
-6.00477
-6.01695
-6.02927
-6.04078
-6.05191
-6.06214
-6.07161
-6.08015
-6.08771
-6.09437
-6.1
-6.10477
-6.10857
-6.1116
-6.1138
-6.11538
-6.11632
-6.11681
-6.11688
-6.11664
-6.11612
-6.11538
-6.11443
-6.11332
-6.11206
-6.11065
-6.10915
-6.10752
-6.10575
-6.1039
-6.10161
-6.09936
-6.09653
-6.09245
-6.09063
-6.08247
-6.07971
-6.10891
-6.06823
-6.00157
-6.09278
-6.13183
-6.05295
-5.94512
-5.8195
-5.71029
-5.80284
-6.07104
-6.12508
-6.04816
-5.91656
-5.78509
-5.68405
-5.61305
-5.56794
-5.56693
-5.64944
-5.75309
-5.82544
-5.72865
-5.65599
-5.81726
-5.94292
-6.0383
-6.10636
-6.09656
-6.03682
-5.94229
-5.83313
-5.76124
-5.68451
-5.75619
-5.95017
-5.88648
-5.86243
-5.87176
-5.87927
-5.88498
-5.89335
-5.90136
-5.91176
-5.92101
-5.93238
-5.94284
-5.95518
-5.96674
-5.97966
-5.99184
-6.00477
-6.01695
-6.02927
-6.04078
-6.05191
-6.06214
-6.07161
-6.08015
-6.08771
-6.09437
-6.1
-6.10477
-6.10857
-6.1116
-6.1138
-6.11538
-6.11632
-6.11681
-6.11688
-6.11664
-6.11612
-6.11538
-6.11443
-6.11332
-6.11206
-6.11065
-6.10915
-6.10752
-6.10575
-6.1039
-6.10161
-6.09936
-6.09653
-6.09245
-6.09063
-6.08247
-6.07971
-6.10891
-6.06824
-6.00158
-6.0928
-6.13185
-6.053
-5.94512
-5.81957
-5.71042
-5.803
-6.0713
-6.12522
-6.04831
-5.91661
-5.78515
-5.68412
-5.61311
-5.56797
-5.56699
-5.64959
-5.75363
-5.82606
-5.72802
-5.65551
-5.81813
-5.94546
-6.04136
-6.1079
-6.0971
-6.03726
-5.94291
-5.83401
-5.76219
-5.68535
-5.75865
-5.94862
-5.90173
-5.86243
-5.87176
-5.87927
-5.88498
-5.89335
-5.90136
-5.91176
-5.92101
-5.93238
-5.94284
-5.95518
-5.96674
-5.97966
-5.99184
-6.00477
-6.01695
-6.02927
-6.04078
-6.05191
-6.06214
-6.07161
-6.08015
-6.08771
-6.09437
-6.1
-6.10477
-6.10857
-6.1116
-6.1138
-6.11538
-6.11632
-6.11681
-6.11688
-6.11664
-6.11612
-6.11538
-6.11443
-6.11332
-6.11206
-6.11065
-6.10915
-6.10752
-6.10575
-6.1039
-6.10161
-6.09936
-6.09653
-6.09245
-6.09063
-6.08247
-6.07971
-6.10891
-6.06827
-6.00159
-6.09285
-6.13189
-6.05307
-5.94512
-5.81972
-5.71067
-5.80334
-6.07194
-6.12547
-6.04853
-5.91673
-5.78527
-5.68425
-5.6132
-5.568
-5.56708
-5.64984
-5.75454
-5.82717
-5.72717
-5.65484
-5.81984
-5.95067
-6.04686
-6.1102
-6.09789
-6.03798
-5.94395
-5.83556
-5.76384
-5.68677
-5.76255
-5.94922
-5.91843
-5.86243
-5.87175
-5.87927
-5.88498
-5.89335
-5.90136
-5.91176
-5.921
-5.93238
-5.94284
-5.95518
-5.96674
-5.97966
-5.99184
-6.00477
-6.01695
-6.02927
-6.04078
-6.05191
-6.06214
-6.07161
-6.08015
-6.08771
-6.09437
-6.1
-6.10477
-6.10857
-6.1116
-6.1138
-6.11538
-6.11632
-6.11681
-6.11688
-6.11664
-6.11612
-6.11538
-6.11443
-6.11332
-6.11206
-6.11065
-6.10915
-6.10752
-6.10575
-6.1039
-6.10161
-6.09936
-6.09653
-6.09245
-6.09063
-6.08247
-6.07972
-6.10891
-6.06831
-6.00163
-6.09293
-6.13195
-6.0532
-5.94515
-5.81999
-5.71104
-5.80384
-6.07312
-6.12589
-6.04884
-5.91694
-5.78546
-5.68445
-5.61334
-5.56801
-5.56718
-5.6502
-5.75593
-5.829
-5.72637
-5.65396
-5.82291
-5.95926
-6.05442
-6.11323
-6.09905
-6.03911
-5.94563
-5.83812
-5.76659
-5.68914
-5.76867
-5.95193
-5.93599
-5.86244
-5.87175
-5.87927
-5.88498
-5.89335
-5.90136
-5.91176
-5.921
-5.93238
-5.94284
-5.95518
-5.96674
-5.97966
-5.99184
-6.00477
-6.01695
-6.02927
-6.04078
-6.05191
-6.06214
-6.07161
-6.08015
-6.08771
-6.09437
-6.1
-6.10477
-6.10857
-6.1116
-6.1138
-6.11538
-6.11632
-6.11681
-6.11688
-6.11664
-6.11612
-6.11538
-6.11443
-6.11332
-6.11206
-6.11065
-6.10915
-6.10752
-6.10575
-6.1039
-6.10161
-6.09936
-6.09653
-6.09245
-6.09063
-6.08248
-6.07972
-6.10891
-6.06837
-6.00171
-6.0931
-6.13202
-6.05337
-5.9452
-5.82047
-5.71154
-5.80453
-6.07502
-6.12652
-6.04924
-5.9173
-5.78577
-5.68478
-5.61356
-5.56798
-5.56729
-5.65071
-5.75788
-5.83184
-5.72642
-5.65343
-5.8286
-5.97111
-6.06362
-6.11704
-6.10079
-6.04083
-5.94828
-5.84225
-5.771
-5.69284
-5.77767
-5.95738
-5.9559
-5.86244
-5.87174
-5.87927
-5.88498
-5.89335
-5.90136
-5.91176
-5.921
-5.93238
-5.94284
-5.95518
-5.96674
-5.97966
-5.99184
-6.00477
-6.01695
-6.02927
-6.04078
-6.05191
-6.06214
-6.07161
-6.08015
-6.08771
-6.09437
-6.1
-6.10477
-6.10857
-6.1116
-6.1138
-6.11538
-6.11632
-6.11681
-6.11688
-6.11664
-6.11612
-6.11538
-6.11443
-6.11332
-6.11206
-6.11065
-6.10915
-6.10752
-6.10575
-6.1039
-6.10161
-6.09936
-6.09653
-6.09245
-6.09063
-6.08249
-6.07974
-6.1089
-6.06846
-6.00184
-6.09334
-6.13212
-6.05355
-5.9453
-5.82119
-5.71221
-5.8055
-6.07783
-6.12736
-6.04984
-5.91787
-5.78625
-5.68528
-5.61387
-5.56789
-5.56746
-5.6514
-5.76039
-5.83604
-5.72891
-5.65613
-5.83867
-5.98574
-6.07435
-6.12183
-6.10336
-6.04338
-5.95231
-5.84873
-5.77784
-5.69821
-5.78985
-5.96686
-5.97888
-5.86245
-5.87174
-5.87927
-5.88498
-5.89335
-5.90136
-5.91176
-5.921
-5.93238
-5.94284
-5.95518
-5.96674
-5.97966
-5.99184
-6.00477
-6.01695
-6.02927
-6.04078
-6.05191
-6.06214
-6.07161
-6.08015
-6.08771
-6.09437
-6.1
-6.10477
-6.10857
-6.1116
-6.1138
-6.11538
-6.11632
-6.11681
-6.11688
-6.11664
-6.11612
-6.11538
-6.11443
-6.11332
-6.11206
-6.11065
-6.10915
-6.10752
-6.10575
-6.1039
-6.10161
-6.09936
-6.09653
-6.09245
-6.09064
-6.0825
-6.07976
-6.10886
-6.06857
-6.00205
-6.09374
-6.13223
-6.05371
-5.94543
-5.82215
-5.71318
-5.80691
-6.08167
-6.12835
-6.05076
-5.91871
-5.78695
-5.68598
-5.61426
-5.56775
-5.56766
-5.65227
-5.76339
-5.84164
-5.73579
-5.66618
-5.85455
-6.00295
-6.08689
-6.12801
-6.10705
-6.04707
-5.95816
-5.85842
-5.78781
-5.70539
-5.80604
-5.98157
-6.00652
-5.86245
-5.87173
-5.87926
-5.88497
-5.89335
-5.90136
-5.91176
-5.921
-5.93238
-5.94284
-5.95518
-5.96674
-5.97966
-5.99184
-6.00477
-6.01695
-6.02927
-6.04078
-6.05191
-6.06214
-6.07161
-6.08015
-6.08771
-6.09437
-6.1
-6.10477
-6.10857
-6.1116
-6.1138
-6.11538
-6.11632
-6.11681
-6.11688
-6.11664
-6.11612
-6.11538
-6.11443
-6.11332
-6.11206
-6.11065
-6.10916
-6.10752
-6.10576
-6.1039
-6.10162
-6.09937
-6.09654
-6.09246
-6.09064
-6.08252
-6.07981
-6.10878
-6.06864
-6.00233
-6.09441
-6.13231
-6.05351
-5.9456
-5.8232
-5.71458
-5.809
-6.08652
-6.1295
-6.05211
-5.91984
-5.78792
-5.6869
-5.61472
-5.56757
-5.56784
-5.6531
-5.76658
-5.84821
-5.74839
-5.68682
-5.87688
-6.02295
-6.10175
-6.13606
-6.11222
-6.0523
-5.96626
-5.8721
-5.80125
-5.71532
-5.83168
-6.00208
-6.04289
-5.86246
-5.87172
-5.87926
-5.88497
-5.89335
-5.90136
-5.91176
-5.921
-5.93238
-5.94284
-5.95518
-5.96674
-5.97965
-5.99184
-6.00477
-6.01695
-6.02927
-6.04078
-6.05191
-6.06214
-6.07161
-6.08015
-6.08771
-6.09437
-6.1
-6.10477
-6.10857
-6.1116
-6.1138
-6.11538
-6.11632
-6.11681
-6.11688
-6.11664
-6.11612
-6.11538
-6.11444
-6.11332
-6.11206
-6.11065
-6.10916
-6.10753
-6.10576
-6.1039
-6.10162
-6.09937
-6.09654
-6.09248
-6.09065
-6.08255
-6.07992
-6.10859
-6.06852
-6.00275
-6.09541
-6.1323
-6.0527
-5.94581
-5.82411
-5.71654
-5.81206
-6.09246
-6.13069
-6.05403
-5.92128
-5.78916
-5.68803
-5.61529
-5.56729
-5.56761
-5.65335
-5.76935
-5.85496
-5.76709
-5.71922
-5.90554
-6.04639
-6.11953
-6.14635
-6.11921
-6.05958
-5.97712
-5.89023
-5.81823
-5.73219
-5.88185
-6.03536
-6.09453
-5.86247
-5.8717
-5.87926
-5.88497
-5.89335
-5.90136
-5.91176
-5.921
-5.93238
-5.94284
-5.95518
-5.96674
-5.97965
-5.99184
-6.00477
-6.01695
-6.02927
-6.04078
-6.0519
-6.06214
-6.07161
-6.08015
-6.08771
-6.09437
-6.1
-6.10477
-6.10857
-6.1116
-6.1138
-6.11538
-6.11632
-6.11681
-6.11688
-6.11664
-6.11612
-6.11538
-6.11444
-6.11332
-6.11206
-6.11066
-6.10916
-6.10753
-6.10576
-6.10391
-6.10163
-6.09939
-6.09656
-6.09251
-6.09066
-6.08262
-6.08013
-6.10819
-6.06808
-6.00343
-6.0967
-6.1323
-6.05129
-5.94616
-5.8247
-5.71907
-5.81643
-6.09892
-6.13171
-6.05654
-5.92302
-5.79066
-5.68937
-5.616
-5.56668
-5.56637
-5.6523
-5.77047
-5.86019
-5.79162
-5.7627
-5.94125
-6.07444
-6.14032
-6.15875
-6.12839
-6.06921
-5.99116
-5.91253
-5.83913
-5.7653
-5.97666
-6.11448
-6.16967
-5.86247
-5.87169
-5.87925
-5.88497
-5.89334
-5.90135
-5.91176
-5.921
-5.93237
-5.94284
-5.95518
-5.96674
-5.97965
-5.99184
-6.00477
-6.01695
-6.02927
-6.04078
-6.0519
-6.06214
-6.07161
-6.08015
-6.08771
-6.09437
-6.1
-6.10477
-6.10857
-6.1116
-6.1138
-6.11538
-6.11632
-6.11681
-6.11688
-6.11664
-6.11612
-6.11538
-6.11444
-6.11332
-6.11206
-6.11066
-6.10916
-6.10754
-6.10577
-6.10392
-6.10166
-6.09941
-6.0966
-6.09257
-6.0907
-6.08276
-6.08047
-6.10751
-6.06732
-6.0046
-6.09807
-6.13265
-6.04958
-5.94675
-5.82478
-5.72208
-5.82248
-6.10479
-6.13258
-6.05922
-5.92486
-5.79235
-5.69087
-5.61688
-5.56473
-5.56311
-5.64937
-5.76786
-5.86143
-5.82059
-5.81647
-5.98543
-6.1075
-6.16326
-6.17287
-6.13991
-6.08129
-6.00836
-5.93777
-5.86528
-5.82498
-6.11108
-6.25773
-6.29304
-5.86249
-5.87167
-5.87924
-5.88496
-5.89334
-5.90135
-5.91176
-5.921
-5.93237
-5.94284
-5.95518
-5.96674
-5.97965
-5.99184
-6.00477
-6.01695
-6.02927
-6.04078
-6.0519
-6.06214
-6.07161
-6.08014
-6.08771
-6.09437
-6.1
-6.10477
-6.10857
-6.1116
-6.1138
-6.11537
-6.11632
-6.11681
-6.11688
-6.11664
-6.11612
-6.11538
-6.11444
-6.11332
-6.11206
-6.11066
-6.10917
-6.10755
-6.10579
-6.10395
-6.10169
-6.09945
-6.09666
-6.09267
-6.09076
-6.08305
-6.08092
-6.10646
-6.06648
-6.00666
-6.09913
-6.1331
-6.04757
-5.94751
-5.82448
-5.72556
-5.83078
-6.11007
-6.13326
-6.06065
-5.92631
-5.79406
-5.69251
-5.61774
-5.56067
-5.5574
-5.64314
-5.75985
-5.85712
-5.85128
-5.87929
-6.03754
-6.14377
-6.18646
-6.1884
-6.1538
-6.09609
-6.02835
-5.96445
-5.89926
-5.91024
-6.20854
-6.33388
-6.41579
-5.8625
-5.87164
-5.87924
-5.88496
-5.89334
-5.90135
-5.91176
-5.921
-5.93237
-5.94284
-5.95518
-5.96674
-5.97965
-5.99184
-6.00477
-6.01695
-6.02927
-6.04078
-6.0519
-6.06214
-6.0716
-6.08014
-6.08771
-6.09437
-6.1
-6.10477
-6.10857
-6.1116
-6.1138
-6.11537
-6.11631
-6.11681
-6.11687
-6.11664
-6.11612
-6.11538
-6.11444
-6.11332
-6.11207
-6.11067
-6.10918
-6.10757
-6.10582
-6.10398
-6.10174
-6.0995
-6.09676
-6.09281
-6.09086
-6.08354
-6.08143
-6.10498
-6.06607
-6.0101
-6.0992
-6.13222
-6.04496
-5.94826
-5.82435
-5.72994
-5.84225
-6.11586
-6.13297
-6.05941
-5.92675
-5.79552
-5.6941
-5.61819
-5.55481
-5.55134
-5.63229
-5.74704
-5.84867
-5.8819
-5.94593
-6.09201
-6.17931
-6.20862
-6.20513
-6.17009
-6.11383
-6.05045
-5.99143
-5.94097
-5.99646
-6.22134
-6.30586
-6.38441
-5.86251
-5.87161
-5.87923
-5.88495
-5.89334
-5.90135
-5.91176
-5.921
-5.93237
-5.94284
-5.95517
-5.96674
-5.97965
-5.99183
-6.00477
-6.01695
-6.02927
-6.04078
-6.0519
-6.06214
-6.0716
-6.08014
-6.08771
-6.09436
-6.1
-6.10477
-6.10857
-6.1116
-6.1138
-6.11537
-6.11631
-6.11681
-6.11687
-6.11664
-6.11612
-6.11538
-6.11444
-6.11333
-6.11207
-6.11068
-6.1092
-6.10759
-6.10585
-6.10402
-6.10182
-6.09958
-6.09689
-6.09301
-6.091
-6.08424
-6.08195
-6.10303
-6.06654
-6.01499
-6.09741
-6.12849
-6.04165
-5.94886
-5.82545
-5.73604
-5.85654
-6.1222
-6.13199
-6.05558
-5.92565
-5.79639
-5.69524
-5.61738
-5.54944
-5.54465
-5.62175
-5.73636
-5.84148
-5.91254
-6.00879
-6.14208
-6.21117
-6.22923
-6.22248
-6.18851
-6.13365
-6.07307
-6.01748
-5.98335
-6.04846
-6.15167
-6.22243
-6.256
-5.86253
-5.87158
-5.87922
-5.88495
-5.89333
-5.90135
-5.91175
-5.921
-5.93237
-5.94283
-5.95517
-5.96674
-5.97965
-5.99183
-6.00476
-6.01695
-6.02927
-6.04078
-6.0519
-6.06214
-6.0716
-6.08014
-6.08771
-6.09436
-6.09999
-6.10477
-6.10857
-6.1116
-6.1138
-6.11537
-6.11631
-6.11681
-6.11687
-6.11664
-6.11612
-6.11538
-6.11445
-6.11333
-6.11208
-6.1107
-6.10922
-6.10762
-6.10589
-6.10408
-6.10191
-6.09968
-6.09706
-6.09327
-6.09117
-6.08512
-6.08245
-6.10069
-6.06789
-6.02064
-6.09355
-6.12168
-6.03789
-5.94925
-5.82922
-5.74511
-5.87281
-6.12727
-6.13035
-6.04955
-5.92254
-5.79618
-5.69557
-5.61481
-5.5458
-5.53841
-5.61776
-5.73295
-5.84059
-5.94217
-6.06157
-6.18335
-6.23713
-6.24756
-6.23967
-6.20835
-6.15447
-6.0947
-6.04126
-6.01602
-6.05027
-6.05113
-6.09926
-6.0989
-5.86255
-5.87154
-5.8792
-5.88494
-5.89333
-5.90134
-5.91175
-5.92099
-5.93237
-5.94283
-5.95517
-5.96673
-5.97965
-5.99183
-6.00476
-6.01694
-6.02927
-6.04078
-6.0519
-6.06213
-6.0716
-6.08014
-6.08771
-6.09436
-6.09999
-6.10476
-6.10856
-6.1116
-6.11379
-6.11537
-6.11631
-6.11681
-6.11687
-6.11664
-6.11612
-6.11539
-6.11445
-6.11334
-6.11209
-6.11071
-6.10924
-6.10766
-6.10595
-6.10416
-6.10203
-6.09981
-6.09727
-6.09359
-6.0914
-6.08612
-6.08294
-6.09811
-6.06982
-6.0266
-6.08842
-6.11284
-6.03412
-5.94982
-5.83646
-5.75838
-5.89064
-6.12845
-6.12688
-6.0407
-5.91682
-5.7946
-5.69466
-5.61246
-5.54477
-5.53696
-5.62441
-5.73898
-5.84853
-5.96962
-6.10062
-6.2119
-6.25583
-6.26302
-6.25675
-6.23011
-6.17713
-6.11547
-6.06092
-6.03147
-6.02194
-5.97544
-5.99379
-5.9728
-5.86258
-5.87149
-5.87919
-5.88493
-5.89332
-5.90134
-5.91175
-5.92099
-5.93237
-5.94283
-5.95517
-5.96673
-5.97965
-5.99183
-6.00476
-6.01694
-6.02927
-6.04077
-6.0519
-6.06213
-6.0716
-6.08014
-6.0877
-6.09436
-6.09999
-6.10476
-6.10856
-6.11159
-6.11379
-6.11537
-6.11631
-6.11681
-6.11687
-6.11664
-6.11613
-6.11539
-6.11446
-6.11335
-6.11211
-6.11074
-6.10928
-6.10771
-6.10602
-6.10425
-6.10218
-6.09999
-6.09753
-6.09399
-6.09172
-6.08721
-6.0835
-6.09551
-6.07192
-6.03285
-6.08301
-6.10304
-6.0308
-5.95115
-5.84789
-5.7765
-5.90893
-6.12334
-6.11892
-6.0278
-5.90814
-5.79163
-5.69359
-5.61225
-5.5483
-5.54382
-5.64123
-5.75434
-5.8639
-5.99197
-6.12339
-6.22715
-6.26952
-6.27543
-6.271
-6.24909
-6.19924
-6.13419
-6.07421
-6.0313
-5.98843
-5.9316
-5.93199
-5.89753
-5.86261
-5.87143
-5.87917
-5.88493
-5.89332
-5.90133
-5.91175
-5.92099
-5.93236
-5.94283
-5.95517
-5.96673
-5.97965
-5.99183
-6.00476
-6.01694
-6.02926
-6.04077
-6.05189
-6.06213
-6.07159
-6.08013
-6.0877
-6.09435
-6.09998
-6.10476
-6.10856
-6.11159
-6.11379
-6.11536
-6.11631
-6.1168
-6.11687
-6.11664
-6.11613
-6.1154
-6.11446
-6.11336
-6.11213
-6.11077
-6.10932
-6.10777
-6.10611
-6.10437
-6.10237
-6.10021
-6.09785
-6.09448
-6.09215
-6.08836
-6.0842
-6.09309
-6.07399
-6.03948
-6.07792
-6.09298
-6.02824
-5.9539
-5.86414
-5.79982
-5.92546
-6.10932
-6.10258
-6.00933
-5.8967
-5.78823
-5.6942
-5.61726
-5.55997
-5.56279
-5.66774
-5.77965
-5.88476
-6.00811
-6.13231
-6.23088
-6.27702
-6.27876
-6.26806
-6.24989
-6.20879
-6.1443
-6.07802
-6.02054
-5.95759
-5.89946
-5.89416
-5.84875
-5.86265
-5.87137
-5.87915
-5.88492
-5.89331
-5.90133
-5.91174
-5.92099
-5.93236
-5.94283
-5.95517
-5.96673
-5.97965
-5.99182
-6.00476
-6.01694
-6.02926
-6.04077
-6.05189
-6.06212
-6.07159
-6.08013
-6.08769
-6.09435
-6.09998
-6.10475
-6.10855
-6.11158
-6.11378
-6.11536
-6.11631
-6.1168
-6.11688
-6.11665
-6.11613
-6.1154
-6.11447
-6.11338
-6.11215
-6.11081
-6.10938
-6.10786
-6.10624
-6.10453
-6.10261
-6.1005
-6.09826
-6.0951
-6.09273
-6.08956
-6.08513
-6.09108
-6.07595
-6.04638
-6.07353
-6.08328
-6.02674
-5.95862
-5.88484
-5.82773
-5.93773
-6.0845
-6.07486
-5.98473
-5.88387
-5.78713
-5.7005
-5.63144
-5.5854
-5.59745
-5.70217
-5.81286
-5.91373
-6.02414
-6.13132
-6.21589
-6.26014
-6.26319
-6.25311
-6.23483
-6.1969
-6.13391
-6.06043
-5.98875
-5.91066
-5.8552
-5.83955
-5.81424
-5.86269
-5.87129
-5.87912
-5.8849
-5.8933
-5.90132
-5.91174
-5.92098
-5.93236
-5.94282
-5.95517
-5.96672
-5.97964
-5.99182
-6.00476
-6.01693
-6.02926
-6.04076
-6.05189
-6.06212
-6.07158
-6.08012
-6.08769
-6.09434
-6.09997
-6.10474
-6.10854
-6.11158
-6.11378
-6.11536
-6.1163
-6.1168
-6.11688
-6.11665
-6.11614
-6.11541
-6.11449
-6.1134
-6.11219
-6.11086
-6.10946
-6.10797
-6.10639
-6.10474
-6.10291
-6.10088
-6.09877
-6.09587
-6.0935
-6.09083
-6.08635
-6.08964
-6.07781
-6.05334
-6.07024
-6.0746
-6.02665
-5.96561
-5.90826
-5.85857
-5.94542
-6.05222
-6.03963
-5.9589
-5.87426
-5.79271
-5.71789
-5.66015
-5.62879
-5.64891
-5.74401
-5.84831
-5.94406
-6.03941
-6.1254
-6.19118
-6.22799
-6.23517
-6.22671
-6.20703
-6.16501
-6.09576
-6.01067
-5.92238
-5.83022
-5.74791
-5.70062
-5.68403
-5.86274
-5.87121
-5.87909
-5.88489
-5.89329
-5.90131
-5.91174
-5.92098
-5.93236
-5.94282
-5.95517
-5.96672
-5.97964
-5.99181
-6.00475
-6.01692
-6.02925
-6.04075
-6.05188
-6.06211
-6.07157
-6.08011
-6.08768
-6.09433
-6.09996
-6.10473
-6.10853
-6.11157
-6.11377
-6.11535
-6.1163
-6.11681
-6.11688
-6.11666
-6.11615
-6.11543
-6.11451
-6.11344
-6.11224
-6.11093
-6.10956
-6.10811
-6.1066
-6.10501
-6.1033
-6.10138
-6.09942
-6.09682
-6.0945
-6.09222
-6.08791
-6.08895
-6.07973
-6.0602
-6.06835
-6.06786
-6.0282
-5.97562
-5.93224
-5.89135
-5.95267
-6.02329
-6.0087
-5.94128
-5.87446
-5.81018
-5.75139
-5.70755
-5.68908
-5.71296
-5.79265
-5.88495
-5.97173
-6.05297
-6.12262
-6.17475
-6.20486
-6.21109
-6.19679
-6.16633
-6.1139
-6.03933
-5.95084
-5.86072
-5.7731
-5.69557
-5.64577
-5.61645
-5.8628
-5.87112
-5.87906
-5.88488
-5.89329
-5.90131
-5.91174
-5.92097
-5.93236
-5.94281
-5.95517
-5.96671
-5.97964
-5.99181
-6.00475
-6.01692
-6.02925
-6.04074
-6.05187
-6.0621
-6.07156
-6.0801
-6.08767
-6.09432
-6.09995
-6.10472
-6.10852
-6.11156
-6.11376
-6.11535
-6.1163
-6.11681
-6.11689
-6.11667
-6.11616
-6.11545
-6.11454
-6.11348
-6.1123
-6.11103
-6.1097
-6.10831
-6.10687
-6.10538
-6.1038
-6.10203
-6.10025
-6.098
-6.0958
-6.09381
-6.08988
-6.08919
-6.08196
-6.06687
-6.06822
-6.06397
-6.03191
-5.98934
-5.95642
-5.92592
-5.96415
-6.00675
-5.99174
-5.93883
-5.88915
-5.84231
-5.80116
-5.77286
-5.76498
-5.78828
-5.84979
-5.92639
-6.00195
-6.07139
-6.12861
-6.16899
-6.1879
-6.18418
-6.15685
-6.11089
-6.04696
-5.96998
-5.89096
-5.82221
-5.77726
-5.75629
-5.76331
-5.77782
-5.86286
-5.87101
-5.87902
-5.88486
-5.89328
-5.9013
-5.91173
-5.92096
-5.93236
-5.9428
-5.95517
-5.9667
-5.97964
-5.99179
-6.00475
-6.0169
-6.02924
-6.04073
-6.05186
-6.06208
-6.07155
-6.08008
-6.08765
-6.0943
-6.09994
-6.10471
-6.10851
-6.11155
-6.11376
-6.11535
-6.1163
-6.11682
-6.1169
-6.11669
-6.11619
-6.11549
-6.11459
-6.11355
-6.1124
-6.11117
-6.10989
-6.10857
-6.10724
-6.10586
-6.10445
-6.10288
-6.10133
-6.09944
-6.09748
-6.09574
-6.09234
-6.09054
-6.08482
-6.07344
-6.07029
-6.06375
-6.03867
-6.00645
-5.98173
-5.96112
-5.98147
-6.00444
-5.99111
-5.95273
-5.91869
-5.8882
-5.86346
-5.84965
-5.85115
-5.87316
-5.91797
-5.97494
-6.03274
-6.08462
-6.12419
-6.14734
-6.1501
-6.13282
-6.09526
-6.0425
-5.97828
-5.90862
-5.84227
-5.78253
-5.7409
-5.71184
-5.70503
-5.73638
-5.86293
-5.87091
-5.87899
-5.88485
-5.89327
-5.90128
-5.91174
-5.92095
-5.93236
-5.94279
-5.95517
-5.96669
-5.97964
-5.99178
-6.00475
-6.01688
-6.02923
-6.04071
-6.05185
-6.06206
-6.07153
-6.08006
-6.08763
-6.09429
-6.09992
-6.1047
-6.1085
-6.11155
-6.11375
-6.11536
-6.11631
-6.11684
-6.11693
-6.11673
-6.11623
-6.11554
-6.11466
-6.11365
-6.11253
-6.11136
-6.11014
-6.10892
-6.10771
-6.10649
-6.10529
-6.10398
-6.10271
-6.10124
-6.09963
-6.09817
-6.09544
-6.09319
-6.08868
-6.08032
-6.07504
-6.06776
-6.04918
-6.02639
-6.0088
-5.9959
-6.0049
-6.01589
-6.00637
-5.98197
-5.96186
-5.94557
-5.93412
-5.93065
-5.93745
-5.95623
-5.98664
-6.02329
-6.05975
-6.09102
-6.11319
-6.1236
-6.12102
-6.10586
-6.07976
-6.04515
-6.00559
-5.96272
-5.92131
-5.88032
-5.84308
-5.81157
-5.77428
-5.76203
-5.86301
-5.8708
-5.87895
-5.88483
-5.89327
-5.90127
-5.91174
-5.92094
-5.93237
-5.94277
-5.95518
-5.96667
-5.97965
-5.99176
-6.00475
-6.01686
-6.02923
-6.04068
-6.05183
-6.06203
-6.07152
-6.08004
-6.08762
-6.09427
-6.09991
-6.10469
-6.10849
-6.11155
-6.11376
-6.11537
-6.11634
-6.11688
-6.11697
-6.11678
-6.1163
-6.11563
-6.11477
-6.1138
-6.11272
-6.11161
-6.11049
-6.10939
-6.10833
-6.10731
-6.10636
-6.10538
-6.10447
-6.10348
-6.10236
-6.1013
-6.09937
-6.09733
-6.09399
-6.08817
-6.08286
-6.07638
-6.06378
-6.04916
-6.03803
-6.03101
-6.03498
-6.04082
-6.03686
-6.02508
-6.01656
-6.0115
-6.01003
-6.01363
-6.02333
-6.03933
-6.06091
-6.08555
-6.10995
-6.13138
-6.14807
-6.15912
-6.16459
-6.16525
-6.1626
-6.15825
-6.15446
-6.15265
-6.1552
-6.16327
-6.17769
-6.20182
-6.23133
-6.27459
-5.86308
-5.87069
-5.87892
-5.88481
-5.89327
-5.90124
-5.91175
-5.92091
-5.93239
-5.94275
-5.95519
-5.96664
-5.97966
-5.99172
-6.00475
-6.01683
-6.02922
-6.04065
-6.05182
-6.06201
-6.0715
-6.08003
-6.08761
-6.09427
-6.09991
-6.1047
-6.10851
-6.11158
-6.11379
-6.11542
-6.11639
-6.11695
-6.11705
-6.11688
-6.11641
-6.11577
-6.11493
-6.114
-6.11299
-6.11196
-6.11095
-6.11
-6.10914
-6.10837
-6.10773
-6.10716
-6.1067
-6.10629
-6.10581
-6.10536
-6.10442
-6.10318
-6.10123
-6.09784
-6.09409
-6.08978
-6.08276
-6.07519
-6.07008
-6.06826
-6.07213
-6.07821
-6.08095
-6.07984
-6.0804
-6.08373
-6.08952
-6.09843
-6.11086
-6.12668
-6.1453
-6.16568
-6.18655
-6.20674
-6.22542
-6.2423
-6.2575
-6.2716
-6.28536
-6.29978
-6.31581
-6.33444
-6.35641
-6.38264
-6.41327
-6.44937
-6.49043
-6.53721
-5.86313
-5.87061
-5.8789
-5.88478
-5.89328
-5.90121
-5.91177
-5.92087
-5.93241
-5.9427
-5.95521
-5.96659
-5.97967
-5.99168
-6.00475
-6.01678
-6.02922
-6.04062
-6.05182
-6.06199
-6.0715
-6.08003
-6.08761
-6.0943
-6.09992
-6.10475
-6.10854
-6.11165
-6.11385
-6.11552
-6.11647
-6.11707
-6.11716
-6.11703
-6.11656
-6.11595
-6.11514
-6.11427
-6.11332
-6.11239
-6.11149
-6.1107
-6.11005
-6.10955
-6.10925
-6.10911
-6.10916
-6.10936
-6.10962
-6.10997
-6.11011
-6.11006
-6.10968
-6.10858
-6.1072
-6.10572
-6.10339
-6.10144
-6.10157
-6.1045
-6.11111
-6.12023
-6.12907
-6.13562
-6.14247
-6.15149
-6.16226
-6.17509
-6.19019
-6.20744
-6.22651
-6.24693
-6.2682
-6.28989
-6.31169
-6.33354
-6.35547
-6.37777
-6.40072
-6.42476
-6.45014
-6.47731
-6.50633
-6.53756
-6.57078
-6.60633
-6.64372
-6.68327
-5.86316
-5.87056
-5.8789
-5.88475
-5.8933
-5.90117
-5.91179
-5.92082
-5.93243
-5.94265
-5.95523
-5.96653
-5.97968
-5.99162
-6.00476
-6.01674
-6.02922
-6.04059
-6.05181
-6.06199
-6.0715
-6.08005
-6.08762
-6.09435
-6.09995
-6.10483
-6.10859
-6.11175
-6.11392
-6.11564
-6.11658
-6.11722
-6.1173
-6.1172
-6.11674
-6.11617
-6.11538
-6.11457
-6.11367
-6.11283
-6.11204
-6.11142
-6.11096
-6.11073
-6.11074
-6.11103
-6.11158
-6.11238
-6.11337
-6.11456
-6.11578
-6.117
-6.1182
-6.11921
-6.12024
-6.12156
-6.12308
-6.12556
-6.13004
-6.13708
-6.14704
-6.15971
-6.17347
-6.18532
-6.19637
-6.2092
-6.22333
-6.23897
-6.25625
-6.27508
-6.29531
-6.3167
-6.33903
-6.36211
-6.38582
-6.41012
-6.435
-6.46056
-6.48685
-6.51402
-6.5421
-6.57122
-6.60131
-6.63248
-6.66452
-6.69755
-6.73118
-6.76567
-5.86316
-5.87054
-5.87891
-5.88472
-5.89332
-5.90112
-5.91182
-5.92077
-5.93246
-5.94259
-5.95526
-5.96647
-5.9797
-5.99157
-6.00477
-6.0167
-6.02922
-6.04057
-6.05182
-6.06199
-6.07151
-6.08008
-6.08764
-6.09441
-6.09999
-6.10493
-6.10865
-6.11188
-6.11401
-6.1158
-6.11669
-6.11739
-6.11745
-6.11741
-6.11693
-6.11643
-6.11564
-6.1149
-6.11404
-6.1133
-6.11261
-6.11214
-6.11186
-6.11189
-6.11222
-6.11291
-6.11394
-6.11534
-6.11706
-6.1191
-6.12139
-6.12391
-6.12667
-6.12965
-6.133
-6.137
-6.1418
-6.14794
-6.15609
-6.1667
-6.17994
-6.196
-6.21373
-6.22939
-6.24335
-6.25878
-6.27521
-6.29279
-6.3116
-6.33162
-6.35275
-6.37488
-6.39789
-6.42167
-6.44615
-6.47126
-6.49698
-6.52328
-6.55016
-6.5776
-6.60557
-6.63405
-6.66296
-6.69225
-6.72178
-6.75154
-6.78129
-6.81117
-5.86314
-5.87055
-5.87894
-5.88468
-5.89335
-5.90108
-5.91186
-5.92071
-5.9325
-5.94253
-5.95529
-5.96641
-5.97973
-5.9915
-6.00479
-6.01665
-6.02923
-6.04055
-6.05182
-6.062
-6.07152
-6.08014
-6.08766
-6.09451
-6.10003
-6.10506
-6.10872
-6.11205
-6.1141
-6.11599
-6.11681
-6.11761
-6.1176
-6.11766
-6.11713
-6.11671
-6.11592
-6.11526
-6.11443
-6.1138
-6.11318
-6.11286
-6.11275
-6.11302
-6.11363
-6.1147
-6.1162
-6.11818
-6.1206
-6.12348
-6.12679
-6.13055
-6.13481
-6.1396
-6.14508
-6.1515
-6.15911
-6.1683
-6.17953
-6.19316
-6.20927
-6.2282
-6.249
-6.26733
-6.28325
-6.3004
-6.31829
-6.33704
-6.35671
-6.37728
-6.3987
-6.42089
-6.44377
-6.46727
-6.49131
-6.51583
-6.54076
-6.56605
-6.59165
-6.61748
-6.64349
-6.66961
-6.69576
-6.72187
-6.74785
-6.77364
-6.79911
-6.82438
-5.8631
-5.87059
-5.87898
-5.88465
-5.89339
-5.90103
-5.9119
-5.92065
-5.93254
-5.94245
-5.95533
-5.96633
-5.97976
-5.99144
-6.0048
-6.01661
-6.02924
-6.04054
-6.05183
-6.06204
-6.07152
-6.08022
-6.08768
-6.09464
-6.10006
-6.10524
-6.10877
-6.11226
-6.11418
-6.11623
-6.11692
-6.11788
-6.11775
-6.11795
-6.11733
-6.11705
-6.11619
-6.11566
-6.1148
-6.11431
-6.11372
-6.11358
-6.11358
-6.11409
-6.11495
-6.11639
-6.11831
-6.12083
-6.1239
-6.12759
-6.13186
-6.13679
-6.14242
-6.14886
-6.15624
-6.16482
-6.17481
-6.18654
-6.20032
-6.21643
-6.23492
-6.25615
-6.27925
-6.2994
-6.31658
-6.33475
-6.35339
-6.3726
-6.39244
-6.41288
-6.43387
-6.45538
-6.47733
-6.49965
-6.52228
-6.54514
-6.56817
-6.59129
-6.61444
-6.63755
-6.66055
-6.68338
-6.70597
-6.72826
-6.75018
-6.77169
-6.79272
-6.81337
-5.86304
-5.87065
-5.87904
-5.88462
-5.89343
-5.90097
-5.91194
-5.92058
-5.93258
-5.94237
-5.95537
-5.96625
-5.97978
-5.99137
-6.00482
-6.01657
-6.02925
-6.04054
-6.05182
-6.06209
-6.07152
-6.08033
-6.08768
-6.09481
-6.10007
-6.10547
-6.1088
-6.11253
-6.11422
-6.11653
-6.11699
-6.11819
-6.11785
-6.11829
-6.11748
-6.11742
-6.1164
-6.11608
-6.11511
-6.11481
-6.11417
-6.11422
-6.11426
-6.11501
-6.11603
-6.1178
-6.12003
-6.12304
-6.12662
-6.131
-6.13605
-6.14195
-6.14869
-6.15647
-6.16535
-6.17562
-6.18743
-6.20107
-6.21671
-6.23462
-6.2548
-6.27763
-6.30223
-6.32345
-6.34129
-6.35987
-6.37868
-6.39779
-6.41724
-6.43701
-6.45707
-6.47739