/*--------------------------------*- C++ -*----------------------------------*\
| =========                 |                                                 |
| \\      /  F ield         | OpenFOAM: The Open Source CFD Toolbox           |
|  \\    /   O peration     | Version:  2306                                  |
|   \\  /    A nd           | Website:  www.openfoam.com                      |
|    \\/     M anipulation  |                                                 |
\*---------------------------------------------------------------------------*/
FoamFile
{
    version     2.0;
    format      ascii;
    arch        "LSB;label=32;scalar=64";
    class       volScalarField;
    location    "1600";
    object      nut;
}
// * * * * * * * * * * * * * * * * * * * * * * * * * * * * * * * * * * * * * //

dimensions      [0 2 -1 0 0 0 0];

internalField   uniform 0;

boundaryField
{
    inlet
    {
        type            calculated;
        value           uniform 0;
    }
    outlet
    {
        type            calculated;
        value           uniform 0;
    }
    lowerWallStartup
    {
        type            symmetryPlane;
    }
    upperWallStartup
    {
        type            symmetryPlane;
    }
    upperWall
    {
        type            nutUBlendedWallFunction;
        value           nonuniform List<scalar> 
218
(
1.17917e-08
3.97477e-09
2.91935e-09
2.46307e-09
2.19352e-09
2.02041e-09
1.8857e-09
1.78748e-09
1.70555e-09
1.6461e-09
1.59455e-09
1.55685e-09
1.52447e-09
1.49957e-09
1.48109e-09
1.46323e-09
1.45555e-09
1.44038e-09
1.44138e-09
1.42536e-09
1.43356e-09
1.41406e-09
1.42861e-09
1.40393e-09
1.42433e-09
1.39345e-09
1.41927e-09
1.38188e-09
1.41304e-09
1.36966e-09
1.40671e-09
1.35837e-09
1.4021e-09
1.34937e-09
1.40011e-09
1.34301e-09
1.40083e-09
1.34006e-09
1.40562e-09
1.34379e-09
1.41893e-09
1.36095e-09
1.44898e-09
1.40164e-09
1.50771e-09
1.47875e-09
1.60995e-09
1.60684e-09
1.77156e-09
1.80169e-09
2.01016e-09
2.0837e-09
2.35174e-09
2.48754e-09
2.82729e-09
3.05629e-09
3.43426e-09
3.77416e-09
4.17046e-09
4.6204e-09
5.086e-09
5.67956e-09
6.2265e-09
6.91367e-09
7.40275e-09
7.77938e-09
8.18287e-09
8.41563e-09
8.88448e-09
9.06005e-09
9.59687e-09
9.78189e-09
1.00303e-08
1.02698e-08
1.02326e-08
1.05615e-08
1.06478e-08
1.09892e-08
1.12005e-08
1.12599e-08
1.14085e-08
1.12924e-08
1.1355e-08
1.14819e-08
1.14285e-08
1.17269e-08
1.15179e-08
1.17138e-08
1.14966e-08
1.15049e-08
1.12876e-08
1.12463e-08
1.10475e-08
1.08856e-08
1.07614e-08
1.05048e-08
1.05322e-08
1.02517e-08
1.04053e-08
1.01245e-08
1.02761e-08
9.95081e-09
1.0001e-08
9.56825e-09
9.51875e-09
8.97046e-09
8.87853e-09
8.26296e-09
8.13316e-09
7.46946e-09
7.21334e-09
6.42361e-09
5.97099e-09
4.9004e-09
4.49126e-09
2.94977e-09
2.72368e-09
9.53009e-10
1.14192e-09
8.62778e-10
0
3.76361e-09
0
0
1.62736e-09
2.07934e-08
5.41853e-08
1.12743e-07
1.75279e-07
2.24868e-07
2.48624e-07
1.94057e-07
4.21851e-08
5.57643e-08
8.40779e-08
9.98282e-08
1.06747e-07
1.02995e-07
8.51905e-08
5.33001e-08
3.19206e-08
3.71947e-08
1.12554e-09
1.17179e-07
3.64591e-07
5.32192e-07
5.10863e-07
4.29865e-07
3.96062e-07
4.0467e-07
4.30437e-07
4.56012e-07
4.7244e-07
5.14886e-07
5.91374e-07
6.55749e-07
6.63974e-07
4.11836e-07
3.06804e-08
5.28534e-08
1.64222e-07
2.59586e-07
3.503e-07
4.15852e-07
4.7071e-07
4.99932e-07
5.12567e-07
5.04245e-07
4.83599e-07
4.5156e-07
4.12435e-07
3.72981e-07
3.343e-07
3.01051e-07
2.73378e-07
2.51883e-07
2.37498e-07
2.17391e-07
1.96787e-07
1.77632e-07
1.51474e-07
1.48188e-07
1.01894e-07
9.67224e-08
7.40438e-08
7.1654e-08
3.94609e-08
8.78421e-09
1.22083e-08
4.26003e-08
7.21929e-08
8.69753e-08
8.27393e-08
6.45975e-08
8.90762e-08
1.46172e-07
8.76813e-08
6.26792e-09
0
8.98932e-08
2.46903e-07
2.66683e-07
1.74838e-07
1.41505e-07
8.71527e-08
1.41742e-08
2.46308e-08
5.08969e-08
2.60117e-08
5.61708e-09
1.24927e-09
3.29588e-09
1.32433e-09
0
0.00222077
0
0
0
)
;
    }
    lowerWall
    {
        type            nutUBlendedWallFunction;
        value           nonuniform List<scalar> 
266
(
1.27521e-08
4.25827e-09
3.11891e-09
2.62349e-09
2.33553e-09
2.14625e-09
2.00381e-09
1.89563e-09
1.81016e-09
1.7444e-09
1.69153e-09
1.65018e-09
1.6171e-09
1.59115e-09
1.5712e-09
1.55534e-09
1.54402e-09
1.53454e-09
1.52839e-09
1.52244e-09
1.51881e-09
1.51437e-09
1.51153e-09
1.50742e-09
1.50432e-09
1.49983e-09
1.49583e-09
1.49056e-09
1.48555e-09
1.47971e-09
1.47419e-09
1.46829e-09
1.46254e-09
1.45627e-09
1.44933e-09
1.44105e-09
1.43093e-09
1.41856e-09
1.40301e-09
1.38466e-09
1.36115e-09
1.3337e-09
1.30034e-09
1.25515e-09
1.2127e-09
1.14385e-09
1.06514e-09
1.0373e-09
8.06656e-10
9.17425e-10
1.11255e-09
1.3562e-09
6.93251e-10
3.57389e-09
0.00115522
4.53431e-09
5.47202e-09
4.95927e-09
2.72711e-09
1.09684e-08
2.79656e-08
1.13798e-08
8.15262e-09
1.22685e-08
1.1667e-08
8.26811e-09
3.1998e-09
0
4.7734e-09
1.39693e-08
2.36388e-08
2.88567e-08
1.59284e-08
4.14724e-09
1.55726e-08
3.28969e-08
2.47762e-08
0
1.49891e-08
2.66356e-08
3.19352e-08
3.18981e-08
2.51016e-08
1.51289e-08
1.40508e-09
1.84229e-08
1.87755e-09
0
0.00138721
0
0
0
0
0
0
0
0
0
0
0
0
2.10761e-06
4.36905e-06
7.35765e-06
1.08434e-05
1.49487e-05
2.06318e-05
2.70227e-05
3.39251e-05
4.09022e-05
4.7891e-05
5.20368e-05
4.93162e-05
4.06521e-05
2.55237e-05
3.57188e-06
0
0
1.41587e-05
3.26379e-05
4.76662e-05
5.98881e-05
6.97168e-05
7.75949e-05
8.38212e-05
8.8645e-05
9.23209e-05
9.51541e-05
9.72584e-05
9.89134e-05
0.000100121
0.000101173
0.000101923
0.000102732
0.000103293
0.000104108
0
1.48199e-09
4.19833e-09
6.19431e-09
8.19708e-09
1.0264e-08
1.20597e-08
1.56745e-08
2.02148e-08
2.27538e-08
2.12707e-08
1.50304e-08
6.61443e-09
0
6.14574e-09
9.52131e-10
7.40304e-09
9.52884e-09
1.2212e-08
1.75031e-08
1.59007e-08
1.30808e-08
0
6.86596e-09
0
5.54138e-09
4.87479e-09
7.44145e-09
1.0896e-08
1.15839e-08
0
8.34349e-09
9.07528e-09
0
7.03548e-10
3.03689e-09
3.37201e-09
4.86202e-09
6.83994e-09
3.28714e-09
3.75276e-10
1.20309e-09
1.47672e-09
1.94592e-09
2.54184e-09
1.49283e-09
0
0
1.01288e-09
1.30122e-09
8.36247e-10
1.26118e-09
1.92806e-09
3.19849e-09
5.59738e-09
9.43469e-09
1.24932e-08
1.1617e-08
8.46168e-09
6.47157e-09
6.43874e-09
7.31162e-09
8.19337e-09
8.69884e-09
8.8285e-09
8.32444e-09
7.29653e-09
6.32617e-09
5.05158e-09
3.73492e-09
2.89022e-09
2.06752e-09
1.65414e-09
2.02032e-09
2.84865e-09
3.30423e-09
3.06574e-09
2.53214e-09
2.12362e-09
2.24913e-09
2.63427e-09
2.94934e-09
2.86109e-09
2.543e-09
1.93774e-09
1.2984e-09
6.96391e-10
6.56962e-10
6.419e-10
1.13575e-09
1.69552e-09
2.21534e-09
2.88047e-09
3.43208e-09
4.11597e-09
4.6852e-09
5.33323e-09
5.56708e-09
5.60686e-09
5.4999e-09
5.62951e-09
5.90991e-09
6.46021e-09
7.37118e-09
8.7618e-09
1.0853e-08
1.38532e-08
1.81254e-08
2.40995e-08
3.22641e-08
4.24747e-08
5.34437e-08
6.26976e-08
6.61416e-08
5.90741e-08
4.12232e-08
1.84042e-08
0
6.5969e-09
2.99192e-09
8.85788e-09
1.14099e-08
2.9117e-10
4.55288e-09
1.06229e-08
1.5172e-08
6.51248e-09
4.39431e-09
1.71784e-08
3.20489e-08
)
;
    }
    front
    {
        type            empty;
    }
    back
    {
        type            empty;
    }
}


// ************************************************************************* //
