/*--------------------------------*- C++ -*----------------------------------*\
| =========                 |                                                 |
| \\      /  F ield         | OpenFOAM: The Open Source CFD Toolbox           |
|  \\    /   O peration     | Version:  2306                                  |
|   \\  /    A nd           | Website:  www.openfoam.com                      |
|    \\/     M anipulation  |                                                 |
\*---------------------------------------------------------------------------*/
FoamFile
{
    version     2.0;
    format      ascii;
    arch        "LSB;label=32;scalar=64";
    class       volScalarField;
    location    "1600";
    object      p;
}
// * * * * * * * * * * * * * * * * * * * * * * * * * * * * * * * * * * * * * //

dimensions      [0 2 -2 0 0 0 0];

internalField   nonuniform List<scalar> 
20540
(
-5725.28
-5723.31
-5725.28
-5723.31
-5725.28
-5723.31
-5725.28
-5723.31
-5725.28
-5723.31
-5725.28
-5723.32
-5725.28
-5723.32
-5725.28
-5723.32
-5725.28
-5723.33
-5725.28
-5723.34
-5725.28
-5723.35
-5725.28
-5723.36
-5725.29
-5723.37
-5725.29
-5723.38
-5725.29
-5723.4
-5725.29
-5723.42
-5725.3
-5723.45
-5725.3
-5723.48
-5725.31
-5723.52
-5725.31
-5723.56
-5725.32
-5723.61
-5725.33
-5723.67
-5725.34
-5723.74
-5725.35
-5723.82
-5725.36
-5723.91
-5725.37
-5724.02
-5725.39
-5724.13
-5725.41
-5724.25
-5725.42
-5724.37
-5725.44
-5724.47
-5725.45
-5724.54
-5725.45
-5724.57
-5725.45
-5724.56
-5725.45
-5724.51
-5725.44
-5724.41
-5725.42
-5724.29
-5725.41
-5724.16
-5725.39
-5724.03
-5725.38
-5723.91
-5725.36
-5723.8
-5725.35
-5723.71
-5725.34
-5723.62
-5725.33
-5723.55
-5725.32
-5723.49
-5725.31
-5723.43
-5725.31
-5723.39
-5725.3
-5723.35
-5725.3
-5723.32
-5725.29
-5723.29
-5725.29
-5723.27
-5725.29
-5723.25
-5725.29
-5723.23
-5725.28
-5723.22
-5725.28
-5723.21
-5725.28
-5723.2
-5725.28
-5723.19
-5725.28
-5723.18
-5725.28
-5723.18
-5725.28
-5723.17
-5725.28
-5723.17
-5725.28
-5723.17
-5725.28
-5723.16
-5725.27
-5723.16
-5725.27
-5723.16
-5725.27
-5723.16
-5726.53
-5735.66
-5742.99
-5748.56
-5756.74
-5764.57
-5774.73
-5783.76
-5794.87
-5805.09
-5817.14
-5828.43
-5841.05
-5852.95
-5865.58
-5877.48
-5889.52
-5900.76
-5911.62
-5921.62
-5930.87
-5939.21
-5946.6
-5953.1
-5958.6
-5963.26
-5966.98
-5969.94
-5972.09
-5973.62
-5974.54
-5975.02
-5975.09
-5974.85
-5974.35
-5973.62
-5972.7
-5971.61
-5970.38
-5969.01
-5967.54
-5965.95
-5964.22
-5962.41
-5960.17
-5957.98
-5955.21
-5951.23
-5949.45
-5941.48
-5938.79
-5967.3
-5927.56
-5862.45
-5951.56
-5989.68
-5912.6
-5807.31
-5684.53
-5577.79
-5668.27
-5930.19
-5983
-5907.82
-5779.35
-5650.93
-5552.2
-5482.86
-5438.8
-5437.8
-5518.32
-5619.31
-5689.99
-5596.44
-5525.18
-5681.79
-5804.12
-5897.05
-5963.63
-5954.69
-5896.47
-5803.98
-5697.14
-5626.82
-5552.4
-5619.67
-5820.79
-5707.69
-5726.53
-5735.66
-5742.99
-5748.56
-5756.74
-5764.57
-5774.73
-5783.76
-5794.87
-5805.09
-5817.14
-5828.43
-5841.05
-5852.95
-5865.58
-5877.48
-5889.52
-5900.76
-5911.62
-5921.62
-5930.87
-5939.21
-5946.6
-5953.1
-5958.6
-5963.26
-5966.98
-5969.94
-5972.09
-5973.62
-5974.54
-5975.02
-5975.09
-5974.85
-5974.35
-5973.62
-5972.7
-5971.61
-5970.38
-5969.01
-5967.54
-5965.95
-5964.22
-5962.41
-5960.17
-5957.98
-5955.21
-5951.23
-5949.45
-5941.48
-5938.79
-5967.3
-5927.56
-5862.45
-5951.55
-5989.67
-5912.6
-5807.31
-5684.54
-5577.8
-5668.27
-5930.18
-5983
-5907.83
-5779.36
-5650.94
-5552.21
-5482.87
-5438.82
-5437.82
-5518.34
-5619.31
-5689.98
-5596.41
-5525.22
-5681.8
-5804.11
-5897.03
-5963.62
-5954.69
-5896.48
-5804.01
-5697.19
-5626.85
-5552.27
-5619.81
-5819.77
-5719.24
-5726.53
-5735.66
-5742.99
-5748.56
-5756.74
-5764.57
-5774.73
-5783.76
-5794.87
-5805.09
-5817.14
-5828.43
-5841.05
-5852.95
-5865.58
-5877.48
-5889.52
-5900.76
-5911.62
-5921.62
-5930.87
-5939.21
-5946.6
-5953.1
-5958.6
-5963.26
-5966.98
-5969.94
-5972.09
-5973.62
-5974.54
-5975.02
-5975.09
-5974.85
-5974.35
-5973.62
-5972.7
-5971.61
-5970.38
-5969.01
-5967.54
-5965.95
-5964.22
-5962.41
-5960.17
-5957.98
-5955.21
-5951.23
-5949.45
-5941.48
-5938.79
-5967.3
-5927.56
-5862.45
-5951.55
-5989.67
-5912.61
-5807.32
-5684.55
-5577.81
-5668.27
-5930.18
-5983
-5907.84
-5779.37
-5650.95
-5552.22
-5482.88
-5438.83
-5437.83
-5518.36
-5619.35
-5690
-5596.35
-5525.23
-5681.86
-5804.14
-5897.06
-5963.68
-5954.74
-5896.53
-5804.07
-5697.27
-5626.95
-5552.21
-5620.24
-5817.87
-5729.76
-5726.53
-5735.66
-5742.99
-5748.56
-5756.74
-5764.57
-5774.73
-5783.76
-5794.87
-5805.09
-5817.14
-5828.43
-5841.05
-5852.95
-5865.58
-5877.48
-5889.52
-5900.76
-5911.62
-5921.62
-5930.87
-5939.21
-5946.6
-5953.1
-5958.6
-5963.26
-5966.98
-5969.94
-5972.09
-5973.62
-5974.54
-5975.02
-5975.09
-5974.85
-5974.35
-5973.62
-5972.7
-5971.61
-5970.38
-5969.01
-5967.54
-5965.95
-5964.22
-5962.41
-5960.17
-5957.98
-5955.21
-5951.23
-5949.45
-5941.48
-5938.78
-5967.3
-5927.56
-5862.45
-5951.55
-5989.68
-5912.62
-5807.32
-5684.57
-5577.85
-5668.28
-5930.21
-5983.03
-5907.88
-5779.38
-5650.96
-5552.25
-5482.9
-5438.85
-5437.86
-5518.4
-5619.46
-5690.11
-5596.2
-5525.15
-5682.04
-5804.35
-5897.31
-5963.99
-5954.91
-5896.65
-5804.23
-5697.47
-5627.18
-5552.29
-5621.22
-5815.04
-5738.27
-5726.53
-5735.65
-5742.99
-5748.56
-5756.74
-5764.57
-5774.73
-5783.76
-5794.87
-5805.09
-5817.14
-5828.43
-5841.05
-5852.95
-5865.58
-5877.48
-5889.52
-5900.76
-5911.62
-5921.62
-5930.87
-5939.21
-5946.6
-5953.1
-5958.6
-5963.26
-5966.98
-5969.94
-5972.09
-5973.62
-5974.54
-5975.02
-5975.09
-5974.85
-5974.35
-5973.62
-5972.7
-5971.61
-5970.38
-5969.01
-5967.54
-5965.95
-5964.22
-5962.41
-5960.17
-5957.98
-5955.21
-5951.23
-5949.45
-5941.48
-5938.78
-5967.3
-5927.57
-5862.45
-5951.55
-5989.69
-5912.64
-5807.31
-5684.6
-5577.92
-5668.33
-5930.31
-5983.1
-5907.96
-5779.41
-5650.99
-5552.29
-5482.94
-5438.87
-5437.89
-5518.48
-5619.73
-5690.41
-5595.86
-5524.89
-5682.42
-5805.16
-5898.33
-5964.81
-5955.24
-5896.89
-5804.55
-5697.92
-5627.69
-5552.74
-5622.76
-5812.25
-5750.03
-5726.54
-5735.65
-5742.99
-5748.56
-5756.74
-5764.56
-5774.73
-5783.76
-5794.87
-5805.09
-5817.14
-5828.43
-5841.05
-5852.95
-5865.58
-5877.48
-5889.51
-5900.76
-5911.62
-5921.62
-5930.87
-5939.21
-5946.6
-5953.1
-5958.6
-5963.26
-5966.98
-5969.94
-5972.09
-5973.62
-5974.54
-5975.02
-5975.09
-5974.85
-5974.35
-5973.62
-5972.7
-5971.61
-5970.38
-5969.01
-5967.54
-5965.95
-5964.22
-5962.41
-5960.17
-5957.98
-5955.21
-5951.23
-5949.45
-5941.48
-5938.78
-5967.3
-5927.58
-5862.46
-5951.57
-5989.72
-5912.69
-5807.31
-5684.67
-5578.06
-5668.48
-5930.57
-5983.24
-5908.11
-5779.46
-5651.05
-5552.36
-5482.99
-5438.9
-5437.95
-5518.63
-5620.26
-5691.02
-5595.25
-5524.42
-5683.27
-5807.65
-5901.33
-5966.32
-5955.77
-5897.31
-5805.15
-5698.78
-5628.63
-5553.56
-5625.16
-5810.73
-5764.93
-5726.54
-5735.65
-5742.99
-5748.56
-5756.74
-5764.56
-5774.73
-5783.76
-5794.87
-5805.09
-5817.14
-5828.43
-5841.05
-5852.95
-5865.58
-5877.48
-5889.51
-5900.76
-5911.62
-5921.62
-5930.87
-5939.21
-5946.6
-5953.1
-5958.6
-5963.26
-5966.98
-5969.94
-5972.09
-5973.62
-5974.54
-5975.02
-5975.09
-5974.85
-5974.35
-5973.62
-5972.7
-5971.61
-5970.38
-5969.01
-5967.54
-5965.95
-5964.22
-5962.41
-5960.17
-5957.98
-5955.21
-5951.23
-5949.45
-5941.48
-5938.79
-5967.31
-5927.6
-5862.48
-5951.62
-5989.76
-5912.76
-5807.31
-5684.82
-5578.3
-5668.82
-5931.19
-5983.48
-5908.33
-5779.58
-5651.17
-5552.49
-5483.08
-5438.94
-5438.04
-5518.88
-5621.15
-5692.09
-5594.42
-5523.76
-5684.93
-5812.73
-5906.69
-5968.56
-5956.54
-5898.02
-5806.17
-5700.29
-5630.24
-5554.96
-5628.97
-5811.31
-5781.25
-5726.54
-5735.65
-5742.99
-5748.56
-5756.74
-5764.56
-5774.73
-5783.76
-5794.86
-5805.09
-5817.14
-5828.43
-5841.05
-5852.95
-5865.58
-5877.48
-5889.51
-5900.76
-5911.62
-5921.62
-5930.87
-5939.21
-5946.6
-5953.1
-5958.6
-5963.26
-5966.98
-5969.94
-5972.08
-5973.62
-5974.54
-5975.02
-5975.09
-5974.85
-5974.35
-5973.62
-5972.7
-5971.61
-5970.38
-5969.01
-5967.54
-5965.95
-5964.22
-5962.41
-5960.17
-5957.98
-5955.21
-5951.23
-5949.45
-5941.48
-5938.79
-5967.31
-5927.65
-5862.51
-5951.7
-5989.81
-5912.88
-5807.34
-5685.08
-5578.66
-5669.31
-5932.35
-5983.89
-5908.62
-5779.79
-5651.35
-5552.69
-5483.22
-5438.95
-5438.13
-5519.23
-5622.51
-5693.88
-5593.64
-5522.9
-5687.94
-5821.12
-5914.08
-5971.53
-5957.68
-5899.12
-5807.81
-5702.8
-5632.92
-5557.26
-5634.95
-5813.96
-5798.4
-5726.55
-5735.64
-5742.99
-5748.56
-5756.74
-5764.56
-5774.73
-5783.76
-5794.86
-5805.09
-5817.14
-5828.43
-5841.05
-5852.95
-5865.58
-5877.48
-5889.51
-5900.76
-5911.62
-5921.62
-5930.87
-5939.21
-5946.6
-5953.1
-5958.6
-5963.26
-5966.98
-5969.94
-5972.08
-5973.62
-5974.54
-5975.02
-5975.09
-5974.85
-5974.35
-5973.62
-5972.7
-5971.61
-5970.38
-5969.01
-5967.54
-5965.95
-5964.22
-5962.41
-5960.17
-5957.98
-5955.21
-5951.23
-5949.45
-5941.48
-5938.79
-5967.3
-5927.71
-5862.59
-5951.86
-5989.88
-5913.05
-5807.39
-5685.55
-5579.15
-5669.98
-5934.21
-5984.51
-5909.02
-5780.14
-5651.66
-5553.01
-5483.44
-5438.91
-5438.24
-5519.73
-5624.41
-5696.66
-5593.68
-5522.39
-5693.49
-5832.7
-5923.07
-5975.25
-5959.37
-5900.8
-5810.4
-5706.83
-5637.23
-5560.88
-5643.74
-5819.29
-5817.85
-5726.55
-5735.64
-5742.99
-5748.56
-5756.74
-5764.56
-5774.73
-5783.76
-5794.86
-5805.09
-5817.14
-5828.43
-5841.05
-5852.95
-5865.58
-5877.48
-5889.51
-5900.76
-5911.62
-5921.62
-5930.87
-5939.21
-5946.6
-5953.1
-5958.6
-5963.26
-5966.98
-5969.94
-5972.08
-5973.62
-5974.54
-5975.02
-5975.09
-5974.85
-5974.35
-5973.62
-5972.7
-5971.61
-5970.38
-5969.01
-5967.54
-5965.95
-5964.22
-5962.41
-5960.18
-5957.98
-5955.21
-5951.23
-5949.45
-5941.49
-5938.81
-5967.29
-5927.79
-5862.72
-5952.1
-5989.98
-5913.23
-5807.48
-5686.26
-5579.8
-5670.93
-5936.95
-5985.32
-5909.61
-5780.7
-5652.13
-5553.49
-5483.74
-5438.82
-5438.4
-5520.4
-5626.86
-5700.76
-5596.11
-5525.02
-5703.33
-5846.99
-5933.55
-5979.93
-5961.88
-5903.3
-5814.34
-5713.16
-5643.91
-5566.12
-5655.64
-5828.55
-5840.29
-5726.56
-5735.63
-5742.99
-5748.56
-5756.74
-5764.56
-5774.73
-5783.76
-5794.86
-5805.09
-5817.14
-5828.43
-5841.05
-5852.95
-5865.58
-5877.48
-5889.51
-5900.76
-5911.62
-5921.62
-5930.87
-5939.21
-5946.6
-5953.1
-5958.6
-5963.26
-5966.98
-5969.94
-5972.08
-5973.62
-5974.54
-5975.02
-5975.09
-5974.85
-5974.35
-5973.62
-5972.7
-5971.61
-5970.38
-5969.01
-5967.54
-5965.95
-5964.22
-5962.41
-5960.18
-5957.98
-5955.21
-5951.23
-5949.46
-5941.51
-5938.83
-5967.26
-5927.9
-5862.92
-5952.49
-5990.09
-5913.38
-5807.62
-5687.19
-5580.75
-5672.3
-5940.7
-5986.3
-5910.51
-5781.51
-5652.81
-5554.18
-5484.12
-5438.69
-5438.6
-5521.25
-5629.79
-5706.23
-5602.84
-5534.84
-5718.84
-5863.8
-5945.8
-5985.96
-5965.49
-5906.9
-5820.05
-5722.62
-5653.65
-5573.14
-5671.45
-5842.92
-5867.29
-5726.56
-5735.62
-5742.98
-5748.56
-5756.74
-5764.56
-5774.73
-5783.76
-5794.86
-5805.09
-5817.14
-5828.43
-5841.05
-5852.95
-5865.58
-5877.48
-5889.51
-5900.76
-5911.62
-5921.62
-5930.87
-5939.21
-5946.6
-5953.1
-5958.6
-5963.26
-5966.98
-5969.94
-5972.08
-5973.62
-5974.54
-5975.02
-5975.09
-5974.85
-5974.35
-5973.62
-5972.7
-5971.61
-5970.38
-5969.01
-5967.55
-5965.95
-5964.22
-5962.41
-5960.18
-5957.98
-5955.22
-5951.24
-5949.46
-5941.53
-5938.88
-5967.18
-5927.97
-5863.2
-5953.14
-5990.17
-5913.19
-5807.78
-5688.22
-5582.11
-5674.35
-5945.44
-5987.42
-5911.83
-5782.62
-5653.76
-5555.08
-5484.57
-5438.51
-5438.78
-5522.06
-5632.91
-5712.65
-5615.14
-5555
-5740.65
-5883.34
-5960.31
-5993.82
-5970.53
-5912
-5827.96
-5735.98
-5666.77
-5582.84
-5696.5
-5862.95
-5902.82
-5726.57
-5735.61
-5742.98
-5748.56
-5756.74
-5764.56
-5774.73
-5783.75
-5794.86
-5805.08
-5817.14
-5828.43
-5841.05
-5852.95
-5865.58
-5877.48
-5889.51
-5900.76
-5911.62
-5921.62
-5930.87
-5939.21
-5946.6
-5953.1
-5958.6
-5963.26
-5966.98
-5969.94
-5972.08
-5973.62
-5974.54
-5975.02
-5975.09
-5974.85
-5974.35
-5973.62
-5972.7
-5971.61
-5970.38
-5969.01
-5967.55
-5965.95
-5964.23
-5962.42
-5960.19
-5957.99
-5955.23
-5951.25
-5949.47
-5941.56
-5938.99
-5966.99
-5927.85
-5863.61
-5954.12
-5990.16
-5912.39
-5807.99
-5689.11
-5584.03
-5677.33
-5951.24
-5988.58
-5913.7
-5784.03
-5654.97
-5556.18
-5485.13
-5438.24
-5438.55
-5522.31
-5635.61
-5719.24
-5633.4
-5586.65
-5768.65
-5906.24
-5977.67
-6003.88
-5977.37
-5919.12
-5838.57
-5753.7
-5683.37
-5599.31
-5745.51
-5895.46
-5953.26
-5726.57
-5735.6
-5742.98
-5748.56
-5756.74
-5764.56
-5774.73
-5783.75
-5794.86
-5805.08
-5817.14
-5828.43
-5841.05
-5852.95
-5865.58
-5877.48
-5889.51
-5900.76
-5911.62
-5921.62
-5930.87
-5939.21
-5946.6
-5953.1
-5958.6
-5963.26
-5966.98
-5969.94
-5972.08
-5973.62
-5974.54
-5975.02
-5975.09
-5974.85
-5974.35
-5973.62
-5972.7
-5971.61
-5970.38
-5969.01
-5967.55
-5965.96
-5964.23
-5962.42
-5960.2
-5958
-5955.24
-5951.28
-5949.48
-5941.63
-5939.2
-5966.6
-5927.43
-5864.27
-5955.38
-5990.15
-5911.02
-5808.33
-5689.68
-5586.5
-5681.6
-5957.55
-5989.58
-5916.15
-5785.72
-5656.43
-5557.49
-5485.82
-5437.64
-5437.34
-5521.28
-5636.71
-5724.36
-5657.37
-5629.12
-5803.53
-5933.63
-5997.99
-6015.99
-5986.33
-5928.53
-5852.29
-5775.48
-5703.78
-5631.66
-5838.12
-5972.75
-6026.65
-5726.58
-5735.58
-5742.97
-5748.55
-5756.74
-5764.56
-5774.73
-5783.75
-5794.86
-5805.08
-5817.14
-5828.43
-5841.05
-5852.95
-5865.58
-5877.48
-5889.51
-5900.76
-5911.62
-5921.62
-5930.87
-5939.21
-5946.6
-5953.1
-5958.6
-5963.26
-5966.98
-5969.94
-5972.08
-5973.62
-5974.54
-5975.02
-5975.09
-5974.85
-5974.35
-5973.62
-5972.7
-5971.61
-5970.38
-5969.01
-5967.55
-5965.96
-5964.24
-5962.44
-5960.22
-5958.03
-5955.28
-5951.34
-5949.51
-5941.77
-5939.53
-5965.94
-5926.68
-5865.42
-5956.71
-5990.49
-5909.35
-5808.91
-5689.76
-5589.44
-5687.51
-5963.28
-5990.43
-5918.77
-5787.52
-5658.08
-5558.96
-5486.68
-5435.74
-5434.16
-5518.42
-5634.16
-5725.56
-5685.67
-5681.65
-5846.69
-5965.93
-6020.39
-6029.78
-5997.59
-5940.33
-5869.08
-5800.13
-5729.32
-5689.96
-5969.43
-6112.67
-6147.16
-5726.59
-5735.56
-5742.96
-5748.55
-5756.73
-5764.56
-5774.72
-5783.75
-5794.86
-5805.08
-5817.14
-5828.43
-5841.04
-5852.95
-5865.58
-5877.48
-5889.51
-5900.76
-5911.62
-5921.62
-5930.87
-5939.21
-5946.6
-5953.1
-5958.6
-5963.26
-5966.97
-5969.94
-5972.08
-5973.62
-5974.54
-5975.02
-5975.09
-5974.85
-5974.35
-5973.62
-5972.7
-5971.61
-5970.39
-5969.02
-5967.56
-5965.98
-5964.26
-5962.46
-5960.25
-5958.06
-5955.34
-5951.44
-5949.58
-5942.04
-5939.96
-5964.91
-5925.86
-5867.43
-5957.76
-5990.93
-5907.39
-5809.65
-5689.47
-5592.84
-5695.62
-5968.44
-5991.09
-5920.17
-5788.93
-5659.75
-5560.56
-5487.52
-5431.77
-5428.58
-5512.34
-5626.34
-5721.35
-5715.65
-5743
-5897.59
-6001.36
-6043.06
-6044.95
-6011.16
-5954.78
-5888.61
-5826.19
-5762.52
-5773.24
-6064.62
-6187.06
-6267.08
-5726.6
-5735.54
-5742.96
-5748.55
-5756.73
-5764.56
-5774.72
-5783.75
-5794.86
-5805.08
-5817.14
-5828.43
-5841.04
-5852.94
-5865.58
-5877.48
-5889.51
-5900.76
-5911.62
-5921.62
-5930.86
-5939.21
-5946.6
-5953.1
-5958.6
-5963.26
-5966.97
-5969.93
-5972.08
-5973.62
-5974.54
-5975.02
-5975.09
-5974.85
-5974.35
-5973.63
-5972.71
-5971.62
-5970.39
-5969.03
-5967.57
-5965.99
-5964.28
-5962.49
-5960.31
-5958.12
-5955.43
-5951.58
-5949.68
-5942.52
-5940.46
-5963.46
-5925.46
-5870.79
-5957.82
-5990.08
-5904.84
-5810.38
-5689.34
-5597.12
-5706.83
-5974.09
-5990.81
-5918.95
-5789.37
-5661.18
-5562.11
-5487.96
-5426.05
-5422.66
-5501.73
-5613.82
-5713.1
-5745.55
-5808.1
-5950.8
-6036.08
-6064.7
-6061.3
-6027.07
-5972.11
-5910.2
-5852.55
-5803.26
-5857.46
-6077.13
-6159.69
-6236.42
-5726.62
-5735.51
-5742.95
-5748.54
-5756.73
-5764.55
-5774.72
-5783.75
-5794.86
-5805.08
-5817.13
-5828.43
-5841.04
-5852.94
-5865.58
-5877.47
-5889.51
-5900.75
-5911.62
-5921.62
-5930.86
-5939.21
-5946.6
-5953.1
-5958.6
-5963.26
-5966.97
-5969.93
-5972.08
-5973.62
-5974.54
-5975.02
-5975.09
-5974.86
-5974.35
-5973.63
-5972.71
-5971.62
-5970.4
-5969.04
-5967.59
-5966.02
-5964.32
-5962.53
-5960.38
-5958.19
-5955.56
-5951.78
-5949.81
-5943.2
-5940.97
-5961.56
-5925.92
-5875.56
-5956.07
-5986.43
-5901.6
-5810.97
-5690.42
-5603.07
-5720.78
-5980.29
-5989.85
-5915.21
-5788.3
-5662.03
-5563.23
-5487.17
-5420.81
-5416.12
-5491.44
-5603.39
-5706.08
-5775.49
-5869.5
-5999.71
-6067.19
-6084.84
-6078.24
-6045.06
-5991.47
-5932.3
-5877.99
-5844.66
-5908.25
-6009.07
-6078.2
-6110.98
-5726.64
-5735.48
-5742.94
-5748.54
-5756.73
-5764.55
-5774.72
-5783.75
-5794.86
-5805.08
-5817.13
-5828.43
-5841.04
-5852.94
-5865.57
-5877.47
-5889.51
-5900.75
-5911.62
-5921.62
-5930.86
-5939.2
-5946.6
-5953.1
-5958.6
-5963.26
-5966.97
-5969.93
-5972.08
-5973.62
-5974.54
-5975.02
-5975.09
-5974.86
-5974.35
-5973.63
-5972.71
-5971.63
-5970.41
-5969.05
-5967.61
-5966.05
-5964.36
-5962.59
-5960.47
-5958.29
-5955.73
-5952.03
-5949.98
-5944.06
-5941.46
-5959.27
-5927.24
-5881.08
-5952.3
-5979.78
-5897.93
-5811.35
-5694.1
-5611.94
-5736.68
-5985.24
-5988.24
-5909.32
-5785.26
-5661.82
-5563.54
-5484.66
-5417.25
-5410.03
-5487.54
-5600.06
-5705.21
-5804.43
-5921.06
-6040.02
-6092.55
-6102.74
-6095.03
-6064.44
-6011.8
-5953.42
-5901.22
-5876.57
-5910.02
-5910.86
-5957.88
-5957.53
-5726.66
-5735.44
-5742.92
-5748.53
-5756.72
-5764.55
-5774.72
-5783.75
-5794.86
-5805.08
-5817.13
-5828.42
-5841.04
-5852.94
-5865.57
-5877.47
-5889.51
-5900.75
-5911.62
-5921.61
-5930.86
-5939.2
-5946.59
-5953.09
-5958.59
-5963.25
-5966.97
-5969.93
-5972.08
-5973.62
-5974.54
-5975.02
-5975.09
-5974.86
-5974.35
-5973.63
-5972.72
-5971.63
-5970.42
-5969.07
-5967.63
-5966.08
-5964.41
-5962.66
-5960.59
-5958.42
-5955.94
-5952.34
-5950.2
-5945.04
-5941.94
-5956.75
-5929.12
-5886.9
-5947.29
-5971.15
-5894.25
-5811.91
-5701.17
-5624.9
-5754.1
-5986.39
-5984.86
-5900.68
-5779.67
-5660.28
-5562.66
-5482.36
-5416.24
-5408.61
-5494.04
-5605.95
-5712.96
-5831.24
-5959.21
-6067.91
-6110.82
-6117.84
-6111.72
-6085.69
-6033.95
-5973.71
-5920.43
-5891.66
-5882.36
-5836.93
-5854.85
-5834.35
-5726.68
-5735.39
-5742.91
-5748.52
-5756.72
-5764.55
-5774.71
-5783.74
-5794.85
-5805.08
-5817.13
-5828.42
-5841.04
-5852.94
-5865.57
-5877.47
-5889.51
-5900.75
-5911.61
-5921.61
-5930.86
-5939.2
-5946.59
-5953.09
-5958.59
-5963.25
-5966.96
-5969.93
-5972.07
-5973.61
-5974.53
-5975.02
-5975.09
-5974.86
-5974.35
-5973.64
-5972.72
-5971.64
-5970.43
-5969.09
-5967.66
-5966.13
-5964.48
-5962.75
-5960.73
-5958.59
-5956.19
-5952.73
-5950.51
-5946.11
-5942.48
-5954.21
-5931.18
-5893.01
-5942.01
-5961.57
-5891.01
-5813.21
-5712.34
-5642.6
-5771.96
-5981.4
-5977.09
-5888.08
-5771.19
-5657.38
-5561.61
-5482.16
-5419.69
-5415.32
-5510.47
-5620.95
-5727.97
-5853.08
-5981.45
-6082.81
-6124.19
-6129.96
-6125.64
-6104.23
-6055.54
-5992
-5933.41
-5891.49
-5849.61
-5794.1
-5794.49
-5760.83
-5726.71
-5735.33
-5742.89
-5748.51
-5756.71
-5764.54
-5774.71
-5783.74
-5794.85
-5805.07
-5817.13
-5828.42
-5841.04
-5852.94
-5865.57
-5877.47
-5889.51
-5900.75
-5911.61
-5921.61
-5930.85
-5939.2
-5946.59
-5953.09
-5958.59
-5963.25
-5966.96
-5969.92
-5972.07
-5973.61
-5974.53
-5975.02
-5975.09
-5974.86
-5974.36
-5973.64
-5972.73
-5971.66
-5970.45
-5969.12
-5967.71
-5966.2
-5964.57
-5962.87
-5960.92
-5958.81
-5956.51
-5953.21
-5950.93
-5947.23
-5943.17
-5951.86
-5933.2
-5899.48
-5937.04
-5951.75
-5888.51
-5815.89
-5728.21
-5665.38
-5788.11
-5967.71
-5961.13
-5870.03
-5760.01
-5654.06
-5562.21
-5487.05
-5431.09
-5433.85
-5536.36
-5645.68
-5748.36
-5868.84
-5990.16
-6086.45
-6131.52
-6133.21
-6122.77
-6105.01
-6064.87
-6001.87
-5937.13
-5880.98
-5819.49
-5762.72
-5757.53
-5713.18
-5726.75
-5735.27
-5742.87
-5748.5
-5756.7
-5764.54
-5774.71
-5783.74
-5794.85
-5805.07
-5817.13
-5828.42
-5841.04
-5852.93
-5865.57
-5877.46
-5889.5
-5900.74
-5911.61
-5921.6
-5930.85
-5939.19
-5946.58
-5953.08
-5958.58
-5963.24
-5966.95
-5969.92
-5972.07
-5973.61
-5974.53
-5975.02
-5975.09
-5974.86
-5974.36
-5973.65
-5972.74
-5971.67
-5970.47
-5969.16
-5967.76
-5966.28
-5964.69
-5963.03
-5961.15
-5959.09
-5956.9
-5953.82
-5951.5
-5948.4
-5944.08
-5949.89
-5935.11
-5906.22
-5932.75
-5942.27
-5887.05
-5820.5
-5748.43
-5692.65
-5800.09
-5943.46
-5934.05
-5846.01
-5747.48
-5652.99
-5568.36
-5500.91
-5455.93
-5467.7
-5569.99
-5678.12
-5776.65
-5884.5
-5989.2
-6071.8
-6115.03
-6118.01
-6108.17
-6090.31
-6053.25
-5991.73
-5919.95
-5849.93
-5773.66
-5719.47
-5704.19
-5679.47
-5726.79
-5735.2
-5742.84
-5748.49
-5756.7
-5764.53
-5774.71
-5783.73
-5794.85
-5805.07
-5817.13
-5828.41
-5841.04
-5852.93
-5865.57
-5877.46
-5889.5
-5900.74
-5911.6
-5921.6
-5930.84
-5939.18
-5946.58
-5953.07
-5958.57
-5963.23
-5966.95
-5969.91
-5972.06
-5973.6
-5974.53
-5975.02
-5975.09
-5974.87
-5974.37
-5973.66
-5972.75
-5971.7
-5970.51
-5969.21
-5967.84
-5966.39
-5964.85
-5963.23
-5961.45
-5959.46
-5957.4
-5954.57
-5952.25
-5949.64
-5945.27
-5948.48
-5936.93
-5913.02
-5929.53
-5933.79
-5886.96
-5827.32
-5771.31
-5722.77
-5807.6
-5911.93
-5899.63
-5820.77
-5738.1
-5658.43
-5585.35
-5528.94
-5498.31
-5517.97
-5610.86
-5712.75
-5806.28
-5899.41
-5983.42
-6047.67
-6083.62
-6090.64
-6082.38
-6063.15
-6022.11
-5954.46
-5871.35
-5785.1
-5695.07
-5614.68
-5568.48
-5552.27
-5726.84
-5735.12
-5742.81
-5748.48
-5756.69
-5764.52
-5774.7
-5783.73
-5794.85
-5805.06
-5817.13
-5828.41
-5841.03
-5852.92
-5865.56
-5877.45
-5889.5
-5900.73
-5911.6
-5921.59
-5930.84
-5939.17
-5946.57
-5953.06
-5958.56
-5963.23
-5966.94
-5969.9
-5972.05
-5973.6
-5974.53
-5975.02
-5975.09
-5974.87
-5974.38
-5973.67
-5972.78
-5971.73
-5970.56
-5969.28
-5967.94
-5966.53
-5965.05
-5963.5
-5961.83
-5959.95
-5958.04
-5955.5
-5953.23
-5951
-5946.79
-5947.81
-5938.81
-5919.73
-5927.69
-5927.2
-5888.47
-5837.1
-5794.73
-5754.79
-5814.69
-5883.67
-5869.42
-5803.56
-5738.29
-5675.5
-5618.07
-5575.25
-5557.21
-5580.54
-5658.37
-5748.54
-5833.31
-5912.66
-5980.7
-6031.62
-6061.04
-6067.11
-6053.14
-6023.39
-5972.18
-5899.34
-5812.89
-5724.87
-5639.28
-5563.54
-5514.9
-5486.26
-5726.9
-5735.02
-5742.78
-5748.47
-5756.68
-5764.51
-5774.7
-5783.72
-5794.85
-5805.06
-5817.13
-5828.4
-5841.03
-5852.92
-5865.56
-5877.44
-5889.49
-5900.72
-5911.59
-5921.58
-5930.83
-5939.16
-5946.55
-5953.05
-5958.55
-5963.22
-5966.93
-5969.9
-5972.05
-5973.6
-5974.52
-5975.02
-5975.1
-5974.89
-5974.39
-5973.7
-5972.81
-5971.77
-5970.62
-5969.38
-5968.07
-5966.72
-5965.32
-5963.85
-5962.32
-5960.59
-5958.85
-5956.64
-5954.5
-5952.56
-5948.72
-5948.04
-5940.98
-5926.24
-5927.56
-5923.41
-5892.09
-5850.51
-5818.35
-5788.56
-5825.9
-5867.52
-5852.85
-5801.17
-5752.64
-5706.88
-5666.69
-5639.04
-5631.35
-5654.1
-5714.19
-5789.02
-5862.82
-5930.66
-5986.55
-6025.99
-6044.47
-6040.83
-6014.13
-5969.24
-5906.79
-5831.6
-5754.41
-5687.25
-5643.34
-5622.86
-5629.72
-5643.89
-5726.96
-5734.92
-5742.75
-5748.45
-5756.67
-5764.5
-5774.7
-5783.71
-5794.85
-5805.05
-5817.13
-5828.39
-5841.03
-5852.9
-5865.56
-5877.43
-5889.48
-5900.7
-5911.58
-5921.56
-5930.81
-5939.15
-5946.54
-5953.04
-5958.54
-5963.2
-5966.92
-5969.89
-5972.04
-5973.6
-5974.53
-5975.03
-5975.11
-5974.91
-5974.42
-5973.73
-5972.85
-5971.84
-5970.71
-5969.51
-5968.26
-5966.98
-5965.67
-5964.32
-5962.95
-5961.42
-5959.9
-5958.06
-5956.14
-5954.44
-5951.12
-5949.36
-5943.77
-5932.66
-5929.58
-5923.19
-5898.7
-5867.22
-5843.08
-5822.94
-5842.82
-5865.25
-5852.23
-5814.74
-5781.5
-5751.71
-5727.55
-5714.05
-5715.52
-5737.02
-5780.79
-5836.44
-5892.9
-5943.58
-5982.23
-6004.84
-6007.54
-5990.66
-5953.97
-5902.43
-5839.71
-5771.65
-5706.84
-5648.5
-5607.82
-5579.44
-5572.79
-5603.41
-5727.03
-5734.82
-5742.71
-5748.44
-5756.67
-5764.49
-5774.7
-5783.7
-5794.85
-5805.04
-5817.13
-5828.38
-5841.04
-5852.89
-5865.56
-5877.41
-5889.48
-5900.68
-5911.57
-5921.54
-5930.8
-5939.13
-5946.52
-5953.02
-5958.52
-5963.19
-5966.9
-5969.88
-5972.04
-5973.6
-5974.54
-5975.05
-5975.14
-5974.94
-5974.46
-5973.79
-5972.92
-5971.94
-5970.84
-5969.69
-5968.51
-5967.32
-5966.13
-5964.94
-5963.76
-5962.49
-5961.25
-5959.81
-5958.24
-5956.82
-5954.15
-5951.95
-5947.54
-5939.37
-5934.22
-5927.11
-5908.96
-5886.7
-5869.52
-5856.91
-5865.71
-5876.44
-5867.15
-5843.31
-5823.67
-5807.75
-5796.57
-5793.18
-5799.82
-5818.16
-5847.87
-5883.67
-5919.28
-5949.83
-5971.48
-5981.66
-5979.13
-5964.32
-5938.83
-5905.03
-5866.38
-5824.5
-5784.05
-5744.01
-5707.63
-5676.85
-5640.44
-5628.46
-5727.1
-5734.71
-5742.68
-5748.42
-5756.66
-5764.48
-5774.71
-5783.69
-5794.86
-5805.02
-5817.14
-5828.36
-5841.04
-5852.87
-5865.56
-5877.39
-5889.47
-5900.66
-5911.55
-5921.52
-5930.78
-5939.11
-5946.51
-5953.01
-5958.51
-5963.18
-5966.9
-5969.89
-5972.04
-5973.62
-5974.56
-5975.09
-5975.18
-5975
-5974.52
-5973.87
-5973.03
-5972.08
-5971.03
-5969.95
-5968.85
-5967.77
-5966.74
-5965.74
-5964.81
-5963.86
-5962.97
-5962
-5960.91
-5959.87
-5957.99
-5955.99
-5952.73
-5947.05
-5941.86
-5935.53
-5923.22
-5908.94
-5898.06
-5891.21
-5895.08
-5900.79
-5896.93
-5885.42
-5877.09
-5872.15
-5870.71
-5874.23
-5883.71
-5899.34
-5920.42
-5944.48
-5968.32
-5989.26
-6005.55
-6016.35
-6021.69
-6022.34
-6019.75
-6015.5
-6011.8
-6010.03
-6012.53
-6020.4
-6034.49
-6058.07
-6086.88
-6129.14
-5727.17
-5734.61
-5742.65
-5748.4
-5756.66
-5764.45
-5774.72
-5783.66
-5794.87
-5804.99
-5817.15
-5828.33
-5841.05
-5852.84
-5865.56
-5877.36
-5889.46
-5900.63
-5911.54
-5921.49
-5930.77
-5939.09
-5946.5
-5953.01
-5958.51
-5963.2
-5966.91
-5969.92
-5972.07
-5973.67
-5974.61
-5975.16
-5975.26
-5975.09
-5974.63
-5974
-5973.19
-5972.28
-5971.29
-5970.29
-5969.3
-5968.37
-5967.53
-5966.78
-5966.15
-5965.59
-5965.15
-5964.74
-5964.28
-5963.84
-5962.92
-5961.71
-5959.81
-5956.49
-5952.83
-5948.62
-5941.77
-5934.37
-5929.38
-5927.59
-5931.38
-5937.32
-5939.99
-5938.9
-5939.46
-5942.71
-5948.37
-5957.06
-5969.21
-5984.66
-6002.85
-6022.76
-6043.15
-6062.86
-6081.11
-6097.61
-6112.45
-6126.23
-6139.67
-6153.75
-6169.41
-6187.6
-6209.07
-6234.69
-6264.61
-6299.87
-6339.98
-6385.68
-5727.22
-5734.53
-5742.63
-5748.37
-5756.67
-5764.42
-5774.74
-5783.63
-5794.89
-5804.95
-5817.17
-5828.28
-5841.06
-5852.79
-5865.56
-5877.32
-5889.46
-5900.6
-5911.53
-5921.48
-5930.76
-5939.09
-5946.5
-5953.03
-5958.53
-5963.24
-5966.95
-5969.98
-5972.13
-5973.76
-5974.69
-5975.27
-5975.37
-5975.23
-5974.78
-5974.19
-5973.4
-5972.54
-5971.61
-5970.7
-5969.83
-5969.06
-5968.42
-5967.93
-5967.64
-5967.5
-5967.55
-5967.75
-5968
-5968.34
-5968.48
-5968.43
-5968.06
-5966.99
-5965.64
-5964.19
-5961.92
-5960.01
-5960.14
-5963
-5969.45
-5978.36
-5987
-5993.4
-6000.08
-6008.9
-6019.42
-6031.95
-6046.7
-6063.55
-6082.18
-6102.13
-6122.91
-6144.09
-6165.39
-6186.72
-6208.15
-6229.93
-6252.35
-6275.83
-6300.63
-6327.17
-6355.51
-6386.02
-6418.47
-6453.2
-6489.72
-6528.35
-5727.25
-5734.48
-5742.62
-5748.34
-5756.69
-5764.38
-5774.76
-5783.58
-5794.92
-5804.9
-5817.19
-5828.23
-5841.08
-5852.74
-5865.57
-5877.27
-5889.46
-5900.57
-5911.53
-5921.47
-5930.76
-5939.11
-5946.51
-5953.08
-5958.56
-5963.32
-5967
-5970.08
-5972.2
-5973.88
-5974.8
-5975.42
-5975.5
-5975.41
-5974.95
-5974.4
-5973.63
-5972.84
-5971.95
-5971.14
-5970.37
-5969.75
-5969.3
-5969.08
-5969.1
-5969.37
-5969.91
-5970.7
-5971.67
-5972.82
-5974.01
-5975.21
-5976.38
-5977.37
-5978.37
-5979.66
-5981.15
-5983.57
-5987.94
-5994.82
-6004.55
-6016.93
-6030.36
-6041.94
-6052.74
-6065.27
-6079.08
-6094.36
-6111.23
-6129.63
-6149.38
-6170.28
-6192.09
-6214.64
-6237.8
-6261.53
-6285.84
-6310.8
-6336.49
-6363.03
-6390.46
-6418.89
-6448.29
-6478.74
-6510.04
-6542.3
-6575.15
-6608.84
-5727.25
-5734.46
-5742.64
-5748.31
-5756.71
-5764.34
-5774.79
-5783.53
-5794.95
-5804.84
-5817.22
-5828.17
-5841.09
-5852.68
-5865.58
-5877.23
-5889.47
-5900.55
-5911.54
-5921.47
-5930.77
-5939.15
-5946.53
-5953.15
-5958.59
-5963.42
-5967.06
-5970.21
-5972.29
-5974.03
-5974.91
-5975.59
-5975.64
-5975.61
-5975.14
-5974.65
-5973.88
-5973.16
-5972.32
-5971.6
-5970.92
-5970.46
-5970.19
-5970.22
-5970.54
-5971.21
-5972.22
-5973.59
-5975.27
-5977.26
-5979.5
-5981.96
-5984.66
-5987.56
-5990.84
-5994.74
-5999.43
-6005.43
-6013.39
-6023.76
-6036.69
-6052.38
-6069.7
-6084.99
-6098.63
-6113.7
-6129.75
-6146.92
-6165.3
-6184.85
-6205.49
-6227.11
-6249.59
-6272.82
-6296.73
-6321.26
-6346.38
-6372.07
-6398.33
-6425.14
-6452.46
-6480.27
-6508.51
-6537.12
-6565.97
-6595.04
-6624.1
-6653.29
-5727.23
-5734.47
-5742.67
-5748.28
-5756.74
-5764.29
-5774.82
-5783.47
-5794.98
-5804.78
-5817.25
-5828.11
-5841.12
-5852.62
-5865.6
-5877.18
-5889.48
-5900.53
-5911.54
-5921.49
-5930.78
-5939.2
-5946.55
-5953.24
-5958.63
-5963.55
-5967.12
-5970.37
-5972.38
-5974.22
-5975.03
-5975.8
-5975.8
-5975.85
-5975.34
-5974.93
-5974.15
-5973.51
-5972.69
-5972.08
-5971.48
-5971.17
-5971.05
-5971.32
-5971.92
-5972.97
-5974.43
-5976.36
-5978.72
-5981.53
-5984.77
-5988.45
-5992.6
-5997.28
-6002.63
-6008.91
-6016.34
-6025.32
-6036.29
-6049.6
-6065.34
-6083.83
-6104.15
-6122.05
-6137.6
-6154.36
-6171.83
-6190.14
-6209.36
-6229.45
-6250.37
-6272.05
-6294.41
-6317.36
-6340.84
-6364.79
-6389.15
-6413.85
-6438.85
-6464.09
-6489.49
-6515.01
-6540.55
-6566.06
-6591.43
-6616.63
-6641.51
-6666.19
-5727.19
-5734.51
-5742.71
-5748.25
-5756.78
-5764.24
-5774.86
-5783.41
-5795.02
-5804.71
-5817.28
-5828.03
-5841.14
-5852.56
-5865.61
-5877.14
-5889.48
-5900.52
-5911.55
-5921.52
-5930.79
-5939.28
-5946.57
-5953.37
-5958.66
-5963.72
-5967.17
-5970.58
-5972.46
-5974.46
-5975.13
-5976.06
-5975.94
-5976.13
-5975.53
-5975.26
-5974.42
-5973.9
-5973.06
-5972.58
-5972.01
-5971.87
-5971.86
-5972.37
-5973.21
-5974.61
-5976.48
-5978.95
-5981.95
-5985.55
-5989.72
-5994.54
-6000.04
-6006.33
-6013.54
-6021.92
-6031.68
-6043.14
-6056.6
-6072.34
-6090.39
-6111.13
-6133.7
-6153.38
-6170.16
-6187.91
-6206.12
-6224.89
-6244.26
-6264.23
-6284.74
-6305.74
-6327.19
-6348.99
-6371.09
-6393.42
-6415.92
-6438.5
-6461.12
-6483.69
-6506.16
-6528.46
-6550.52
-6572.3
-6593.71
-6614.73
-6635.27
-6655.44
-5727.13
-5734.57
-5742.76
-5748.21
-5756.82
-5764.19
-5774.9
-5783.34
-5795.07
-5804.63
-5817.32
-5827.95
-5841.17
-5852.49
-5865.63
-5877.1
-5889.49
-5900.52
-5911.54
-5921.57
-5930.78
-5939.39
-5946.56
-5953.54
-5958.67
-5963.94
-5967.19
-5970.84
-5972.5
-5974.75
-5975.2
-5976.37
-5976.03
-5976.46
-5975.67
-5975.62
-5974.62
-5974.31
-5973.36
-5973.07
-5972.45
-5972.5
-5972.53
-5973.27
-5974.26
-5975.99
-5978.17
-5981.11
-5984.61
-5988.88
-5993.82
-5999.58
-6006.16
-6013.76
-6022.44
-6032.47
-6044
-6057.32
-6072.61
-6090.1
-6109.82