/*--------------------------------*- C++ -*----------------------------------*\
| =========                 |                                                 |
| \\      /  F ield         | OpenFOAM: The Open Source CFD Toolbox           |
|  \\    /   O peration     | Version:  2306                                  |
|   \\  /    A nd           | Website:  www.openfoam.com                      |
|    \\/     M anipulation  |                                                 |
\*---------------------------------------------------------------------------*/
FoamFile
{
    version     2.0;
    format      ascii;
    arch        "LSB;label=32;scalar=64";
    class       surfaceScalarField;
    location    "1600";
    object      phi;
}
// * * * * * * * * * * * * * * * * * * * * * * * * * * * * * * * * * * * * * //

dimensions      [0 3 -1 0 0 0 0];

oriented        oriented;

internalField   nonuniform List<scalar> 
40747
(
1.75361e-05
-2.65571e-06
7.49545e-06
1.00406e-05
2.11795e-05
-5.83431e-06
1.52924e-05
1.33825e-05
2.55152e-05
-9.57353e-06
2.31087e-05
1.76988e-05
3.06239e-05
-1.38548e-05
3.05546e-05
2.31778e-05
3.65681e-05
-1.85561e-05
3.71401e-05
2.99823e-05
4.33864e-05
-2.3393e-05
4.23119e-05
3.82142e-05
5.11064e-05
-2.78659e-05
4.55436e-05
4.7874e-05
5.9806e-05
-3.12593e-05
4.65009e-05
5.88477e-05
6.9765e-05
-3.2782e-05
4.52777e-05
7.09868e-05
8.17134e-05
-3.19429e-05
4.2614e-05
8.43752e-05
9.70212e-05
-2.91001e-05
3.98519e-05
9.97808e-05
0.000117393
-2.56872e-05
3.83119e-05
0.00011893
0.000143844
-2.33897e-05
3.8272e-05
0.00014388
0.000176062
-2.26615e-05
3.87622e-05
0.000175566
0.000213795
-2.25902e-05
3.88387e-05
0.000213712
0.000258518
-2.23893e-05
3.84834e-05
0.000258865
0.000312598
-2.20093e-05
3.79811e-05
0.000313091
0.000378151
-2.15436e-05
3.7386e-05
0.000378735
0.000457461
-2.09818e-05
3.6655e-05
0.000458178
0.000553401
-2.03006e-05
3.57618e-05
0.000554277
0.00066947
-1.94824e-05
3.46786e-05
0.000670533
0.000809894
-1.85101e-05
3.33718e-05
0.000811176
0.000979783
-1.73667e-05
3.18034e-05
0.000981322
0.00118532
-1.6037e-05
2.99305e-05
0.00118716
0.001434
-1.45088e-05
2.77046e-05
0.00143618
0.00173486
-1.27745e-05
2.50708e-05
0.00173744
0.00209886
-1.08324e-05
2.19656e-05
0.00210191
0.00253925
-8.66384e-06
1.83148e-05
0.00254283
0.00307204
-6.2295e-06
1.40376e-05
0.00307626
0.0037166
-3.49268e-06
9.01019e-06
0.00372158
0.00356131
-1.18503e-06
4.27327e-06
0.00356601
0.00356138
9.85956e-07
-4.28221e-07
0.00356608
0.00356135
3.15395e-06
-5.14254e-06
0.0035661
0.00356123
5.47507e-06
-9.91486e-06
0.00356608
0.00360373
8.0911e-06
-1.4857e-05
0.00360879
0.00299769
1.03592e-05
-1.90601e-05
0.00300206
0.00249355
1.2351e-05
-2.26295e-05
0.00249733
0.0020742
1.41061e-05
-2.56542e-05
0.00207745
0.00172539
1.56487e-05
-2.821e-05
0.00172817
0.00143524
1.69966e-05
-3.03628e-05
0.00143762
0.0011939
1.81653e-05
-3.217e-05
0.00119592
0.000993157
1.91702e-05
-3.36816e-05
0.000994855
0.000826174
2.00264e-05
-3.4941e-05
0.000827599
0.000687275
2.07487e-05
-3.59857e-05
0.000688464
0.000571735
2.13521e-05
-3.68479e-05
0.000572723
0.000475625
2.18505e-05
-3.75551e-05
0.00047644
0.000395674
2.22601e-05
-3.8128e-05
0.000396338
0.000329156
2.2604e-05
-3.86028e-05
0.000329707
0.00027387
2.28435e-05
-3.89983e-05
0.00027433
0.000227995
2.28794e-05
-3.91443e-05
0.000228195
0.000189536
2.30416e-05
-3.87922e-05
0.00018923
0.000156566
2.42852e-05
-3.83383e-05
0.000156151
0.000128522
2.70449e-05
-3.88445e-05
0.000129061
0.000105924
3.03355e-05
-4.08354e-05
0.000107941
8.86481e-05
3.25444e-05
-4.36209e-05
9.14553e-05
7.5471e-05
3.26595e-05
-4.58907e-05
7.77581e-05
6.49101e-05
3.06317e-05
-4.65533e-05
6.55864e-05
5.59202e-05
2.70253e-05
-4.51009e-05
5.44785e-05
4.79825e-05
2.25643e-05
-4.15571e-05
4.4447e-05
4.09072e-05
1.78639e-05
-3.6274e-05
3.56304e-05
3.46425e-05
1.3343e-05
-2.97409e-05
2.8114e-05
2.91651e-05
9.23649e-06
-2.24553e-05
2.1883e-05
2.44397e-05
5.64267e-06
-1.48531e-05
1.68407e-05
2.04099e-05
2.57564e-06
-7.28346e-06
1.28419e-05
1.70047e-05
9.72126e-06
7.1489e-07
9.3248e-06
3.61577e-07
3.53575e-07
2.87635e-07
7.31984e-08
2.50298e-07
3.83838e-08
2.26464e-07
2.32387e-08
2.09798e-07
1.82918e-08
1.96627e-07
1.28134e-08
1.86659e-07
1.18874e-08
1.78441e-07
8.23465e-09
1.72253e-07
8.2691e-09
1.67003e-07
5.76824e-09
1.63092e-07
6.07745e-09
1.59746e-07
4.38271e-09
1.57322e-07
4.58977e-09
1.55273e-07
3.52855e-09
1.53828e-07
3.52494e-09
1.52638e-07
2.96668e-09
1.51793e-07
2.7595e-09
1.51112e-07
2.5732e-09
1.50575e-07
2.22034e-09
1.50136e-07
2.26659e-09
1.49711e-07
1.83043e-09
1.49343e-07
1.98032e-09
1.48915e-07
1.51754e-09
1.48514e-07
1.68157e-09
1.48013e-07
1.24668e-09
1.47514e-07
1.3889e-09
1.46915e-07
1.02843e-09
1.46323e-07
1.14872e-09
1.45668e-07
8.85335e-10
1.45039e-07
9.81524e-10
1.44375e-07
8.10621e-10
1.43705e-07
8.64555e-10
1.42955e-07
7.72929e-10
1.42097e-07
7.81432e-10
1.41054e-07
7.69751e-10
1.39776e-07
7.70181e-10
1.38191e-07
8.63219e-10
1.36252e-07
9.19071e-10
1.33863e-07
1.16764e-09
1.3093e-07
1.39805e-09
1.27403e-07
1.81072e-09
1.22864e-07
2.51217e-09
1.17636e-07
3.04087e-09
1.11071e-07
4.07157e-09
1.02196e-07
6.23671e-09
9.50663e-08
4.15611e-09
7.91769e-08
1.27359e-08
7.07848e-08
4.84193e-09
8.72737e-08
-2.01842e-08
-3.54645e-09
8.69149e-08
-1.10148e-07
1.03148e-07
1.12426e-07
-2.26097e-07
2.01294e-07
-8.95937e-08
-2.05602e-07
4.04352e-07
-4.95704e-07
2.95364e-07
-5.00472e-07
1.40654e-09
-3.82343e-07
-1.1005e-07
2.87347e-07
-6.75484e-07
1.38334e-06
-1.09077e-06
1.47763e-06
-1.07056e-07
8.36835e-08
1.39559e-06
-8.82193e-07
9.41621e-07
-1.00416e-06
1.31447e-07
-8.50294e-07
-1.84347e-07
-5.19718e-07
-3.10704e-07
-1.32097e-07
-4.14061e-07
2.48701e-07
-3.58821e-07
7.62849e-07
-5.38623e-07
1.40351e-06
-6.31844e-07
1.80691e-06
-4.20171e-07
1.64224e-06
1.71287e-07
7.18839e-07
9.0472e-07
7.12101e-07
1.47743e-08
1.84278e-06
-1.15057e-06
1.89132e-06
-5.67673e-08
8.97835e-07
9.58755e-07
-4.95708e-07
1.34486e-06
-1.50803e-06
9.46546e-07
-1.93861e-06
3.88187e-07
-2.07095e-06
9.68842e-08
-1.93192e-06
-1.76463e-07
-1.40939e-06
-5.58302e-07
-4.73082e-07
-9.7103e-07
1.07028e-06
-1.57522e-06
2.0829e-06
-1.0322e-06
1.04101e-06
1.00356e-06
-1.12031e-06
2.15728e-06
2.62311e-06
2.00814e-05
1.41307e-06
1.5646e-06
1.12636e-06
3.57638e-07
9.84401e-07
1.8372e-07
8.91637e-07
1.14204e-07
8.29456e-07
8.55673e-08
7.78028e-07
6.32056e-08
7.41178e-07
5.47095e-08
7.08566e-07
4.10014e-08
6.84921e-07
3.83722e-08
6.63233e-07
2.91692e-08
6.46628e-07
2.93832e-08
6.31619e-07
2.26973e-08
6.18975e-07
2.39167e-08
6.08162e-07
1.89864e-08
5.97725e-07
2.03612e-08
5.89388e-07
1.68279e-08
5.8014e-07
1.78814e-08
5.73098e-07
1.54544e-08
5.64504e-07
1.5961e-08
5.58053e-07
1.43247e-08
5.49924e-07
1.4235e-08
5.43729e-07
1.30893e-08
5.36041e-07
1.24979e-08
5.2997e-07
1.16197e-08
5.22739e-07
1.07063e-08
5.16824e-07
9.97327e-09
5.10186e-07
8.94113e-09
5.04679e-07
8.32413e-09
4.98902e-07
7.35548e-09
4.94086e-07
6.85473e-09
4.89269e-07
6.05955e-09
4.85063e-07
5.62291e-09
4.80839e-07
5.01419e-09
4.76711e-07
4.58711e-09
4.72363e-07
4.18756e-09
4.6759e-07
3.87062e-09
4.62241e-07
3.88891e-09
4.55948e-07
3.96635e-09
4.48369e-07
4.88568e-09
4.39116e-07
5.83085e-09
4.27469e-07
8.08134e-09
4.12614e-07
1.10424e-08
3.94604e-07
1.42382e-08
3.70712e-07
2.01998e-08
3.41924e-07
2.68105e-08
3.09616e-07
2.71951e-08
2.58559e-07
5.39378e-08
2.39161e-07
1.31461e-08
2.25453e-07
-1.79413e-08
1.58099e-08
2.84659e-07
-3.01995e-07
4.10679e-07
7.74119e-10
-5.39601e-07
6.56013e-07
-7.45498e-07
-1.34805e-08
1.06553e-06
-1.48803e-06
1.7867e-06
-1.87245e-06
3.75959e-07
-1.42993e-06
-5.30512e-07
4.32792e-07
-2.55473e-06
3.66465e-06
-4.31091e-06
5.34327e-06
-1.82162e-06
1.61223e-06
5.13289e-06
-2.13115e-06
4.61291e-06
-3.53648e-06
1.56396e-06
-3.1629e-06
-6.31212e-07
-2.14528e-06
-1.27755e-06
-1.01701e-06
-1.61168e-06
2.14911e-07
-1.53774e-06
1.94337e-06
-2.32161e-06
4.21531e-06
-2.88616e-06
5.83394e-06
-2.0716e-06
5.56194e-06
4.56977e-07
2.36572e-06
4.06236e-06
2.28024e-06
1.1478e-07
5.7624e-06
-4.67203e-06
5.64528e-06
3.65389e-08
2.7211e-06
3.76001e-06
-1.70355e-06
5.60718e-06
-5.35562e-06
4.48224e-06
-6.44718e-06
1.40559e-06
-6.46591e-06
5.3428e-08
-5.61928e-06
-1.08927e-06
-3.59661e-06
-2.64754e-06
-4.26171e-07
-4.21293e-06
2.07976e-06
-4.14967e-06
5.32779e-06
-4.31894e-06
3.83663e-06
2.41241e-06
-3.67386e-06
6.38163e-06
5.50124e-06
3.22743e-05
3.127e-06
3.94076e-06
2.49002e-06
9.90595e-07
2.17348e-06
5.06436e-07
1.9677e-06
3.16788e-07
1.82788e-06
2.34609e-07
1.71412e-06
1.75168e-07
1.63084e-06
1.4877e-07
1.55874e-06
1.13473e-07
1.50523e-06
1.0352e-07
1.4574e-06
8.01817e-08
1.4203e-06
7.85424e-08
1.38746e-06
6.15806e-08
1.36003e-06
6.33555e-08
1.33679e-06
5.06453e-08
1.31511e-06
5.35142e-08
1.29776e-06
4.41366e-08
1.27943e-06
4.67152e-08
1.26536e-06
4.00031e-08
1.24897e-06
4.15402e-08
1.23653e-06
3.67845e-08
1.22137e-06
3.69927e-08
1.20969e-06
3.35129e-08
1.1955e-06
3.25112e-08
1.18415e-06
2.9805e-08
1.1708e-06
2.79703e-08
1.15972e-06
2.57473e-08
1.14735e-06
2.35292e-08
1.13693e-06
2.1675e-08
1.12602e-06
1.94821e-08
1.11677e-06
1.79594e-08
1.1075e-06
1.60836e-08
1.09924e-06
1.48106e-08
1.09086e-06
1.33772e-08
1.08249e-06
1.23123e-08
1.07347e-06
1.14751e-08
1.06338e-06
1.09022e-08
1.05184e-06
1.1239e-08
1.03814e-06
1.18416e-08
1.02152e-06
1.46065e-08
1.00117e-06
1.76057e-08
9.75832e-07
2.38721e-08
9.43305e-07
3.23568e-08
9.0437e-07
4.1106e-08
8.53396e-07
5.74194e-08
7.89798e-07
7.58416e-08
7.24271e-07
7.62395e-08
6.12075e-07
1.48535e-07
5.61701e-07
4.36848e-08
5.43207e-07
-2.00167e-08
2.37325e-08
7.82665e-07
-6.23023e-07
1.03933e-06
3.10251e-07
-1.49184e-06
1.51219e-06
-1.94686e-06
-2.23966e-07
2.78727e-06
-3.01231e-06
4.60351e-06
-3.42217e-06
7.70416e-07
-2.46302e-06
-1.45545e-06
1.62074e-06
-6.66261e-06
8.46489e-06
-1.11415e-05
1.05749e-05
-3.98192e-06
2.82607e-06
1.28959e-05
-4.53505e-06
1.18592e-05
-6.23913e-06
3.30584e-06
-5.27489e-06
-1.68904e-06
-3.2632e-06
-3.2189e-06
-9.45487e-07
-4.02643e-06
1.50387e-06
-3.92249e-06
4.66519e-06
-5.54296e-06
8.45619e-06
-6.65904e-06
1.13701e-05
-5.01856e-06
1.1495e-05
3.45662e-07
7.1204e-06
8.4008e-06
6.40345e-06
8.44296e-07
1.09332e-05
-9.24022e-06
1.05965e-05
3.45136e-07
4.02738e-06
1.01703e-05
-5.45062e-06
1.4937e-05
-1.14018e-05
1.03478e-05
-1.22482e-05
2.18533e-06
-1.1516e-05
-7.39419e-07
-9.55779e-06
-3.1154e-06
-6.01984e-06
-6.26079e-06
-5.91503e-07
-9.73146e-06
2.92864e-06
-7.76604e-06
7.43759e-06
-8.8755e-06
7.1909e-06
2.55219e-06
-4.90133e-06
8.4062e-06
9.69867e-06
4.57456e-05
5.84706e-06
7.79582e-06
4.65892e-06
2.17186e-06
4.06564e-06
1.11052e-06
3.68002e-06
6.96911e-07
3.41686e-06
5.13872e-07
3.20392e-06
3.85043e-07
3.0469e-06
3.24615e-07
2.91164e-06
2.49467e-07
2.81035e-06
2.25149e-07
2.7203e-06
1.75877e-07
2.64999e-06
1.69905e-07
2.5879e-06
1.34273e-07
2.53604e-06
1.36139e-07
2.49198e-06
1.09419e-07
2.4513e-06
1.14142e-07
2.41846e-06
9.43137e-08
2.38447e-06
9.89078e-08
2.35807e-06
8.45721e-08
2.32808e-06
8.73816e-08
2.30506e-06
7.70963e-08
2.2777e-06
7.74293e-08
2.2564e-06
6.98197e-08
2.23104e-06
6.78312e-08
2.21062e-06
6.18928e-08
2.18695e-06
5.82878e-08
2.16722e-06
5.34406e-08
2.14543e-06
4.90789e-08
2.127e-06
4.50565e-08
2.10783e-06
4.07069e-08
2.09152e-06
3.73838e-08
2.07524e-06
3.36205e-08
2.06072e-06
3.08641e-08
2.046e-06
2.8019e-08
2.03126e-06
2.58672e-08
2.01536e-06
2.43777e-08
1.99754e-06
2.34918e-08
1.97704e-06
2.46096e-08
1.95266e-06
2.63891e-08
1.92302e-06
3.26436e-08
1.88656e-06
3.96868e-08
1.84134e-06
5.31098e-08
1.78306e-06
7.19016e-08
1.71319e-06
9.083e-08
1.62305e-06
1.24588e-07
1.50755e-06
1.66963e-07
1.39229e-06
1.63816e-07
1.19564e-06
3.15435e-07
1.08454e-06
1.21134e-07
1.02899e-06
-2.23595e-11
1.10904e-07
1.6615e-06
-1.04406e-06
2.16287e-06
7.97265e-07
-3.36536e-06
2.73884e-06
-3.88517e-06
-4.19016e-07
5.92119e-06
-4.85756e-06
9.0868e-06
-5.11716e-06
1.00734e-06
-3.29476e-06
-3.22381e-06
3.59151e-06
-1.35825e-05
1.47459e-05
-2.22804e-05
1.74506e-05
-6.74477e-06
4.73143e-06
2.56389e-05
-7.20012e-06
2.36214e-05
-9.02758e-06
5.18236e-06
-7.28741e-06
-3.55049e-06
-4.01888e-06
-6.38545e-06
-2.28335e-07
-7.95035e-06
3.59778e-06
-7.67573e-06
8.1629e-06
-1.0174e-05
1.34303e-05
-1.19068e-05
1.77448e-05
-9.36845e-06
1.89123e-05
-8.07897e-07
1.41239e-05
1.31536e-05
1.27175e-05
2.26214e-06
1.77447e-05
-1.4302e-05
1.64146e-05
1.64029e-06
3.12423e-06
2.33627e-05
-1.28003e-05
3.07983e-05
-1.84042e-05
1.58834e-05
-1.79766e-05
1.68941e-06
-1.60953e-05
-2.68766e-06
-1.28436e-05
-6.44699e-06
-7.75529e-06
-1.144e-05
-5.83643e-07
-1.69988e-05
2.13859e-06
-1.05952e-05
8.2815e-06
-1.50679e-05
9.94319e-06
7.48278e-07
-4.88279e-06
9.90112e-06
1.56277e-05
6.00882e-05
1.00431e-05
1.33862e-05
8.03207e-06
4.17171e-06
7.01203e-06
2.14858e-06
6.34737e-06
1.35252e-06
5.89279e-06
9.95351e-07
5.52573e-06
7.47071e-07
5.25423e-06
6.27634e-07
5.02033e-06
4.8473e-07
4.84429e-06
4.3524e-07
4.68773e-06
3.42033e-07
4.56491e-06
3.27933e-07
4.45618e-06
2.60862e-07
4.36512e-06
2.62113e-07
4.28727e-06
2.11895e-07
4.2156e-06
2.18975e-07
4.15714e-06
1.81626e-07
4.09732e-06
1.88864e-07
4.05027e-06
1.61685e-07
3.9978e-06
1.65951e-07
3.95706e-06
1.46261e-07
3.90964e-06
1.46246e-07
3.87243e-06
1.31532e-07
3.82895e-06
1.27483e-07
3.79381e-06
1.15929e-07
3.75371e-06
1.09092e-07
3.72028e-06
9.96618e-08
3.68379e-06
9.15636e-08
3.65299e-06
8.3761e-08
3.62121e-06
7.57456e-08
3.59426e-06
6.92898e-08
3.5675e-06
6.23534e-08
3.54372e-06
5.70154e-08
3.51973e-06
5.18087e-08
3.49583e-06
4.77916e-08
3.47012e-06
4.52577e-08
3.44139e-06
4.38985e-08
3.40833e-06
4.64211e-08
3.36896e-06
5.03342e-08
3.3211e-06
6.23868e-08
3.2619e-06
7.65206e-08
3.18876e-06
1.01482e-07
3.09416e-06
1.37518e-07
2.97991e-06
1.73942e-07
2.83542e-06
2.3356e-07
2.64448e-06
3.20142e-07
2.4575e-06
3.07772e-07
2.15091e-06
5.75423e-07
1.92172e-06
2.9727e-07
1.77336e-06
9.0261e-08
4.23039e-07
2.94238e-06
-1.51866e-06
4.0495e-06
1.59858e-06
-6.53462e-06
4.52315e-06
-6.80136e-06
-3.77902e-07
1.07776e-05
-6.73113e-06
1.55086e-05
-6.56753e-06
8.10286e-07
-3.23024e-06
-6.48127e-06
7.22772e-06
-2.40838e-05
2.27237e-05
-3.77596e-05
2.56591e-05
-9.74223e-06
5.99091e-06
4.53279e-05
-9.83314e-06
3.92275e-05
-1.14297e-05
6.83953e-06
-8.82761e-06
-6.32117e-06
-4.027e-06
-1.10359e-05
1.4898e-06
-1.36355e-05
6.7875e-06
-1.28961e-05
1.26684e-05
-1.61278e-05
1.93183e-05
-1.85353e-05
2.49108e-05
-1.49997e-05
2.74668e-05
-3.34938e-06
2.30302e-05
1.75545e-05
2.13237e-05
3.98013e-06
2.67065e-05
-1.97259e-05
1.97342e-05
8.57714e-06
-3.97863e-06
4.70295e-05
-2.22898e-05
4.907e-05
-2.49769e-05
1.85058e-05
-2.33104e-05
-5.37899e-08
-2.03964e-05
-5.68144e-06
-1.60523e-05
-1.08868e-05
-9.78966e-06
-1.77964e-05
-1.58702e-06
-2.52807e-05
2.45786e-06
-1.47229e-05
9.56655e-06
-2.22177e-05
1.17815e-05
-1.62544e-06
-4.61086e-06
1.14744e-05
2.37303e-05
7.45545e-05
1.63267e-05
2.07988e-05
1.31729e-05
7.30865e-06
1.15163e-05
3.83328e-06
1.04297e-05
2.4251e-06
9.68412e-06
1.78319e-06
9.08261e-06
1.34083e-06
8.63635e-06
1.12357e-06
8.25131e-06
8.7213e-07
7.96017e-06
7.80117e-07
7.70068e-06
6.16875e-07
7.49628e-06
5.8781e-07
7.31449e-06
4.70944e-07
7.16194e-06
4.69462e-07
7.03046e-06
3.82128e-07
6.90987e-06
3.9135e-07
6.81031e-06
3.26249e-07
6.70972e-06
3.36216e-07
6.62948e-06
2.88489e-07
6.54184e-06
2.93796e-07
6.47295e-06
2.58825e-07
6.39459e-06
2.57277e-07
6.33257e-06
2.30841e-07
6.26164e-06
2.22869e-07
6.20408e-06
2.01956e-07
6.13955e-06
1.89625e-07
6.08573e-06
1.7254e-07
6.0278e-06
1.58368e-07
5.97896e-06
1.44273e-07
5.92907e-06
1.3044e-07
5.88681e-06
1.188e-07
5.84514e-06
1.06892e-07
5.80819e-06
9.73337e-08
5.77112e-06
8.84845e-08
5.73436e-06
8.15384e-08
5.69495e-06
7.75466e-08
5.65106e-06
7.56606e-08
5.60054e-06
8.06679e-08
5.54037e-06
8.83716e-08
5.46734e-06
1.09552e-07
5.37653e-06
1.35564e-07
5.26491e-06
1.78035e-07
5.12027e-06
2.41257e-07
4.94391e-06
3.06443e-07
4.72657e-06
4.0088e-07
4.42884e-06
5.64625e-07
4.14221e-06
5.33631e-07
3.70083e-06
9.5053e-07
3.25356e-06
6.68543e-07
2.9673e-06
2.90673e-07
1.23038e-06
4.57014e-06
-1.80732e-06
6.99015e-06
3.00538e-06
-1.14218e-05
7.10414e-06
-1.08836e-05
3.36448e-07
1.74624e-05
-8.06054e-06
2.39943e-05
-6.90017e-06
-4.01848e-07
-1.12904e-06
-1.21494e-05
1.40561e-05
-3.93141e-05
3.31432e-05
-5.68305e-05
3.31515e-05
-9.82631e-06
4.25083e-06
7.4241e-05
-1.25333e-05
5.58057e-05
-1.30157e-05
7.40101e-06
-9.29546e-06
-1.03017e-05
-2.42975e-06
-1.77048e-05
4.84489e-06
-2.10721e-05
1.13771e-05
-1.93528e-05
1.84881e-05
-2.33123e-05
2.64709e-05
-2.64967e-05
3.32453e-05
-2.18161e-05
3.71393e-05
-7.22808e-06
3.35917e-05
2.10667e-05
3.18293e-05
5.75499e-06
3.42261e-05
-2.22151e-05
1.42525e-05
2.85272e-05
-1.74938e-05
7.87382e-05
-3.15517e-05
6.30884e-05
-3.104e-05
1.79242e-05
-2.89458e-05
-2.23848e-06
-2.51763e-05
-9.54658e-06
-1.99911e-05
-1.61747e-05
-1.24891e-05
-2.53832e-05
-2.68862e-06
-3.51506e-05
3.03045e-06
-2.0511e-05
1.16801e-05
-3.09052e-05
1.46983e-05
-4.82454e-06
-2.54997e-09
1.00597e-05
3.4392e-05
8.80125e-05
2.54132e-05
2.97903e-05
2.08332e-05
1.1865e-05
1.82767e-05
6.43012e-06
1.65742e-05
4.10773e-06
1.5397e-05
3.02157e-06
1.44473e-05
2.27949e-06
1.37388e-05
1.90439e-06
1.31268e-05
1.48792e-06
1.26608e-05
1.32439e-06
1.22449e-05
1.05553e-06
1.19156e-05
9.9776e-07
1.16215e-05
8.06493e-07
1.13746e-05
7.95737e-07
1.11598e-05
6.53166e-07
1.09644e-05
6.61235e-07
1.08008e-05
5.54694e-07
1.06387e-05
5.65156e-07
1.05072e-05
4.86413e-07
1.03674e-05
4.905e-07
1.02558e-05
4.32117e-07
1.01325e-05
4.26375e-07
1.00337e-05
3.81759e-07
9.92362e-06
3.66847e-07
9.83353e-06
3.31364e-07
9.73468e-06
3.10402e-07
9.65179e-06
2.81448e-07
9.56397e-06
2.58208e-07
9.4896e-06
2.34425e-07
9.41439e-06
2.12117e-07
9.35034e-06
1.92553e-07
9.28754e-06
1.73509e-07
9.23162e-06
1.57649e-07
9.1757e-06
1.43756e-07
9.1203e-06
1.32766e-07
9.06106e-06
1.27212e-07
8.99537e-06
1.25238e-07
8.91992e-06
1.34695e-07
8.83027e-06
1.49075e-07
8.72205e-06
1.84123e-07
8.5872e-06
2.29296e-07
8.42289e-06
2.97143e-07
8.21034e-06
4.01248e-07
7.94878e-06
5.11787e-07
7.63607e-06
6.49552e-07
7.19193e-06
9.40561e-07
6.77006e-06
8.77663e-07
6.17359e-06
1.46178e-06
5.35495e-06
1.38897e-06
5.02634e-06
5.07709e-07
2.95702e-06
6.49356e-06
-1.26994e-06
1.10743e-05
5.54743e-06
-1.83326e-05
1.07058e-05
-1.60281e-05
2.10101e-06
2.59862e-05
-8.29601e-06
3.45111e-05
-5.11643e-06
-3.66209e-06
3.92946e-06
-2.10801e-05
2.51103e-05
-6.05315e-05
4.62517e-05
-7.79581e-05
3.95384e-05
-3.18912e-06
-8.63131e-08
0.000113877
-1.55442e-05
7.10909e-05
-1.37142e-05
5.68477e-06
-8.47267e-06
-1.58825e-05
1.02635e-06
-2.70277e-05
1.01122e-05
-3.02844e-05
1.76999e-05
-2.68748e-05
2.61024e-05
-3.17829e-05
3.52481e-05
-3.56223e-05
4.31518e-05
-2.97631e-05
4.80037e-05
-1.20635e-05
4.5815e-05
2.32186e-05
4.15811e-05
1.00015e-05
3.20831e-05
-1.28213e-05
-4.48467e-06
6.50782e-05
-3.32671e-05
0.000107486
-3.95751e-05
6.93505e-05
-3.76041e-05
1.5872e-05
-3.53728e-05
-4.57761e-06
-3.092e-05
-1.41065e-05
-2.4712e-05
-2.24845e-05
-1.54989e-05
-3.46793e-05
-3.7054e-06
-4.70119e-05
3.2996e-06
-2.75828e-05
1.37685e-05
-4.14129e-05
1.75629e-05
-8.81474e-06
7.60413e-06
9.92368e-06
4.77933e-05
9.90351e-05
3.79866e-05
3.96139e-05
3.19142e-05
1.79069e-05
2.82038e-05
1.01936e-05
2.5654e-05
6.63154e-06
2.38625e-05
4.89408e-06
2.24136e-05
3.71404e-06
2.13218e-05
3.09235e-06
2.03779e-05
2.43726e-06
1.96517e-05
2.15487e-06
1.90032e-05
1.73475e-06
1.84864e-05
1.62175e-06
1.8023e-05
1.32526e-06
1.76344e-05
1.28937e-06
1.72929e-05
1.06925e-06
1.69863e-05
1.06588e-06
1.67252e-05
9.01143e-07
1.64729e-05
9.0464e-07
1.62639e-05
7.82005e-07
1.60493e-05
7.7884e-07
1.5874e-05
6.86989e-07
1.56874e-05
6.71828e-07
1.55347e-05
6.01072e-07
1.537e-05
5.74602e-07
1.52329e-05
5.18221e-07
1.50863e-05
4.84582e-07
1.49615e-05
4.38748e-07
1.48317e-05
4.0296e-07
1.47203e-05
3.65493e-07
1.46086e-05
3.31776e-07
1.4512e-05
3.01094e-07
1.44176e-05
2.72612e-07
1.43323e-05
2.48146e-07
1.42473e-05
2.2793e-07
1.41628e-05
2.11983e-07
1.40728e-05
2.05339e-07
1.39739e-05
2.04482e-07
1.38612e-05
2.2148e-07
1.37284e-05
2.46958e-07
1.357e-05
3.02187e-07
1.33735e-05
3.7669e-07
1.31369e-05
4.79953e-07
1.28331e-05
6.42706e-07
1.24567e-05
8.21716e-07
1.20192e-05
1.0115e-06
1.13812e-05
1.49805e-06
1.07726e-05
1.39441e-06
1.00023e-05
2.13124e-06
8.60693e-06
2.66756e-06
8.35759e-06
6.29614e-07
5.90429e-06
8.77834e-06
7.8956e-07
1.60321e-05
1.01596e-05
-2.78124e-05
1.69333e-05
-2.27914e-05
-2.01015e-07
4.30647e-05
-7.75993e-06
4.22774e-05
-1.43198e-07
-1.13792e-05
1.26185e-05
-3.37463e-05
3.91714e-05
-8.71137e-05
6.10002e-05
-9.97741e-05
4.24252e-05
1.53251e-05
-5.41201e-06
0.000161726
-1.71525e-05
8.26496e-05
-1.36739e-05
2.35438e-06
-5.14354e-06
-2.47253e-05
6.52163e-06
-3.85715e-05
1.66818e-05
-4.05472e-05
2.52453e-05
-3.53817e-05
3.45379e-05
-4.11414e-05
4.50669e-05
-4.61319e-05
5.43199e-05
-3.90609e-05
5.97441e-05
-1.74697e-05
5.95126e-05
2.34097e-05
4.68369e-05
2.26897e-05
1.25343e-05
2.14297e-05
-2.85989e-05
0.000106196
-4.64577e-05
0.000125307
-4.73062e-05
7.01421e-05
-4.5346e-05
1.38144e-05
-4.28491e-05
-7.20165e-06
-3.76981e-05
-1.93708e-05
-3.02958e-05
-2.99926e-05
-1.91531e-05
-4.59073e-05
-4.94356e-06
-6.12908e-05
3.47984e-06
-3.6075e-05
1.62242e-05
-5.41982e-05
2.15334e-05
-1.43128e-05
1.87589e-05
1.03413e-05
6.3737e-05
0.000106244
5.44238e-05
4.89477e-05
4.72739e-05
2.502e-05
4.23412e-05
1.51909e-05
3.87539e-05
1.01874e-05
3.61561e-05
7.59063e-06
3.40348e-05
5.81828e-06
3.24105e-05
4.83416e-06
3.10022e-05
3.8526e-06
2.9903e-05
3.38163e-06
2.89203e-05
2.75535e-06
2.81302e-05
2.54271e-06
2.74187e-05
2.10455e-06
2.68223e-05
2.01351e-06
2.62923e-05
1.69007e-06
2.58228e-05
1.65397e-06
2.54152e-05
1.41196e-06
2.5032e-05
1.39278e-06
2.47062e-05
1.21168e-06
2.43838e-05
1.18941e-06
2.4113e-05
1.05273e-06
2.38355e-05
1.01913e-06
2.36022e-05
9.13277e-07
2.33591e-05
8.68389e-07
2.31517e-05
7.84064e-07
2.29359e-05
7.32505e-07
2.27483e-05
6.64241e-07
2.25568e-05
6.11807e-07
2.23888e-05
5.56199e-07
2.2222e-05
5.07788e-07
2.20744e-05
4.624e-07
2.19304e-05
4.22007e-07
2.1798e-05
3.86455e-07
2.1666e-05
3.58729e-07
2.15347e-05
3.37104e-07
2.13961e-05
3.30317e-07
2.12457e-05
3.32439e-07
2.10766e-05
3.60998e-07
2.08807e-05
4.03351e-07
2.06509e-05
4.8653e-07
2.03693e-05
6.03161e-07
2.00345e-05
7.54479e-07
1.96097e-05
9.97975e-07
1.90823e-05
1.27506e-06
1.8478e-05
1.53173e-06
1.75919e-05
2.29478e-06
1.67184e-05
2.16586e-06
1.57296e-05
3.00784e-06
1.34889e-05
4.77716e-06
1.35852e-05
3.97531e-07
1.04655e-05
1.17173e-05
4.99441e-06
2.13595e-05
1.70852e-05
-4.00076e-05
2.30573e-05
-2.87552e-05
3.01392e-06
6.30459e-05
-6.01725e-06
5.1578e-05
7.53718e-06
-2.50243e-05
2.39582e-05
-5.0098e-05
5.3763e-05
-0.000116947
7.35457e-05
-0.000119543
4.10798e-05
4.77333e-05
-1.1237e-05
0.000214057
-1.81472e-05
8.93483e-05
-1.32099e-05
-2.43193e-06
-1.91115e-06
-3.62834e-05
1.09428e-05
-5.13178e-05
2.21445e-05
-5.18499e-05
3.16023e-05
-4.47832e-05
4.22519e-05
-5.18616e-05
5.48647e-05
-5.87251e-05
6.5615e-05
-4.98601e-05
7.18754e-05
-2.37107e-05
7.18585e-05
2.33807e-05
4.36833e-05
5.08777e-05
-1.25867e-05
7.7661e-05
-4.96611e-05
0.000143255
-5.68752e-05
0.000132476
-5.61749e-05
6.93709e-05
-5.46015e-05
1.21259e-05
-5.14126e-05
-1.05339e-05
-4.55805e-05
-2.53253e-05
-3.68678e-05
-3.88181e-05
-2.36978e-05
-5.91671e-05
-6.73606e-06
-7.83247e-05
3.6208e-06
-4.65042e-05
1.96162e-05
-7.02373e-05
2.73358e-05
-2.22043e-05
3.49139e-05
1.11371e-05
8.1598e-05
0.000108969
7.44284e-05
5.61421e-05
6.72949e-05
3.21099e-05
6.15532e-05
2.10077e-05
5.69822e-05
1.47224e-05
5.34957e-05
1.11908e-05
5.05753e-05
8.71915e-06
4.82843e-05
7.25997e-06
4.62786e-05
5.86679e-06
4.46829e-05
5.12313e-06
4.32495e-05
4.23241e-06
4.20825e-05
3.85903e-06
4.10252e-05
3.23949e-06
4.01357e-05
3.0482e-06
3.93357e-05
2.59341e-06
3.86333e-05
2.49077e-06
3.80113e-05
2.15082e-06
3.74389e-05
2.08356e-06
3.69396e-05
1.82815e-06
3.64602e-05
1.76785e-06
3.60456e-05
1.57381e-06
3.56349e-05
1.50793e-06
3.52792e-05
1.35696e-06
3.49204e-05
1.28367e-06
3.46059e-05
1.16336e-06
3.42874e-05
1.08663e-06
3.40041e-05
9.89417e-07
3.37201e-05
9.14851e-07
3.34655e-05
8.35654e-07
3.32152e-05
7.68217e-07
3.2989e-05
7.03649e-07
3.27687e-05
6.48131e-07
3.25632e-05
5.98417e-07
3.23589e-05
5.61605e-07
3.21558e-05
5.33354e-07
3.19439e-05
5.2732e-07
3.17173e-05
5.34431e-07
3.14673e-05
5.78915e-07
3.11833e-05
6.44595e-07
3.0856e-05
7.64696e-07
3.04618e-05
9.38029e-07
2.99989e-05
1.15277e-06
2.94176e-05
1.5048e-06
2.87015e-05
1.91226e-06
2.78745e-05
2.26933e-06
2.66804e-05
3.39407e-06
2.54551e-05
3.2829e-06
2.4101e-05
4.24288e-06
2.08238e-05
7.9152e-06
2.1353e-05
-2.71965e-07
1.70821e-05
1.58103e-05
1.15653e-05
2.67429e-05
2.72992e-05
-5.58255e-05
2.98962e-05
-3.13446e-05
1.14063e-06
9.17327e-05
-6.32289e-06
5.9285e-05
1.71666e-05
-4.85786e-05
3.68684e-05
-6.97411e-05
6.96185e-05
-0.000149728
8.39266e-05
-0.000133836
3.62004e-05
9.53966e-05
-1.64297e-05
0.000266705
-1.87434e-05
9.14025e-05
-1.2582e-05
-8.44916e-06
6.50739e-07
-4.97742e-05
1.50532e-05
-6.56139e-05
2.70367e-05
-6.39407e-05
3.72808e-05
-5.49687e-05
5.01395e-05
-6.47986e-05
6.5273e-05
-7.38392e-05
7.70228e-05
-6.16643e-05
8.38626e-05
-3.05297e-05
8.0803e-05
2.63864e-05
3.50426e-05
9.66516e-05
-3.57745e-05
0.000148442
-6.55862e-05
0.000173047
-6.67326e-05
0.000133566
-6.71099e-05
6.96612e-05
-6.53885e-05
1.02712e-05
-6.09374e-05
-1.51416e-05
-5.41671e-05
-3.22296e-05
-4.3991e-05
-4.91163e-05
-2.8953e-05
-7.43011e-05
-9.287e-06
-9.80665e-05
3.98319e-06
-5.98506e-05
2.4397e-05
-9.06974e-05
3.45796e-05
-3.25432e-05
5.73343e-05
1.21087e-05
0.0001007
0.000107984
9.69044e-05
5.99672e-05
9.13461e-05
3.76166e-05
8.58953e-05
2.65449e-05
8.09367e-05
1.964e-05
7.68353e-05
1.54197e-05
7.32126e-05
1.23201e-05
7.02606e-05
1.03614e-05
6.76128e-05
8.52397e-06
6.54524e-05
7.44395e-06
6.34852e-05
6.24761e-06
6.18556e-05
5.65197e-06
6.0363e-05
4.81707e-06
5.90957e-05
4.47362e-06
5.79404e-05
3.86127e-06
5.69269e-05
3.65024e-06
5.60125e-05
3.19191e-06
5.51804e-05
3.04379e-06
5.44377e-05
2.69754e-06
5.37381e-05
2.5742e-06
5.31177e-05
2.30902e-06
5.25174e-05
2.1922e-06
5.19844e-05
1.98447e-06
5.14595e-05
1.86905e-06
5.09893e-05
1.70291e-06
5.05232e-05
1.59079e-06
5.01011e-05
1.45614e-06
4.96848e-05
1.35144e-06
4.93057e-05
1.2412e-06
4.89365e-05
1.14823e-06
4.85979e-05
1.05819e-06
4.82695e-05
9.82598e-07
4.79605e-05
9.14241e-07
4.76551e-05
8.65503e-07
4.73524e-05
8.28703e-07
4.70405e-05
8.23428e-07
4.67121e-05
8.36872e-07
4.6356e-05
9.01207e-07
4.59594e-05
9.963e-07
4.55098e-05
1.16292e-06
4.49775e-05
1.40833e-06
4.43601e-05
1.70287e-06
4.35879e-05
2.19978e-06
4.26542e-05
2.76434e-06
4.15485e-05
3.28296e-06
3.99779e-05
4.8674e-06
3.8385e-05
4.76533e-06
3.62827e-05
6.22321e-06
3.23664e-05
1.16911e-05
3.28827e-05
-9.29909e-07
2.48311e-05
2.37082e-05
1.98131e-05
3.16397e-05
3.86546e-05
-7.47492e-05
3.7923e-05
-3.05962e-05
1.3581e-06
0.000128228
-3.3018e-06
6.41565e-05
2.88899e-05
-8.08265e-05
5.20819e-05
-9.28761e-05
8.7347e-05
-0.00018503
9.26872e-05
-0.000139154
2.92289e-05
0.000158778
-2.00352e-05
0.000315994
-1.81242e-05
8.91724e-05
-1.17748e-05
-1.46387e-05
3.23174e-06
-6.5054e-05
1.89635e-05
-8.12364e-05
3.1218e-05
-7.63148e-05
4.27053e-05
-6.63946e-05
5.89084e-05
-8.10894e-05
7.62309e-05
-9.11437e-05
8.80787e-05
-7.35731e-05
9.41937e-05
-3.66198e-05
8.32558e-05
3.72585e-05
2.05115e-05
0.00015941
-5.61877e-05
0.000225105
-7.8365e-05
0.000195199
-7.82578e-05
0.00013339
-7.99452e-05
7.12455e-05
-7.7171e-05
7.34498e-06
-7.10366e-05
-2.14475e-05
-6.28197e-05
-4.05935e-05
-5.09227e-05
-6.11467e-05
-3.42315e-05
-9.10963e-05
-1.25122e-05
-0.000119866
4.96624e-06
-7.74089e-05
3.10339e-05
-0.000116814
4.31616e-05
-4.48125e-05
8.74296e-05
1.30087e-05
0.000121292
0.000105537
0.000120705
6.0591e-05
0.000117843
4.04155e-05
0.00011409
3.03993e-05
0.000109926
2.3757e-05
0.000106063
1.9427e-05
0.000102306
1.6052e-05
9.90615e-05
1.37714e-05
9.59995e-05
1.15962e-05
9.34105e-05
1.02076e-05
9.09817e-05
8.72845e-06
8.89207e-05
7.88912e-06
8.69936e-05
6.83543e-06
8.53315e-05
6.3051e-06
8.37888e-05
5.5242e-06
8.24249e-05
5.1696e-06
8.11716e-05
4.58006e-06
8.00313e-05
4.32006e-06
7.89932e-05
3.86988e-06
7.80225e-05
3.65787e-06
7.7144e-05
3.30873e-06
7.63042e-05
3.12056e-06
7.55443e-05
2.84388e-06
7.48066e-05
2.67031e-06
7.41354e-05
2.44703e-06
7.34793e-05
2.28673e-06
7.2878e-05
2.10419e-06
7.22919e-05
1.95874e-06
7.17529e-05
1.80783e-06
7.1232e-05
1.68036e-06
7.07504e-05
1.55651e-06
7.02856e-05
1.45373e-06
6.98464e-05
1.36048e-06
6.94152e-05
1.29519e-06
6.89898e-05
1.24639e-06
6.85565e-05
1.24035e-06
6.81065e-05
1.26006e-06
6.76259e-05
1.3469e-06
6.70997e-05
1.47621e-06
6.65119e-05
1.69779e-06
6.58255e-05
2.03118e-06
6.50417e-05
2.4179e-06
6.4057e-05
3.1058e-06
6.28973e-05
3.84117e-06
6.14877e-05
4.59955e-06
5.94802e-05
6.77735e-06
5.76114e-05
6.5239e-06
5.42977e-05
9.41539e-06
5.03884e-05
1.54632e-05
4.94715e-05
-1.52265e-07
3.49745e-05
3.80734e-05
3.22975e-05
3.42114e-05
5.34217e-05
-9.59526e-05
4.72857e-05
-2.44398e-05
8.42783e-06
0.000167017
1.01198e-05
6.26463e-05
4.53616e-05
-0.000116121
7.10349e-05
-0.00011849
0.000106842
-0.000220886
9.99792e-05
-0.000132258
2.26886e-05
0.000235976
-2.08577e-05
0.00035958
-1.73139e-05
8.50979e-05
-1.03109e-05
-2.14297e-05
6.27926e-06
-8.19364e-05
2.29737e-05
-9.78184e-05
3.51467e-05
-8.86241e-05
4.88167e-05
-8.00026e-05
6.89434e-05
-0.000101314
8.69756e-05
-0.000109161
9.7546e-05
-8.42111e-05
9.98381e-05
-3.8876e-05
7.43603e-05
6.26525e-05
-8.659e-07
0.000234649
-7.3438e-05
0.000297639
-9.0701e-05
0.000212429
-9.27071e-05
0.000135313
-9.36192e-05
7.20372e-05
-8.91679e-05
2.71923e-06
-8.13472e-05
-2.94559e-05
-7.11682e-05
-5.09337e-05
-5.72528e-05
-7.52074e-05
-3.88861e-05
-0.000109576
-1.60088e-05
-0.000142828
7.32379e-06
-0.000100823
3.9942e-05
-0.000149481
5.31694e-05
-5.81664e-05
0.000127157
1.3378e-05
0.000145387
0.000103923
0.000146304
5.97198e-05
0.000145797
4.08457e-05
0.000144357
3.19609e-05
0.000142016
2.60421e-05
0.000139492
2.21186e-05
0.000136589
1.89274e-05
0.000133877
1.66701e-05
0.000131057
1.44269e-05
0.000128557
1.2902e-05
0.000126064
1.12776e-05
0.00012388
1.02661e-05
0.000121753
9.06089e-06
0.000119876
8.36538e-06
0.000118082
7.44776e-06
0.00011647
6.94862e-06
0.000114953