/*--------------------------------*- C++ -*----------------------------------*\
| =========                 |                                                 |
| \\      /  F ield         | OpenFOAM: The Open Source CFD Toolbox           |
|  \\    /   O peration     | Version:  2306                                  |
|   \\  /    A nd           | Website:  www.openfoam.com                      |
|    \\/     M anipulation  |                                                 |
\*---------------------------------------------------------------------------*/
FoamFile
{
    version     2.0;
    format      ascii;
    arch        "LSB;label=32;scalar=64";
    class       volSymmTensorField;
    location    "1600";
    object      turbulenceProperties:devReff;
}
// * * * * * * * * * * * * * * * * * * * * * * * * * * * * * * * * * * * * * //

dimensions      [0 2 -2 0 0 0 0];

internalField   nonuniform List<symmTensor> 
20540
(
(-0.00125798 -0.0194289 -0 0.0012563 -0 1.67892e-06)
(0.011824 0.0339682 -0 -0.011797 -0 -2.69388e-05)
(-0.0012464 -0.061898 -0 0.00124611 -0 2.84642e-07)
(0.0102068 0.10808 -0 -0.0102213 -0 1.45029e-05)
(-0.00121289 -0.111398 -0 0.00121335 -0 -4.56911e-07)
(0.00845398 0.190691 -0 -0.00846075 -0 6.76493e-06)
(-0.00114819 -0.166425 -0 0.00114868 -0 -4.90322e-07)
(0.00665183 0.275229 -0 -0.00665037 -0 -1.46358e-06)
(-0.00104306 -0.223028 -0 0.00104409 -0 -1.02965e-06)
(0.00486297 0.353704 -0 -0.00485968 -0 -3.28541e-06)
(-0.00088816 -0.274178 -0 0.000889767 -0 -1.60655e-06)
(0.00315754 0.414036 -0 -0.0031534 -0 -4.1403e-06)
(-0.000679609 -0.30969 -0 0.000681064 -0 -1.4552e-06)
(0.00163138 0.441716 -0 -0.0016258 -0 -5.57285e-06)
(-0.000425931 -0.318206 -0 0.000425864 -0 6.70728e-08)
(0.0004009 0.422424 -0 -0.000394585 -0 -6.31475e-06)
(-0.000156663 -0.291788 -0 0.000154107 -0 2.55629e-06)
(-0.000416435 0.348251 -0 0.000420687 -0 -4.25158e-06)
(7.37292e-05 -0.231761 -0 -7.78099e-05 -0 4.0807e-06)
(-0.000747015 0.227995 -0 0.000746137 -0 8.78206e-07)
(0.000201351 -0.151845 -0 -0.000204314 -0 2.96319e-06)
(-0.000633591 0.0951933 -0 0.00062941 -0 4.18115e-06)
(0.000196739 -0.0747521 -0 -0.000197084 -0 3.45118e-07)
(-0.000286303 -0.00197232 -0 0.000287194 -0 -8.90527e-07)
(0.000106742 -0.0218987 -0 -0.000105985 -0 -7.56672e-07)
(-9.85679e-07 -0.0353542 -0 1.13596e-05 -0 -1.03739e-05)
(2.5432e-05 -0.000181774 -0 -2.56925e-05 -0 2.6055e-07)
(7.06606e-05 -0.0230874 -0 -5.86282e-05 -0 -1.20324e-05)
(-6.77958e-07 0.00192808 -0 -6.22419e-07 -0 1.30038e-06)
(2.08797e-05 -0.00514241 -0 -1.41768e-05 -0 -6.70287e-06)
(2.36882e-06 2.31945e-05 -0 -4.0135e-06 -0 1.64468e-06)
(-1.6396e-05 0.000719933 -0 2.11607e-05 -0 -4.76471e-06)
(5.24886e-06 -0.000279856 -0 -7.0669e-06 -0 1.81805e-06)
(-2.24217e-05 0.000382561 -0 2.89657e-05 -0 -6.544e-06)
(5.12985e-06 -4.26725e-05 -0 -7.03182e-06 -0 1.90197e-06)
(-2.19746e-05 -4.83274e-05 -0 2.97236e-05 -0 -7.74896e-06)
(4.87129e-06 9.86502e-06 -0 -6.77949e-06 -0 1.90821e-06)
(-2.21052e-05 -5.02755e-05 -0 2.99645e-05 -0 -7.85925e-06)
(4.79131e-06 3.32245e-06 -0 -6.72467e-06 -0 1.93336e-06)
(-2.23278e-05 -3.25302e-05 -0 3.0092e-05 -0 -7.76424e-06)
(4.71296e-06 4.43237e-07 -0 -6.69062e-06 -0 1.97766e-06)
(-2.25092e-05 -3.13974e-05 -0 3.02161e-05 -0 -7.70687e-06)
(4.56857e-06 -7.67157e-07 -0 -6.55931e-06 -0 1.99075e-06)
(-2.25986e-05 -3.0898e-05 -0 3.02232e-05 -0 -7.62462e-06)
(4.36131e-06 -1.57708e-06 -0 -6.3344e-06 -0 1.97308e-06)
(-2.25674e-05 -2.97109e-05 -0 3.00531e-05 -0 -7.48566e-06)
(4.10512e-06 -2.04717e-06 -0 -6.04347e-06 -0 1.93835e-06)
(-2.24301e-05 -2.81307e-05 -0 2.97337e-05 -0 -7.30358e-06)
(3.7997e-06 -2.25677e-06 -0 -5.68578e-06 -0 1.88608e-06)
(-2.22041e-05 -2.62243e-05 -0 2.92967e-05 -0 -7.0926e-06)
(3.47264e-06 -2.27084e-06 -0 -5.31518e-06 -0 1.84254e-06)
(-2.19095e-05 -2.3988e-05 -0 2.87773e-05 -0 -6.86779e-06)
(3.16916e-06 -2.12907e-06 -0 -5.01825e-06 -0 1.84909e-06)
(-2.15364e-05 -2.13756e-05 -0 2.81473e-05 -0 -6.61094e-06)
(2.79701e-06 -1.84416e-06 -0 -4.60186e-06 -0 1.80485e-06)
(-2.10607e-05 -1.83211e-05 -0 2.73474e-05 -0 -6.28666e-06)
(2.22787e-06 -1.39659e-06 -0 -3.79296e-06 -0 1.56509e-06)
(-2.05956e-05 -1.48225e-05 -0 2.65895e-05 -0 -5.99381e-06)
(1.75764e-06 -7.46692e-07 -0 -3.15767e-06 -0 1.40003e-06)
(-2.02195e-05 -1.09407e-05 -0 2.60238e-05 -0 -5.80425e-06)
(1.6159e-06 -7.39544e-08 -0 -3.09127e-06 -0 1.47537e-06)
(-1.99627e-05 -6.83333e-06 -0 2.56432e-05 -0 -5.68048e-06)
(1.55778e-06 5.38191e-07 -0 -3.07772e-06 -0 1.51995e-06)
(-1.98753e-05 -2.74486e-06 -0 2.55359e-05 -0 -5.66056e-06)
(1.54466e-06 1.11503e-06 -0 -3.04999e-06 -0 1.50533e-06)
(-1.98655e-05 1.30786e-06 -0 2.55607e-05 -0 -5.69518e-06)
(1.57705e-06 1.71362e-06 -0 -3.00845e-06 -0 1.4314e-06)
(-1.99613e-05 5.36659e-06 -0 2.57615e-05 -0 -5.80021e-06)
(1.74631e-06 2.42438e-06 -0 -3.1329e-06 -0 1.38658e-06)
(-2.01867e-05 9.37169e-06 -0 2.61716e-05 -0 -5.98486e-06)
(2.20327e-06 3.00832e-06 -0 -3.75113e-06 -0 1.54787e-06)
(-2.04652e-05 1.32086e-05 -0 2.6632e-05 -0 -6.16681e-06)
(2.63776e-06 3.35342e-06 -0 -4.30032e-06 -0 1.66256e-06)
(-2.07985e-05 1.66831e-05 -0 2.71945e-05 -0 -6.39603e-06)
(2.93222e-06 3.52545e-06 -0 -4.57032e-06 -0 1.63811e-06)
(-2.11085e-05 1.97412e-05 -0 2.77122e-05 -0 -6.60369e-06)
(3.22493e-06 3.52842e-06 -0 -4.85258e-06 -0 1.62765e-06)
(-2.13335e-05 2.24312e-05 -0 2.80785e-05 -0 -6.74493e-06)
(3.50711e-06 3.36363e-06 -0 -5.13772e-06 -0 1.63061e-06)
(-2.15077e-05 2.47879e-05 -0 2.83746e-05 -0 -6.86692e-06)
(3.75998e-06 3.01005e-06 -0 -5.39232e-06 -0 1.63234e-06)
(-2.16168e-05 2.68264e-05 -0 2.85821e-05 -0 -6.9653e-06)
(3.97749e-06 2.42833e-06 -0 -5.60608e-06 -0 1.62859e-06)
(-2.16523e-05 2.85284e-05 -0 2.86914e-05 -0 -7.03912e-06)
(4.15645e-06 1.56263e-06 -0 -5.77339e-06 -0 1.61694e-06)
(-2.1607e-05 2.98122e-05 -0 2.86936e-05 -0 -7.08653e-06)
(4.29474e-06 3.49968e-07 -0 -5.89076e-06 -0 1.59602e-06)
(-2.14697e-05 3.04819e-05 -0 2.85699e-05 -0 -7.10015e-06)
(4.37662e-06 -1.54286e-06 -0 -5.9282e-06 -0 1.55159e-06)
(-2.12416e-05 3.08355e-05 -0 2.8323e-05 -0 -7.08142e-06)
(4.40661e-06 -7.18825e-06 -0 -5.88885e-06 -0 1.48224e-06)
(-2.09103e-05 3.96116e-05 -0 2.79324e-05 -0 -7.02212e-06)
(4.53363e-06 9.6366e-07 -0 -5.97411e-06 -0 1.44048e-06)
(-2.0601e-05 6.9753e-05 -0 2.75714e-05 -0 -6.97047e-06)
(4.88919e-06 0.000166115 -0 -6.28835e-06 -0 1.39916e-06)
(-2.08405e-05 -8.86138e-05 -0 2.72346e-05 -0 -6.3941e-06)
(3.94781e-06 0.000355646 -0 -5.21327e-06 -0 1.26546e-06)
(-2.03191e-05 -0.000839412 -0 2.49015e-05 -0 -4.58247e-06)
(-8.90654e-07 -0.00074973 -0 -1.53811e-07 -0 1.04447e-06)
(-2.29759e-06 0.00050735 -0 6.1839e-06 -0 -3.88631e-06)
(3.84108e-06 -0.00235166 -0 -4.22596e-06 -0 3.84877e-07)
(5.06371e-05 0.0119059 -0 -4.28141e-05 -0 -7.82297e-06)
(5.26549e-05 0.00558495 -0 -5.1803e-05 -0 -8.51959e-07)
(6.95013e-05 0.0315793 -0 -5.85392e-05 -0 -1.09621e-05)
(0.000145596 0.0382582 -0 -0.000144477 -0 -1.11866e-06)
(-8.49435e-05 0.0307004 -0 9.04998e-05 -0 -5.55636e-06)
(0.000212148 0.100159 -0 -0.00021283 -0 6.81259e-07)
(-0.000416107 -0.0253087 -0 0.000413206 -0 2.90154e-06)
(0.000173649 0.178692 -0 -0.000176447 -0 2.79761e-06)
(-0.000708434 -0.136755 -0 0.000703857 -0 4.57624e-06)
(1.33759e-05 0.25248 -0 -1.63667e-05 -0 2.99083e-06)
(-0.000699483 -0.266942 -0 0.0006991 -0 3.83119e-07)
(-0.000226445 0.302585 -0 0.000225215 -0 1.22963e-06)
(-0.000246472 -0.37336 -0 0.000250042 -0 -3.57027e-06)
(-0.000487222 0.319619 -0 0.000488 -0 -7.78371e-07)
(0.000652074 -0.43202 -0 -0.000647485 -0 -4.58911e-06)
(-0.00072495 0.304907 -0 0.000726701 -0 -1.75136e-06)
(0.00191421 -0.43984 -0 -0.00191058 -0 -3.63157e-06)
(-0.000917621 0.266828 -0 0.000919281 -0 -1.65956e-06)
(0.0034315 -0.406045 -0 -0.00342904 -0 -2.45622e-06)
(-0.00106008 0.215792 -0 0.00106118 -0 -1.09485e-06)
(0.00510103 -0.343991 -0 -0.0050991 -0 -1.93615e-06)
(-0.00115687 0.16071 -0 0.00115753 -0 -6.66599e-07)
(0.00683927 -0.266604 -0 -0.00683896 -0 -3.16123e-07)
(-0.00121672 0.107613 -0 0.00121746 -0 -7.40602e-07)
(0.00858511 -0.184505 -0 -0.0085927 -0 7.59773e-06)
(-0.00124768 0.0598788 -0 0.00124756 -0 1.25143e-07)
(0.0102823 -0.104618 -0 -0.0102971 -0 1.48049e-05)
(-0.00125844 0.018817 -0 0.00125694 -0 1.50935e-06)
(0.01185 -0.0329021 -0 -0.0118241 -0 -2.59404e-05)
(0.015905 -3.38471 -0 -0.0158968 -0 -8.1919e-06)
(0.00064973 -1.44993 -0 -0.000674024 -0 2.42935e-05)
(0.000140419 -1.09556 -0 -0.000145187 -0 4.76758e-06)
(7.48019e-05 -0.932504 -0 -7.80016e-05 -0 3.19975e-06)
(4.82288e-05 -0.834192 -0 -4.96142e-05 -0 1.3854e-06)
(3.69895e-05 -0.768053 -0 -3.93452e-05 -0 2.35571e-06)
(2.85322e-05 -0.717524 -0 -2.94233e-05 -0 8.9113e-07)
(2.4827e-05 -0.678462 -0 -2.71562e-05 -0 2.32916e-06)
(1.9352e-05 -0.64719 -0 -2.02582e-05 -0 9.06198e-07)
(1.76931e-05 -0.622447 -0 -2.02161e-05 -0 2.52295e-06)
(1.38649e-05 -0.602197 -0 -1.5129e-05 -0 1.26411e-06)
(1.32831e-05 -0.585565 -0 -1.6165e-05 -0 2.88194e-06)
(1.04457e-05 -0.571803 -0 -1.22872e-05 -0 1.84151e-06)
(1.02681e-05 -0.560098 -0 -1.35633e-05 -0 3.29518e-06)
(8.19174e-06 -0.550421 -0 -1.07172e-05 -0 2.52544e-06)
(8.14738e-06 -0.541763 -0 -1.18239e-05 -0 3.67655e-06)
(6.75914e-06 -0.534586 -0 -9.95402e-06 -0 3.19488e-06)
(6.71628e-06 -0.527727 -0 -1.06565e-05 -0 3.94018e-06)
(5.9562e-06 -0.521952 -0 -9.66915e-06 -0 3.71295e-06)
(5.84519e-06 -0.516059 -0 -9.8537e-06 -0 4.00852e-06)
(5.58155e-06 -0.510967 -0 -9.54677e-06 -0 3.96522e-06)
(5.3452e-06 -0.505561 -0 -9.18309e-06 -0 3.83789e-06)
(5.39212e-06 -0.500773 -0 -9.27881e-06 -0 3.88669e-06)
(5.02216e-06 -0.495638 -0 -8.43378e-06 -0 3.41162e-06)
(5.22429e-06 -0.49098 -0 -8.67471e-06 -0 3.45042e-06)
(4.77721e-06 -0.486018 -0 -7.50458e-06 -0 2.72737e-06)
(5.02826e-06 -0.481423 -0 -7.72384e-06 -0 2.69558e-06)
(4.55147e-06 -0.476649 -0 -6.42307e-06 -0 1.8716e-06)
(4.75143e-06 -0.472225 -0 -6.56083e-06 -0 1.8094e-06)
(4.26343e-06 -0.467831 -0 -5.33276e-06 -0 1.06932e-06)
(4.37209e-06 -0.463828 -0 -5.40574e-06 -0 1.03365e-06)
(3.99824e-06 -0.460007 -0 -4.46148e-06 -0 4.63233e-07)
(4.14673e-06 -0.456485 -0 -4.49751e-06 -0 3.5078e-07)
(4.16264e-06 -0.45306 -0 -3.99077e-06 -0 -1.71874e-07)
(4.59792e-06 -0.449627 -0 -4.00501e-06 -0 -5.92912e-07)
(5.26371e-06 -0.445998 -0 -4.0015e-06 -0 -1.26221e-06)
(6.19254e-06 -0.44195 -0 -4.09103e-06 -0 -2.10151e-06)
(7.74678e-06 -0.437371 -0 -4.78099e-06 -0 -2.96579e-06)
(9.40514e-06 -0.431852 -0 -5.27891e-06 -0 -4.12623e-06)
(1.23667e-05 -0.42549 -0 -7.31535e-06 -0 -5.05136e-06)
(1.56539e-05 -0.417338 -0 -9.21403e-06 -0 -6.4399e-06)
(2.03895e-05 -0.407639 -0 -1.32524e-05 -0 -7.13712e-06)
(2.83767e-05 -0.395719 -0 -1.95187e-05 -0 -8.85793e-06)
(3.43213e-05 -0.378932 -0 -2.53137e-05 -0 -9.00767e-06)
(4.7762e-05 -0.362578 -0 -3.72471e-05 -0 -1.05149e-05)
(6.93751e-05 -0.33632 -0 -5.74641e-05 -0 -1.1911e-05)
(5.35316e-05 -0.302805 -0 -4.58483e-05 -0 -7.68329e-06)
(0.000151531 -0.292065 -0 -0.000132367 -0 -1.9164e-05)
(5.82966e-05 -0.194563 -0 -5.38176e-05 -0 -4.47903e-06)
(-0.000228348 -0.232007 -0 0.000244566 -0 -1.62179e-05)
(0.00106529 -0.32572 -0 -0.000924191 -0 -0.000141099)
(0.00120958 0.411037 -0 -0.0014092 -0 0.000199623)
(-0.00253091 0.379076 -0 0.00209998 -0 0.000430927)
(-0.00115683 -0.982014 -0 0.00191499 -0 -0.000758165)
(0.00432879 -0.353177 -0 -0.00354007 -0 -0.000788724)
(0.00460545 1.21529 -0 -0.00583945 -0 0.001234)
(0.00111532 1.63963 -0 -0.00204103 -0 0.000925705)
(-0.00171021 1.61268 -0 0.00175762 -0 -4.74069e-05)
(-0.00974038 1.17222 -0 0.0091606 -0 0.000579774)
(-0.0162755 -2.35085 -0 0.0161425 -0 0.000132967)
(-0.00265986 -5.74907 -0 0.00535075 -0 -0.00269089)
(0.0234707 -3.62321 -0 -0.0254515 -0 0.00198077)
(0.0191975 1.63553 -0 -0.0216066 -0 0.00240913)
(0.00614351 2.98613 -0 -0.010116 -0 0.00397252)
(-0.00385016 3.1541 -0 0.00378848 -0 6.1673e-05)
(-0.00921985 2.51138 -0 0.00905168 -0 0.000168169)
(-0.0116722 1.35658 -0 0.0113738 -0 0.000298391)
(-0.0121848 0.270625 -0 0.0116568 -0 0.000528044)
(-0.0189342 -1.03828 -0 0.0197471 -0 -0.000812905)
(-0.0233914 -3.12164 -0 0.0254311 -0 -0.00203974)
(-0.0163114 -4.93567 -0 0.0174467 -0 -0.00113533)
(0.0100077 -5.97736 -0 -0.0112215 -0 0.00121381)
(0.0386721 -3.89121 -0 -0.0462895 -0 0.00761743)
(-0.00463352 -1.27287 -0 0.0079913 -0 -0.00335778)
(-0.0494816 -3.79167 -0 0.0601521 -0 -0.0106705)
(-0.00445811 -6.28017 -0 -0.00153468 -0 0.00599279)
(0.0548012 -5.10239 -0 -0.0582465 -0 0.0034453)
(0.0833457 -0.363911 -0 -0.0894272 -0 0.00608145)
(0.0639108 3.9636 -0 -0.073838 -0 0.00992713)
(0.0286391 5.77772 -0 -0.0312709 -0 0.00263185)
(0.008577 6.31635 -0 -0.00933196 -0 0.000754955)
(-0.010802 6.03402 -0 0.0103282 -0 0.000473831)
(-0.0342827 4.80227 -0 0.0383203 -0 -0.00403761)
(-0.0790801 2.88 -0 0.0789128 -0 0.000167253)
(-0.12067 -1.26876 -0 0.127506 -0 -0.00683613)
(-0.0225623 -4.44009 -0 0.0105652 -0 0.0119971)
(-0.040417 -3.81911 -0 0.0395245 -0 0.000892515)
(-0.372136 -8.90109 9.02844e-21 0.785557 -0 -0.413421)
(0.0151821 -2.95672 -0 -0.0151883 -0 6.25363e-06)
(0.00175932 -1.45176 -0 -0.00174574 -0 -1.35784e-05)
(0.000430601 -1.09618 -0 -0.000428338 -0 -2.26291e-06)
(0.00022679 -0.933873 -0 -0.000226532 -0 -2.58802e-07)
(0.000148046 -0.83569 -0 -0.000147734 -0 -3.11753e-07)
(0.000110213 -0.769537 -0 -0.000111194 -0 9.80597e-07)
(8.73371e-05 -0.719209 -0 -8.76532e-05 -0 3.1608e-07)
(7.25703e-05 -0.680181 -0 -7.41799e-05 -0 1.60961e-06)
(5.9667e-05 -0.648906 -0 -6.05097e-05 -0 8.4271e-07)
(5.1514e-05 -0.623849 -0 -5.37191e-05 -0 2.20511e-06)
(4.37334e-05 -0.603251 -0 -4.51466e-05 -0 1.41323e-06)
(3.93718e-05 -0.585959 -0 -4.209e-05 -0 2.71814e-06)
(3.4313e-05 -0.571499 -0 -3.62096e-05 -0 1.8966e-06)
(3.19072e-05 -0.558805 -0 -3.49432e-05 -0 3.03602e-06)
(2.85964e-05 -0.548092 -0 -3.08201e-05 -0 2.22371e-06)
(2.74616e-05 -0.538159 -0 -3.0571e-05 -0 3.10942e-06)
(2.54527e-05 -0.529668 -0 -2.7805e-05 -0 2.35236e-06)
(2.51714e-05 -0.52134 -0 -2.81218e-05 -0 2.95034e-06)
(2.41339e-05 -0.514084 -0 -2.64202e-05 -0 2.28633e-06)
(2.4367e-05 -0.506652 -0 -2.69959e-05 -0 2.62888e-06)
(2.39366e-05 -0.50005 -0 -2.60194e-05 -0 2.08279e-06)
(2.43697e-05 -0.49316 -0 -2.66091e-05 -0 2.23931e-06)
(2.42301e-05 -0.486948 -0 -2.60387e-05 -0 1.80861e-06)
(2.46836e-05 -0.480471 -0 -2.65208e-05 -0 1.83724e-06)
(2.46658e-05 -0.474554 -0 -2.61629e-05 -0 1.49717e-06)
(2.50466e-05 -0.468455 -0 -2.65093e-05 -0 1.46267e-06)
(2.49781e-05 -0.462829 -0 -2.62278e-05 -0 1.2497e-06)
(2.50749e-05 -0.457169 -0 -2.6369e-05 -0 1.29407e-06)
(2.46773e-05 -0.451979 -0 -2.60116e-05 -0 1.33426e-06)
(2.42833e-05 -0.446961 -0 -2.58641e-05 -0 1.58086e-06)
(2.35322e-05 -0.442438 -0 -2.54018e-05 -0 1.86961e-06)
(2.29258e-05 -0.438216 -0 -2.51026e-05 -0 2.17684e-06)
(2.2384e-05 -0.434379 -0 -2.47763e-05 -0 2.39231e-06)
(2.23594e-05 -0.430757 -0 -2.47701e-05 -0 2.41069e-06)
(2.28696e-05 -0.427234 -0 -2.50812e-05 -0 2.21157e-06)
(2.43154e-05 -0.423671 -0 -2.61179e-05 -0 1.80255e-06)
(2.66844e-05 -0.41984 -0 -2.79338e-05 -0 1.24945e-06)
(3.07751e-05 -0.415667 -0 -3.13991e-05 -0 6.23978e-07)
(3.62408e-05 -0.41073 -0 -3.62325e-05 -0 -8.33468e-09)
(4.52038e-05 -0.405118 -0 -4.46985e-05 -0 -5.05228e-07)
(5.70693e-05 -0.397924 -0 -5.56812e-05 -0 -1.38808e-06)
(7.2651e-05 -0.389273 -0 -7.15001e-05 -0 -1.15088e-06)
(9.97017e-05 -0.378651 -0 -9.66722e-05 -0 -3.02947e-06)
(0.000121545 -0.363387 -0 -0.000119045 -0 -2.49963e-06)
(0.00016444 -0.348268 -0 -0.00016283 -0 -1.60977e-06)
(0.000231902 -0.324703 -0 -0.000218485 -0 -1.34168e-05)
(0.0001975 -0.292416 -0 -0.0002081 -0 1.06006e-05)
(0.000448766 -0.283248 -0 -0.000425279 -0 -2.34869e-05)
(0.000222226 -0.196526 -0 -0.000151336 -0 -7.08895e-05)
(-0.000399873 -0.214643 -0 0.000176559 -0 0.000223314)
(0.00275083 -0.295971 -0 -0.00241308 -0 -0.00033775)
(0.00338789 0.347087 -0 -0.00304774 -0 -0.000340156)
(-0.00628597 0.351982 -0 0.00560772 -0 0.000678249)
(-0.00463806 -0.839394 -0 0.00439005 -0 0.00024801)
(0.0111512 -0.565723 -0 -0.010746 -0 -0.000405214)
(0.0128008 0.970758 -0 -0.0132841 -0 0.000483333)
(0.00271664 1.26145 -0 -0.00230525 -0 -0.000411393)
(-0.00271876 1.26083 -0 0.00319357 -0 -0.000474805)
(-0.0253703 0.857087 -0 0.0258461 -0 -0.000475811)
(-0.0452566 -1.96781 -0 0.0436073 -0 0.00164934)
(-0.0119512 -4.81618 -0 0.0121518 -0 -0.000200652)
(0.0525546 -3.40504 -0 -0.0537599 -0 0.00120527)
(0.0515038 1.07825 -0 -0.0498929 -0 -0.00161093)
(0.019699 2.1997 -0 -0.0213641 -0 0.0016651)
(-0.00660997 2.25854 -0 0.00918511 -0 -0.00257514)
(-0.0230735 1.75956 -0 0.0237945 -0 -0.000720972)
(-0.0304306 0.884953 -0 0.0315053 -0 -0.00107468)
(-0.0339515 0.013279 -0 0.0338669 -0 8.46159e-05)
(-0.0514455 -1.0108 -0 0.0509679 -0 0.000477666)
(-0.0630743 -2.47213 -0 0.0634349 -0 -0.000360568)
(-0.0489519 -3.75239 -0 0.0483932 -0 0.000558733)
(0.0154385 -4.78575 -0 -0.0132646 -0 -0.00217386)
(0.0910171 -3.89431 -0 -0.0948011 -0 0.00378402)
(0.00141179 -2.18333 -0 -0.00209369 -0 0.000681893)
(-0.106074 -3.2151 -0 0.112687 -0 -0.00661307)
(-0.0136771 -4.53158 -0 0.00252248 -0 0.0111546)
(0.1375 -3.6176 -0 -0.142954 -0 0.00545387)
(0.218012 0.630645 -0 -0.22164 -0 0.0036278)
(0.157627 4.19414 -0 -0.163283 -0 0.00565553)
(0.0530387 4.7594 -0 -0.0503137 -0 -0.002725)
(-0.000997747 4.57503 -0 0.00184719 -0 -0.000849443)
(-0.0490444 3.89844 -0 0.0478259 -0 0.0012185)
(-0.103297 2.80822 -0 0.104633 -0 -0.00133544)
(-0.182654 1.28983 -0 0.179798 -0 0.0028559)
(-0.188308 -1.02018 -0 0.161899 -0 0.026409)
(-0.155104 -1.071 -0 0.226904 -0 -0.0718007)
(-0.00885097 -2.5468 -0 -0.150512 -0 0.159362)
(0.175356 -5.04995 -8.58112e-21 -0.225609 -0 0.0502532)
(0.0142196 -2.5157 -0 -0.0142177 -0 -1.88879e-06)
(0.00286287 -1.44343 -0 -0.0028505 -0 -1.23723e-05)
(0.000793337 -1.0897 -0 -0.000790593 -0 -2.74361e-06)
(0.000417176 -0.92734 -0 -0.000417159 -0 -1.65785e-08)
(0.000272701 -0.82863 -0 -0.000271995 -0 -7.06334e-07)
(0.000203744 -0.761777 -0 -0.000205971 -0 2.22764e-06)
(0.000160841 -0.711038 -0 -0.000161149 -0 3.07759e-07)
(0.000134807 -0.671587 -0 -0.000138565 -0 3.75812e-06)
(0.000110001 -0.639973 -0 -0.000111302 -0 1.30057e-06)
(9.63884e-05 -0.614618 -0 -0.000101708 -0 5.3195e-06)
(8.04783e-05 -0.593892 -0 -8.30359e-05 -0 2.5576e-06)
(7.40664e-05 -0.576626 -0 -8.10095e-05 -0 6.94311e-06)
(6.28392e-05 -0.562407 -0 -6.68112e-05 -0 3.97199e-06)
(6.02118e-05 -0.550138 -0 -6.86265e-05 -0 8.41475e-06)
(5.20162e-05 -0.540101 -0 -5.74349e-05 -0 5.41872e-06)
(5.17065e-05 -0.531031 -0 -6.12133e-05 -0 9.50677e-06)
(4.59062e-05 -0.52367 -0 -5.25981e-05 -0 6.69191e-06)
(4.69034e-05 -0.516622 -0 -5.69272e-05 -0 1.00238e-05)
(4.30802e-05 -0.510892 -0 -5.06255e-05 -0 7.54523e-06)
(4.45525e-05 -0.505069 -0 -5.4403e-05 -0 9.85045e-06)
(4.21663e-05 -0.500264 -0 -4.99472e-05 -0 7.78098e-06)
(4.34075e-05 -0.495175 -0 -5.2382e-05 -0 8.97449e-06)
(4.18896e-05 -0.490882 -0 -4.9169e-05 -0 7.27947e-06)
(4.25444e-05 -0.486267 -0 -4.99709e-05 -0 7.42649e-06)
(4.15149e-05 -0.482259 -0 -4.75032e-05 -0 5.98831e-06)
(4.1523e-05 -0.477973 -0 -4.68275e-05 -0 5.30455e-06)
(4.06148e-05 -0.47414 -0 -4.47081e-05 -0 4.09332e-06)
(3.98272e-05 -0.470138 -0 -4.28438e-05 -0 3.0166e-06)
(3.85243e-05 -0.466516 -0 -4.07203e-05 -0 2.19605e-06)
(3.68343e-05 -0.462895 -0 -3.80536e-05 -0 1.21931e-06)
(3.5054e-05 -0.459634 -0 -3.58678e-05 -0 8.1382e-07)
(3.31549e-05 -0.456498 -0 -3.31624e-05 -0 7.54517e-09)
(3.18243e-05 -0.453611 -0 -3.13273e-05 -0 -4.96979e-07)
(3.11858e-05 -0.450793 -0 -2.95696e-05 -0 -1.61612e-06)
(3.16827e-05 -0.447951 -0 -2.87334e-05 -0 -2.94928e-06)
(3.37331e-05 -0.444946 -0 -2.8875e-05 -0 -4.85811e-06)
(3.72274e-05 -0.441549 -0 -2.99597e-05 -0 -7.26771e-06)
(4.3718e-05 -0.437703 -0 -3.37567e-05 -0 -9.96138e-06)
(5.19995e-05 -0.432985 -0 -3.87228e-05 -0 -1.32767e-05)
(6.65033e-05 -0.427536 -0 -5.02425e-05 -0 -1.62608e-05)
(8.50889e-05 -0.420499 -0 -6.42278e-05 -0 -2.08611e-05)
(0.000110491 -0.412035 -0 -8.76593e-05 -0 -2.28318e-05)
(0.000154691 -0.401791 -0 -0.000124651 -0 -3.00395e-05)
(0.00019109 -0.38714 -0 -0.000160052 -0 -3.10382e-05)
(0.000260946 -0.372777 -0 -0.000226512 -0 -3.44343e-05)
(0.000381105 -0.350898 -0 -0.000326616 -0 -5.44895e-05)
(0.000314889 -0.32026 -0 -0.000299449 -0 -1.54396e-05)
(0.000753971 -0.312444 -0 -0.000672991 -0 -8.09799e-05)
(0.000426199 -0.232061 -0 -0.000320827 -0 -0.000105372)
(-0.000651932 -0.242843 -0 0.000367891 -0 0.000284041)
(0.00496559 -0.295735 -0 -0.00431368 -0 -0.000651912)
(0.00562713 0.301344 -0 -0.00529833 -0 -0.000328804)
(-0.0107836 0.209871 -0 0.008567 -0 0.0022166)
(-0.00887422 -0.936327 -0 0.00997345 -0 -0.00109923)
(0.0194846 -0.389403 -0 -0.0174279 -0 -0.0020567)
(0.0222562 0.951649 -0 -0.0248677 -0 0.00261156)
(0.00397853 0.828681 -0 -0.00541169 -0 0.00143316)
(-0.0079726 0.759203 -0 0.0099411 -0 -0.0019685)
(-0.0419432 0.0993352 -0 0.039808 -0 0.00213526)
(-0.0734303 -2.14965 -0 0.0706281 -0 0.00280221)
(-0.0176901 -4.06089 -0 0.0214309 -0 -0.00374074)
(0.0898283 -2.62971 -0 -0.0896109 -0 -0.000217357)
(0.0860215 1.21293 -0 -0.0876261 -0 0.00160459)
(0.0238651 1.48843 -0 -0.0298175 -0 0.00595243)
(-0.0157151 1.14487 -0 0.0178159 -0 -0.00210081)
(-0.0374865 0.694416 -0 0.0371522 -0 0.000334353)
(-0.049642 -0.0360591 -0 0.0496014 -0 4.06294e-05)
(-0.0538615 -0.769844 -0 0.0521755 -0 0.00168603)
(-0.075187 -1.42789 -0 0.073978 -0 0.00120894)
(-0.0888424 -2.14327 -0 0.0896616 -0 -0.000819216)
(-0.0752714 -2.76016 -0 0.0757832 -0 -0.000511837)
(0.0011109 -3.50607 -0 0.00186121 -0 -0.00297212)
(0.110174 -3.86067 -0 -0.117166 -0 0.00699173)
(0.0206837 -3.30422 -0 -0.0225126 -0 0.00182884)
(-0.126228 -2.99175 -0 0.143082 -0 -0.0168534)
(-0.0144374 -3.29782 -0 0.00856101 -0 0.00587637)
(0.238287 -2.25069 -0 -0.236981 -0 -0.00130594)
(0.364077 2.64564 -0 -0.359129 -0 -0.00494855)
(0.208472 4.00186 -0 -0.208258 -0 -0.000214375)
(0.0312163 3.25105 -0 -0.0261991 -0 -0.00501715)
(-0.0337127 2.67194 -0 0.0351772 -0 -0.0014645)
(-0.0929509 1.97411 -0 0.0934608 -0 -0.000509985)
(-0.160849 1.28663 -0 0.168032 -0 -0.00718231)
(-0.272781 0.51513 -0 0.274761 -0 -0.00197977)
(-0.204855 -0.601497 -0 0.182614 -0 0.0222416)
(-0.163196 1.08565 -0 0.205597 -0 -0.0424004)
(-0.13103 -1.35003 -0 0.0219231 -0 0.109107)
(0.0310078 -1.62646 -0 0.133884 -0 -0.164892)
(0.012983 -2.07571 -0 -0.0129751 -0 -7.90693e-06)
(0.00385145 -1.42044 -0 -0.00384714 -0 -4.3129e-06)
(0.0012266 -1.08473 -0 -0.00122515 -0 -1.44651e-06)
(0.000647195 -0.924634 -0 -0.00064867 -0 1.47469e-06)
(0.000424399 -0.826769 -0 -0.000424578 -0 1.78512e-07)
(0.000316494 -0.760165 -0 -0.0003202 -0 3.70668e-06)
(0.000250283 -0.709867 -0 -0.000251489 -0 1.20607e-06)
(0.000208921 -0.670574 -0 -0.000214315 -0 5.39367e-06)
(0.000171571 -0.639164 -0 -0.000173999 -0 2.42863e-06)
(0.000149229 -0.613639 -0 -0.000156497 -0 7.26785e-06)
(0.000125711 -0.592857 -0 -0.000129782 -0 4.07076e-06)
(0.000114145 -0.575198 -0 -0.000123389 -0 9.24367e-06)
(9.79339e-05 -0.560719 -0 -0.000103802 -0 5.86813e-06)
(9.19904e-05 -0.547875 -0 -0.000102967 -0 1.09769e-05)
(8.04163e-05 -0.537398 -0 -8.80276e-05 -0 7.61132e-06)
(7.79745e-05 -0.527624 -0 -9.01578e-05 -0 1.21832e-05)
(6.99458e-05 -0.519689 -0 -7.89865e-05 -0 9.04068e-06)
(6.96496e-05 -0.511877 -0 -8.23047e-05 -0 1.26551e-05)
(6.44568e-05 -0.505514 -0 -7.43481e-05 -0 9.89131e-06)
(6.5239e-05 -0.498947 -0 -7.75486e-05 -0 1.23096e-05)
(6.2059e-05 -0.493529 -0 -7.20552e-05 -0 9.99615e-06)
(6.29958e-05 -0.487788 -0 -7.41913e-05 -0 1.11955e-05)
(6.10087e-05 -0.482959 -0 -7.02987e-05 -0 9.29003e-06)
(6.15967e-05 -0.47782 -0 -7.0987e-05 -0 9.39032e-06)
(6.02812e-05 -0.473389 -0 -6.8046e-05 -0 7.76475e-06)
(6.03608e-05 -0.46873 -0 -6.7393e-05 -0 7.03215e-06)
(5.92262e-05 -0.464612 -0 -6.49153e-05 -0 5.6891e-06)
(5.84627e-05 -0.4604 -0 -6.31064e-05 -0 4.64369e-06)
(5.67814e-05 -0.456641 -0 -6.06049e-05 -0 3.82345e-06)
(5.4867e-05 -0.45296 -0 -5.78767e-05 -0 3.00974e-06)
(5.24994e-05 -0.449686 -0 -5.52209e-05 -0 2.7215e-06)
(5.02894e-05 -0.446601 -0 -5.23929e-05 -0 2.1035e-06)
(4.86078e-05 -0.443795 -0 -5.02627e-05 -0 1.65487e-06)
(4.824e-05 -0.441126 -0 -4.87977e-05 -0 5.57739e-07)
(4.94502e-05 -0.438479 -0 -4.85343e-05 -0 -9.15897e-07)
(5.326e-05 -0.435764 -0 -5.02659e-05 -0 -2.99413e-06)
(5.93927e-05 -0.432732 -0 -5.377e-05 -0 -5.62263e-06)
(7.02387e-05 -0.429377 -0 -6.17435e-05 -0 -8.49521e-06)
(8.4178e-05 -0.425253 -0 -7.22892e-05 -0 -1.18887e-05)
(0.000107195 -0.420524 -0 -9.23719e-05 -0 -1.48234e-05)
(0.000137341 -0.414407 -0 -0.000117923 -0 -1.94175e-05)
(0.000176195 -0.406922 -0 -0.000155463 -0 -2.07316e-05)
(0.000244802 -0.398034 -0 -0.000216498 -0 -2.83033e-05)
(0.000301366 -0.384983 -0 -0.000273165 -0 -2.82011e-05)
(0.000402848 -0.371988 -0 -0.000372488 -0 -3.03596e-05)
(0.000591207 -0.353496 -0 -0.000534756 -0 -5.64506e-05)
(0.000486466 -0.32411 -0 -0.000484779 -0 -1.68649e-06)
(0.00111433 -0.318615 -0 -0.0010228 -0 -9.1532e-05)
(0.000744605 -0.251628 -0 -0.000608792 -0 -0.000135813)
(-0.000727654 -0.235943 -0 0.000270031 -0 0.000457623)
(0.00723048 -0.291339 -0 -0.00628038 -0 -0.000950107)
(0.00800137 0.195909 -0 -0.00757234 -0 -0.000429031)
(-0.0167364 0.164756 -0 0.014087 -0 0.00264944)
(-0.0113329 -0.857872 -0 0.0119702 -0 -0.000637345)
(0.0289132 -0.354556 -0 -0.0260519 -0 -0.00286127)
(0.0280824 0.702245 -0 -0.0308915 -0 0.00280913)
(0.00177624 0.346767 -0 -0.00272124 -0 0.000945001)
(-0.0124045 0.375492 -0 0.0136485 -0 -0.001244)
(-0.0591526 -0.501307 -0 0.0574596 -0 0.00169305)
(-0.0982488 -1.75843 -0 0.0970955 -0 0.00115328)
(-0.0183311 -2.90728 -0 0.0192502 -0 -0.000919126)
(0.122945 -1.79337 -0 -0.121775 -0 -0.00116976)
(0.112021 0.852394 -0 -0.112674 -0 0.00065273)
(0.0187359 0.668024 -0 -0.0227942 -0 0.00405831)
(-0.024505 0.430872 -0 0.0263415 -0 -0.0018365)
(-0.0515688 0.112985 -0 0.0516634 -0 -9.45375e-05)
(-0.0678501 -0.4078 -0 0.0686506 -0 -0.000800512)
(-0.0708152 -0.883677 -0 0.0702281 -0 0.000587172)
(-0.0901066 -1.21493 -0 0.0898769 -0 0.000229614)
(-0.103417 -1.46918 -0 0.105163 -0 -0.00174632)
(-0.0924259 -1.73898 -0 0.0928383 -0 -0.000412451)
(-0.0224237 -2.12247 -0 0.0251117 -0 -0.00268802)
(0.0983858 -2.86884 -0 -0.104304 -0 0.00591792)
(0.0361279 -2.9573 -0 -0.0401938 -0 0.00406593)
(-0.105836 -2.56158 -0 0.114093 -0 -0.00825685)
(0.0216242 -2.36932 -0 -0.034061 -0 0.0124368)
(0.378788 0.312467 -0 -0.362402 -0 -0.016386)
(0.466329 3.97012 -0 -0.444252 -0 -0.0220769)
(0.16499 2.46161 -0 -0.161105 -0 -0.00388556)
(-0.014748 1.53379 -0 0.0164917 -0 -0.00174374)
(-0.0676121 1.06581 -0 0.0678202 -0 -0.000208099)
(-0.124882 0.656785 -0 0.124087 -0 0.000794998)
(-0.190426 0.341424 -0 0.196391 -0 -0.00596417)
(-0.296507 0.132267 -0 0.297983 -0 -0.00147606)
(-0.167862 -0.0478845 -0 0.169295 -0 -0.00143368)
(-0.189011 1.1646 -0 0.239434 -0 -0.0504228)
(-0.242174 -0.496217 -0 0.163816 -0 0.0783574)
(0.232886 -0.453959 -0 -0.247301 -0 0.0144149)
(0.0114245 -1.64289 -0 -0.0114129 -0 -1.15819e-05)
(0.00461926 -1.36332 -0 -0.00461689 -0 -2.36594e-06)
(0.00171621 -1.07169 -0 -0.00171394 -0 -2.27677e-06)
(0.000919375 -0.917515 -0 -0.00092135 -0 1.97505e-06)
(0.000605077 -0.821759 -0 -0.00060533 -0 2.53327e-07)
(0.000451386 -0.755965 -0 -0.000456529 -0 5.14334e-06)
(0.000356954 -0.706459 -0 -0.000358668 -0 1.7138e-06)
(0.000298039 -0.667519 -0 -0.000305511 -0 7.47159e-06)
(0.000245466 -0.636477 -0 -0.000248868 -0 3.40145e-06)
(0.000213706 -0.610873 -0 -0.00022374 -0 1.00341e-05)
(0.000180665 -0.590144 -0 -0.00018633 -0 5.66472e-06)
(0.000164076 -0.572172 -0 -0.000176794 -0 1.27178e-05)
(0.000141407 -0.557552 -0 -0.000149533 -0 8.12597e-06)
(0.000132741 -0.544242 -0 -0.000147785 -0 1.50435e-05)
(0.000116577 -0.533481 -0 -0.00012706 -0 1.04828e-05)
(0.00011278 -0.523165 -0 -0.0001294 -0 1.66203e-05)
(0.000101499 -0.514865 -0 -0.000113871 -0 1.23721e-05)
(0.000100627 -0.506512 -0 -0.000117798 -0 1.71716e-05)
(9.31693e-05 -0.499776 -0 -0.000106607 -0 1.34379e-05)
(9.37359e-05 -0.492746 -0 -0.000110334 -0 1.65985e-05)
(8.89538e-05 -0.487016 -0 -0.000102422 -0 1.34678e-05)
(8.97272e-05 -0.480938 -0 -0.000104709 -0 1.49818e-05)
(8.65224e-05 -0.475897 -0 -9.89131e-05 -0 1.23907e-05)
(8.68449e-05 -0.470567 -0 -9.92843e-05 -0 1.24394e-05)
(8.45253e-05 -0.466035 -0 -9.4745e-05 -0 1.02197e-05)
(8.4174e-05 -0.461326 -0 -9.33568e-05 -0 9.18286e-06)
(8.20923e-05 -0.457224 -0 -8.94486e-05 -0 7.3563e-06)
(8.063e-05 -0.45309 -0 -8.65768e-05 -0 5.94674e-06)
(7.78586e-05 -0.44945 -0 -8.26986e-05 -0 4.84007e-06)
(7.49292e-05 -0.445938 -0 -7.87e-05 -0 3.77077e-06)
(7.13252e-05 -0.442844 -0 -7.46938e-05 -0 3.36863e-06)
(6.80863e-05 -0.439971 -0 -7.06445e-05 -0 2.55822e-06)
(6.54656e-05 -0.437373 -0 -6.73883e-05 -0 1.92261e-06)
(6.47306e-05 -0.434945 -0 -6.52054e-05 -0 4.74853e-07)
(6.6031e-05 -0.432552 -0 -6.45273e-05 -0 -1.50366e-06)
(7.09706e-05 -0.430153 -0 -6.67541e-05 -0 -4.21654e-06)
(7.90096e-05 -0.427481 -0 -7.13462e-05 -0 -7.6634e-06)
(9.35827e-05 -0.42458 -0 -8.22026e-05 -0 -1.13801e-05)
(0.000112456 -0.420999 -0 -9.66804e-05 -0 -1.57753e-05)
(0.000143312 -0.416916 -0 -0.000123738 -0 -1.95736e-05)
(0.00018476 -0.411658 -0 -0.00015929 -0 -2.547e-05)
(0.000236311 -0.405102 -0 -0.000209091 -0 -2.72207e-05)
(0.000329254 -0.39753 -0 -0.000292291 -0 -3.69633e-05)
(0.000408451 -0.386159 -0 -0.000371734 -0 -3.67167e-05)
(0.000535406 -0.374557 -0 -0.000495234 -0 -4.01719e-05)
(0.000806748 -0.359577 -0 -0.000734091 -0 -7.26571e-05)
(0.000656923 -0.332066 -0 -0.000653659 -0 -3.26375e-06)
(0.00144137 -0.328152 -0 -0.00132027 -0 -0.000121098)
(0.00122006 -0.276552 -0 -0.00105388 -0 -0.000166181)
(-0.00073341 -0.233501 -0 9.98851e-05 -0 0.000633525)
(0.0090899 -0.300437 -0 -0.00769654 -0 -0.00139335)
(0.0106267 0.0590518 -0 -0.0101512 -0 -0.000475468)
(-0.0225769 0.0720469 -0 0.0193728 -0 0.00320408)
(-0.014456 -0.768072 -0 0.0150405 -0 -0.000584452)
(0.0374176 -0.371964 -0 -0.0331639 -0 -0.00425375)
(0.0320275 0.419915 -0 -0.0356549 -0 0.00362738)
(-0.00149133 -0.135403 -0 0.00100185 -0 0.000489489)
(-0.0192084 -0.0359006 -0 0.0197772 -0 -0.000568781)
(-0.074225 -1.09219 -0 0.0726554 -0 0.00156965)
(-0.112595 -1.65249 -0 0.11277 -0 -0.000174667)
(-0.0156618 -1.94876 -0 0.0182322 -0 -0.00257033)
(0.149077 -0.279302 -0 -0.145577 -0 -0.00349972)