/*--------------------------------*- C++ -*----------------------------------*\
| =========                 |                                                 |
| \\      /  F ield         | OpenFOAM: The Open Source CFD Toolbox           |
|  \\    /   O peration     | Version:  2306                                  |
|   \\  /    A nd           | Website:  www.openfoam.com                      |
|    \\/     M anipulation  |                                                 |
\*---------------------------------------------------------------------------*/
FoamFile
{
    version     2.0;
    format      ascii;
    arch        "LSB;label=32;scalar=64";
    class       volVectorField;
    location    "1600";
    object      U;
}
// * * * * * * * * * * * * * * * * * * * * * * * * * * * * * * * * * * * * * //

dimensions      [0 1 -1 0 0 0 0];

internalField   nonuniform List<vector> 
20540
(
(29.9921 -0.000533265 0)
(58.7173 0.00528755 0)
(30.0651 -0.00171043 0)
(58.5897 0.0157016 0)
(30.258 -0.00311595 0)
(58.2531 0.0263514 0)
(30.6368 -0.00475068 0)
(57.6124 0.0367332 0)
(31.2849 -0.00659276 0)
(56.5578 0.0462739 0)
(32.2944 -0.00856671 0)
(54.9891 0.0542595 0)
(33.7405 -0.0105146 0)
(52.8587 0.0599178 0)
(35.6357 -0.0121744 0)
(50.2373 0.0626068 0)
(37.8732 -0.0131975 0)
(47.3942 0.0621177 0)
(40.1918 -0.0132649 0)
(44.8354 0.0590501 0)
(42.2156 -0.0123303 0)
(43.1802 0.0549974 0)
(43.5945 -0.0108487 0)
(42.7828 0.0520207 0)
(44.2056 -0.00963116 0)
(43.3232 0.0512297 0)
(44.274 -0.00916337 0)
(43.9729 0.0517857 0)
(44.1992 -0.00915023 0)
(44.2163 0.0521527 0)
(44.1854 -0.00911423 0)
(44.1985 0.0519105 0)
(44.2004 -0.00897304 0)
(44.172 0.051357 0)
(44.2042 -0.0087929 0)
(44.1725 0.050624 0)
(44.2034 -0.00858394 0)
(44.1749 0.0497202 0)
(44.2029 -0.00833455 0)
(44.1759 0.0486273 0)
(44.2026 -0.00803083 0)
(44.1769 0.0473023 0)
(44.2024 -0.00766499 0)
(44.1783 0.0456972 0)
(44.2023 -0.0072326 0)
(44.1799 0.0437658 0)
(44.2022 -0.00672725 0)
(44.1817 0.0414551 0)
(44.2022 -0.00614324 0)
(44.1838 0.0387038 0)
(44.2022 -0.00547796 0)
(44.1861 0.0354397 0)
(44.2022 -0.00471407 0)
(44.1886 0.0315764 0)
(44.2023 -0.00381746 0)
(44.1912 0.0270346 0)
(44.2024 -0.00284729 0)
(44.1939 0.0217414 0)
(44.2024 -0.00194203 0)
(44.1964 0.0155025 0)
(44.2023 -0.00101676 0)
(44.1982 0.00895225 0)
(44.202 -6.34093e-05 0)
(44.1991 0.00261222 0)
(44.2017 0.000854725 0)
(44.1992 -0.00374629 0)
(44.2013 0.00179084 0)
(44.1984 -0.0101105 0)
(44.2008 0.0026672 0)
(44.1968 -0.0166324 0)
(44.2002 0.00356496 0)
(44.1946 -0.022756 0)
(44.1996 0.00448138 0)
(44.1922 -0.0279568 0)
(44.1992 0.00527603 0)
(44.1897 -0.0324014 0)
(44.1988 0.00596357 0)
(44.1873 -0.0361581 0)
(44.1986 0.00656262 0)
(44.1851 -0.0393257 0)
(44.1985 0.00708175 0)
(44.1831 -0.0419884 0)
(44.1984 0.00752838 0)
(44.1813 -0.0442188 0)
(44.1985 0.00790949 0)
(44.1798 -0.0460806 0)
(44.1986 0.00823205 0)
(44.1784 -0.0476284 0)
(44.1989 0.00850274 0)
(44.1773 -0.0489089 0)
(44.1992 0.00872555 0)
(44.1764 -0.0499642 0)
(44.1999 0.00890747 0)
(44.1748 -0.050828 0)
(44.1995 0.00906346 0)
(44.1717 -0.0515411 0)
(44.1886 0.00919877 0)
(44.1816 -0.0521074 0)
(44.1774 0.00927205 0)
(44.2225 -0.0524821 0)
(44.2227 0.00923968 0)
(44.1651 -0.0524107 0)
(44.2785 0.00935815 0)
(43.7408 -0.0517755 0)
(44.0477 0.010101 0)
(43.0513 -0.0515182 0)
(43.1886 0.0114525 0)
(42.7819 -0.0530519 0)
(41.6139 0.0127684 0)
(43.5849 -0.0564653 0)
(39.5261 0.0133779 0)
(45.5176 -0.0602742 0)
(37.2691 0.013024 0)
(48.1328 -0.062632 0)
(35.1649 0.0118447 0)
(50.8707 -0.0623393 0)
(33.4164 0.0101503 0)
(53.3226 -0.0590638 0)
(32.0942 0.00824282 0)
(55.2886 -0.0531053 0)
(31.1727 0.0063411 0)
(56.7294 -0.0450821 0)
(30.5792 0.00457564 0)
(57.6989 -0.0356941 0)
(30.2303 0.00300808 0)
(58.2902 -0.0255763 0)
(30.0512 0.00165544 0)
(58.603 -0.0152375 0)
(29.983 0.000517587 0)
(58.7224 -0.00513024 0)
(3.05227 0.00686265 0)
(1.22761 9.32574e-05 0)
(0.925895 1.37831e-05 0)
(0.786136 8.37087e-06 0)
(0.701862 3.24887e-06 0)
(0.645053 6.16825e-06 0)
(0.601472 1.70522e-06 0)
(0.567857 6.35397e-06 0)
(0.540951 1.20224e-06 0)
(0.520033 6.71403e-06 0)
(0.503069 1.37505e-06 0)
(0.489705 7.46392e-06 0)
(0.478952 2.32336e-06 0)
(0.470479 8.50201e-06 0)
(0.463937 3.89914e-06 0)
(0.458725 9.54244e-06 0)
(0.454992 5.76965e-06 0)
(0.451864 1.02248e-05 0)
(0.449831 7.42542e-06 0)
(0.447861 1.01693e-05 0)
(0.446659 8.27662e-06 0)
(0.445188 9.05871e-06 0)
(0.444244 7.80764e-06 0)
(0.442881 6.70931e-06 0)
(0.441851 5.73456e-06 0)
(0.440357 3.13126e-06 0)
(0.439028 2.14303e-06 0)
(0.437272 -1.35775e-06 0)
(0.435603 -2.41563e-06 0)
(0.433657 -6.04149e-06 0)
(0.431814 -7.0708e-06 0)
(0.429845 -1.01492e-05 0)
(0.427921 -1.1249e-05 0)
(0.425821 -1.37031e-05 0)
(0.423495 -1.54353e-05 0)
(0.420717 -1.79501e-05 0)
(0.417313 -2.11444e-05 0)
(0.413147 -2.45793e-05 0)
(0.407895 -2.9841e-05 0)
(0.401678 -3.45065e-05 0)
(0.393681 -4.1964e-05 0)
(0.384291 -4.75058e-05 0)
(0.372815 -5.68468e-05 0)
(0.357123 -6.2013e-05 0)
(0.342251 -7.33612e-05 0)
(0.317712 -7.13705e-05 0)
(0.289118 -8.40614e-05 0)
(0.278764 -7.75856e-05 0)
(0.186895 2.17641e-05 0)
(0.239326 -0.000354934 0)
(0.306313 4.5661e-05 0)
(-0.402131 0.000787004 0)
(-0.238915 0.00132597 0)
(1.07151 -0.00350501 0)
(-0.000792929 -0.00178778 0)
(-1.32195 0.00470952 0)
(-1.54348 0.00470058 0)
(-1.41102 -0.00295924 0)
(-0.854316 0.00355322 0)
(2.70173 0.000110121 0)
(5.54488 -0.00879884 0)
(2.79396 0.00689815 0)
(-2.17877 0.0120143 0)
(-2.96985 0.00976304 0)
(-2.83949 0.000524585 0)
(-2.15433 0.00124701 0)
(-0.959118 0.00215714 0)
(0.143818 0.00265355 0)
(1.35703 -0.000695367 0)
(3.26997 -0.0027254 0)
(4.88731 -0.00295661 0)
(5.67228 0.00344923 0)
(3.6454 0.0159303 0)
(1.27303 -0.0077821 0)
(3.69733 -0.0374336 0)
(6.25272 -0.0102104 0)
(5.06729 0.00751048 0)
(0.376453 0.0206279 0)
(-3.48744 0.0172786 0)
(-5.34474 0.00516224 0)
(-6.11308 0.00266876 0)
(-6.1074 -0.000978578 0)
(-5.11872 -0.0126986 0)
(-3.52308 -0.0201402 0)
(1.27884 -0.0253097 0)
(5.34527 0.173557 0)
(3.97061 -0.180356 0)
(8.11193 -0.801925 0)
(9.01706 0.0215286 0)
(3.95936 0.00119826 0)
(2.9937 0.000264863 0)
(2.55051 0.000142328 0)
(2.2833 9.18204e-05 0)
(2.10367 7.08307e-05 0)
(1.96666 5.48519e-05 0)
(1.86065 4.76715e-05 0)
(1.77577 3.82814e-05 0)
(1.70817 3.45699e-05 0)
(1.65265 2.91143e-05 0)
(1.60636 2.6731e-05 0)
(1.5677 2.37158e-05 0)
(1.534 2.13663e-05 0)
(1.50557 2.01459e-05 0)
(1.47936 1.75581e-05 0)
(1.45693 1.77071e-05 0)
(1.43496 1.50357e-05 0)
(1.41573 1.61419e-05 0)
(1.39599 1.3724e-05 0)
(1.37832 1.5356e-05 0)
(1.35981 1.34881e-05 0)
(1.34297 1.52729e-05 0)
(1.32534 1.41231e-05 0)
(1.30909 1.58274e-05 0)
(1.29227 1.54223e-05 0)
(1.27662 1.69698e-05 0)
(1.26082 1.72156e-05 0)
(1.24622 1.86372e-05 0)
(1.23208 1.93283e-05 0)
(1.21928 2.06436e-05 0)
(1.20731 2.15238e-05 0)
(1.19641 2.27108e-05 0)
(1.18609 2.37469e-05 0)
(1.17602 2.50786e-05 0)
(1.16575 2.68577e-05 0)
(1.15467 2.93143e-05 0)
(1.14251 3.31423e-05 0)
(1.12815 3.82636e-05 0)
(1.11178 4.59941e-05 0)
(1.09084 5.59734e-05 0)
(1.06578 6.89505e-05 0)
(1.0349 8.87846e-05 0)
(0.990855 0.000105633 0)
(0.947435 0.000138936 0)
(0.878522 0.000171864 0)
(0.787268 0.000173346 0)
(0.759464 0.000306394 0)
(0.504486 6.63035e-05 0)
(0.581658 -6.0243e-05 0)
(0.852505 0.001415 0)
(-1.05697 0.00206848 0)
(-1.13438 -0.00473769 0)
(2.39121 -0.000778691 0)
(1.32709 0.00732833 0)
(-2.96421 0.00758302 0)
(-4.28952 -0.000116435 0)
(-4.34859 0.000190979 0)
(-3.36817 -0.0204088 0)
(5.55905 -0.0301909 0)
(14.8797 -0.00445381 0)
(10.225 0.0431587 0)
(-3.50566 0.0305551 0)
(-7.62001 0.0146404 0)
(-8.40843 -0.00763162 0)
(-6.824 -0.0181872 0)
(-3.93364 -0.0234034 0)
(-1.19013 -0.0241041 0)
(2.25712 -0.0377597 0)
(7.76588 -0.048279 0)
(12.6209 -0.0313107 0)
(15.5826 0.0191745 0)
(10.2016 0.0819378 0)
(3.24031 -0.0118935 0)
(9.76483 -0.0876837 0)
(16.017 0.0264844 0)
(13.0287 0.10674 0)
(0.910909 0.154361 0)
(-10.6641 0.136365 0)
(-15.2292 0.0574069 0)
(-16.3224 0.0157095 0)
(-15.2689 -0.0173176 0)
(-11.8397 -0.0641643 0)
(-6.55202 -0.123479 0)
(3.2123 -0.221607 0)
(10.2103 -0.207268 0)
(9.56346 0.14565 0)
(21.7185 -1.28095 0)
(15.2321 0.0382973 0)
(7.24928 0.00379566 0)
(5.4716 0.000928843 0)
(4.6582 0.000494197 0)
(4.1663 0.000319504 0)
(3.83475 0.000247382 0)
(3.58215 0.000190358 0)
(3.38643 0.000169825 0)
(3.22962 0.000132772 0)
(3.10467 0.000127889 0)
(3.00222 0.000101306 0)
(2.91722 0.000105193 0)
(2.84664 8.4385e-05 0)
(2.78579 9.20639e-05 0)
(2.73517 7.55421e-05 0)
(2.68925 8.43576e-05 0)
(2.65086 7.17607e-05 0)
(2.61386 7.9788e-05 0)
(2.58247 7.07967e-05 0)
(2.55047 7.67089e-05 0)
(2.52273 7.06187e-05 0)
(2.49354 7.36513e-05 0)
(2.46771 6.949e-05 0)
(2.44034 6.95624e-05 0)
(2.41562 6.64405e-05 0)
(2.38964 6.40846e-05 0)
(2.36575 6.14414e-05 0)
(2.34123 5.75764e-05 0)
(2.3187 5.52781e-05 0)
(2.29652 5.09719e-05 0)
(2.27643 4.90566e-05 0)
(2.25737 4.51664e-05 0)
(2.2399 4.33351e-05 0)
(2.22308 4.01767e-05 0)
(2.20637 3.80563e-05 0)
(2.18898 3.60665e-05 0)
(2.16978 3.45551e-05 0)
(2.14834 3.6047e-05 0)
(2.12257 3.81493e-05 0)
(2.09299 4.89839e-05 0)
(2.05503 6.08086e-05 0)
(2.00963 8.785e-05 0)
(1.95397 0.000125295 0)
(1.87489 0.000167531 0)
(1.79733 0.000248285 0)
(1.67505 0.000343375 0)
(1.51294 0.000358675 0)
(1.46459 0.00075445 0)
(1.013 0.000195137 0)
(1.14253 -0.00031055 0)
(1.53619 0.00447204 0)
(-1.8414 0.00666781 0)
(-1.64997 -0.00859832 0)
(4.6076 -0.0134844 0)
(2.29046 0.0197866 0)
(-5.38713 0.0353761 0)
(-6.69763 0.0100122 0)
(-6.5221 -0.0119517 0)
(-4.22022 -0.0512046 0)
(11.0411 -0.0888315 0)
(25.4641 -0.0377656 0)
(16.7026 0.124132 0)
(-6.79819 0.117786 0)
(-11.9863 0.0610449 0)
(-11.9305 -0.0244752 0)
(-9.16755 -0.0503576 0)
(-4.35509 -0.0664791 0)
(0.363447 -0.0684624 0)
(5.76012 -0.107597 0)
(13.5565 -0.138066 0)
(20.3095 -0.105653 0)
(25.3313 0.025341 0)
(19.9608 0.225997 0)
(10.781 -0.000615825 0)
(17.0286 -0.297855 0)
(24.7859 0.00169938 0)
(19.8279 0.323769 0)
(-2.6009 0.504217 0)
(-21.032 0.376002 0)
(-24.8885 0.102291 0)
(-24.7521 -0.00619095 0)
(-21.8925 -0.103408 0)
(-16.4626 -0.242584 0)
(-8.74245 -0.400345 0)
(5.50986 -0.291872 0)
(9.17839 -0.425005 0)
(14.4025 0.45507 0)
(25.9079 -0.0749106 0)
(21.5378 0.0570708 0)
(11.2013 0.0084515 0)
(8.46211 0.00229029 0)
(7.20435 0.00121466 0)
(6.44184 0.000789456 0)
(5.9267 0.000605846 0)
(5.53512 0.000470047 0)
(5.23112 0.000413098 0)
(4.98762 0.000327848 0)
(4.79271 0.000309065 0)
(4.63314 0.000249149 0)
(4.5001 0.000251932 0)
(4.38998 0.000205474 0)
(4.29456 0.000218216 0)
(4.21563 0.000181223 0)
(4.14372 0.000197858 0)
(4.08418 0.000169275 0)
(4.02664 0.000185409 0)
(3.97847 0.000164508 0)
(3.9293 0.000177056 0)
(3.88734 0.000162379 0)
(3.8431 0.000169452 0)
(3.80456 0.000158999 0)
(3.76361 0.0001602 0)
(3.72711 0.000152185 0)
(3.68866 0.000148454 0)
(3.65368 0.000141729 0)
(3.61771 0.000134756 0)
(3.58488 0.000128869 0)
(3.55252 0.000120597 0)
(3.52333 0.00011547 0)
(3.49562 0.000107702 0)
(3.47023 0.000103094 0)
(3.44579 9.71057e-05 0)
(3.42149 9.32008e-05 0)
(3.39621 9.09148e-05 0)
(3.36816 9.05632e-05 0)
(3.33682 9.79126e-05 0)
(3.29891 0.000108203 0)
(3.25537 0.000138735 0)
(3.19934 0.000174113 0)
(3.13203 0.000243106 0)
(3.05006 0.000341081 0)
(2.93284 0.000447127 0)
(2.81766 0.000643751 0)
(2.63971 0.000883582 0)
(2.39495 0.000914817 0)
(2.32851 0.00183902 0)
(1.67306 0.000631263 0)
(1.79847 -0.000238131 0)
(2.33419 0.0108349 0)
(-2.54831 0.014758 0)
(-2.17941 -0.0213762 0)
(7.07147 -0.028537 0)
(3.2646 0.046949 0)
(-7.68546 0.0772556 0)
(-8.33792 0.0165661 0)
(-8.06429 -0.029985 0)
(-3.73481 -0.117459 0)
(16.2219 -0.20425 0)
(34.9736 -0.0666284 0)
(23.316 0.271792 0)
(-9.47979 0.257429 0)
(-14.8818 0.103189 0)
(-13.9596 -0.0588219 0)
(-10.1479 -0.1126 0)
(-3.64685 -0.150541 0)
(2.71509 -0.153525 0)
(9.37005 -0.223052 0)
(18.329 -0.278052 0)
(26.173 -0.225346 0)
(32.7983 0.00460121 0)
(29.3705 0.392858 0)
(19.8267 0.0526213 0)
(24.6812 -0.48304 0)
(32.286 0.0243063 0)
(23.9589 0.708759 0)
(-12.8919 1.05413 0)
(-30.4699 0.657723 0)
(-31.058 0.106193 0)
(-29.2312 -0.0803733 0)
(-24.7206 -0.257455 0)
(-17.9308 -0.50816 0)
(-8.92192 -0.825781 0)
(6.03685 -0.647506 0)
(4.43224 -0.842995 0)
(15.9549 0.3203 0)
(26.9851 -2.3548 0)
(27.7083 0.0774607 0)
(15.8631 0.0155921 0)
(12.0553 0.00471069 0)
(10.2708 0.00250406 0)
(9.18513 0.00163276 0)
(8.44932 0.00124881 0)
(7.8915 0.000971614 0)
(7.45729 0.000849077 0)
(7.10986 0.000678275 0)
(6.8299 0.000634218 0)
(6.60128 0.000515203 0)
(6.40896 0.000515264 0)
(6.25042 0.000423514 0)
(6.11144 0.000444337 0)
(5.99711 0.000371265 0)
(5.89166 0.000400717 0)
(5.80497 0.000343896 0)
(5.72034 0.000373266 0)
(5.65017 0.00033114 0)
(5.57812 0.000354336 0)
(5.51735 0.000324098 0)
(5.45314 0.00033737 0)
(5.39788 0.000315257 0)
(5.33919 0.000317714 0)
(5.28749 0.000300439 0)
(5.23315 0.000293766 0)
(5.18422 0.000279279 0)
(5.1341 0.000266579 0)
(5.08874 0.000253993 0)
(5.04422 0.000238745 0)
(5.00427 0.000227718 0)
(4.96653 0.000213187 0)
(4.93207 0.000203367 0)
(4.89909 0.000192286 0)
(4.86638 0.000184766 0)
(4.8326 0.000181686 0)
(4.7951 0.000182842 0)
(4.75343 0.00020006 0)
(4.70279 0.000224218 0)
(4.64471 0.000287918 0)
(4.56987 0.000364462 0)
(4.4793 0.000503113 0)
(4.37008 0.000705567 0)
(4.21223 0.000923109 0)
(4.05618 0.00130252 0)
(3.82265 0.00181988 0)
(3.48252 0.00184775 0)
(3.40145 0.00362237 0)
(2.54732 0.00167577 0)
(2.57337 0.000297784 0)
(3.30546 0.0208545 0)
(-2.99527 0.0287142 0)
(-2.63389 -0.0439349 0)
(9.79322 -0.0522327 0)
(4.44237 0.0911716 0)
(-9.57316 0.138608 0)
(-8.65799 0.0208237 0)
(-8.69373 -0.0576696 0)
(-0.988083 -0.222668 0)
(21.6436 -0.38352 0)
(42.792 -0.0987516 0)
(27.2344 0.494034 0)
(-11.9003 0.465176 0)
(-15.8156 0.141459 0)
(-14.3659 -0.110931 0)
(-9.71153 -0.209338 0)
(-1.79202 -0.279692 0)
(5.74597 -0.282097 0)
(13.0818 -0.381355 0)
(22.3222 -0.464056 0)
(30.6339 -0.3905 0)
(37.8608 -0.0627106 0)
(37.0576 0.55736 0)
(28.5646 0.13533 0)
(32.4522 -0.665685 0)
(38.9308 0.151509 0)
(16.8551 1.39312 0)
(-26.8325 1.79212 0)
(-35.3864 0.839487 0)
(-33.7664 0.0408606 0)
(-30.8851 -0.216747 0)
(-25.6497 -0.480902 0)
(-18.4023 -0.859477 0)
(-9.57892 -1.30647 0)
(5.71879 -0.784759 0)
(2.38692 -1.30077 0)
(17.4516 0.199284 0)
(25.2664 1.27314 0)
(33.4555 0.0986384 0)
(21.1873 0.0255086 0)
(16.3269 0.00866512 0)
(13.9397 0.00465686 0)
(12.475 0.0030476 0)
(11.477 0.00232735 0)
(10.7222 0.00181392 0)
(10.1323 0.00158014 0)
(9.66098 0.00126871 0)
(9.278 0.00118086 0)
(8.96622 0.000965345 0)
(8.70107 0.000958717 0)
(8.48355 0.000793681 0)
(8.29022 0.000825513 0)
(8.13218 0.000694416 0)
(7.98434 0.000742449 0)
(7.86376 0.000640264 0)
(7.74471 0.000688713 0)
(7.647 0.000612253 0)
(7.54609 0.000650263 0)
(7.462 0.000594444 0)
(7.37306 0.000615503 0)
(7.29748 0.000573771 0)
(7.21739 0.000576398 0)
(7.14764 0.000543147 0)
(7.07465 0.000530282 0)
(7.00961 0.000502126 0)
(6.94336 0.000479139 0)
(6.88389 0.000454613 0)
(6.82584 0.000427427 0)
(6.77402 0.000405812 0)
(6.72531 0.000379922 0)
(6.68093 0.000360758 0)
(6.63876 0.000341239 0)
(6.59698 0.00032741 0)
(6.55418 0.000323336 0)
(6.50663 0.000327273 0)
(6.45413 0.000361261 0)
(6.39009 0.000409184 0)
(6.31676 0.000526284 0)
(6.22239 0.000672272 0)
(6.10723 0.000919861 0)
(5.97009 0.00129129 0)
(5.76995 0.00169438 0)
(5.57003 0.00233536 0)
(5.28328 0.00334679 0)
(4.83727 0.00333434 0)
(4.74244 0.0062868 0)
(3.71371 0.00398156 0)
(3.51359 0.0017952 0)
(4.54636 0.0340781 0)
(-2.92895 0.0507366 0)
(-2.66285 -0.0816584 0)
(12.6762 -0.086394 0)
(6.00724 0.15392 0)
(-10.6658 0.222339 0)
(-7.18009 0.013613 0)
(-7.64122 -0.105988 0)
(4.47562 -0.381224 0)
(28.3725 -0.620792 0)
(48.996 -0.143537 0)
(24.7341 0.796464 0)
(-15.3248 0.725678 0)
(-14.8959 0.160398 0)
(-13.2928 -0.183612 0)
(-7.52483 -0.350549 0)
(1.61847 -0.45445 0)
(9.27812 -0.447564 0)
(16.8019 -0.578083 0)
(25.8302 -0.694932 0)
(34.2027 -0.594846 0)
(41.4115 -0.180819 0)
(42.5623 0.698726 0)
(36.0612 0.220053 0)
(39.2788 -0.862675 0)
(36.4299 0.553868 0)
(-2.47757 2.7281 0)
(-36.8032 2.57623 0)
(-36.1487 0.861701 0)
(-34.8969 -0.0592521 0)
(-31.4783 -0.40345 0)
(-26.2039 -0.757576 0)
(-19.2341 -1.2717 0)
(-10.1246 -1.8691 0)
(5.09472 -1.12703 0)
(2.06807 -1.81344 0)
(18.4741 -0.434612 0)
(21.0678 -0.447643 0)
(38.4339 0.119234 0)
(26.9673 0.0381467 0)
(21.293 0.0146715 0)
(18.2729 0.00807251 0)
(16.3817 0.00531674 0)
(15.0806 0.00405786 0)
(14.0966 0.0031704 0)
(13.3236 0.00275369 0)
(12.7061 0.0022237 0)
(12.1996 0.00206053 0)
(11.7883 0.00169636 0)
(11.4345 0.00167277 0)
(11.1457 0.00139597 0)
(10.8856 0.00143886 0)
(10.6744 0.00121963 0)
(10.4744 0.00129076 0)
(10.3127 0.00111939 0)
(10.1517 0.00119203 0)
(10.021 0.00106242 0)
(9.88574 0.00111858 0)
(9.7744 0.00102217 0)
(9.65685 0.00105147 0)
(9.55818 0.000977718 0)
(9.45401 0.000977986 0)
(9.36429 0.000918121 0)
(9.27085 0.000894188 0)
(9.18832 0.000843077 0)
(9.10466 0.000803582 0)
(9.02998 0.000759005 0)
(8.95735 0.00071332 0)
(8.89257 0.000673973 0)
(8.8318 0.000630748 0)
(8.77629 0.000596263 0)
(8.72368 0.000564306 0)
(8.67146 0.000540999 0)
(8.61829 0.000536874 0)
(8.5592 0.000546903 0)
(8.49441 0.000608839 0)
(8.41539 0.000696681 0)
(8.32522 0.000895617 0)
(8.20992 0.00115384 0)
(8.06842 0.0015625 0)
(7.90235 0.00219259 0)
(7.65926 0.00289115 0)
(7.41265 0.00387466 0)
(7.07635 0.005718 0)
(6.52025 0.00559416 0)
(6.40404 0.00999046 0)
(5.24928 0.00855247 0)
(4.68849 0.00417522 0)
(6.22305 0.0511476 0)
(-2.0837 0.0874114 0)
(-1.63177 -0.143904 0)
(15.5424 -0.132279 0)
(7.92912 0.206607 0)
(-10.9106 0.326132 0)
(-4.00172 -0.000171326 0)
(-4.46661 -0.183091 0)
(11.5641 -0.616306 0)
(36.5329 -0.893481 0)
(52.8637 -0.150576 0)
(19.4918 1.29624 0)
(-19.8165 0.908617 0)
(-12.9951 0.134771 0)
(-11.1247 -0.292043 0)
(-4.3243 -0.557093 0)
(5.9093 -0.680012 0)
(13.0315 -0.641982 0)
(20.494 -0.807535 0)
(29.1455 -0.954336 0)
(37.0619 -0.835257 0)
(44.1144 -0.339435 0)
(45.7655 0.806178 0)
(42.5364 0.291404 0)
(41.1532 -0.968547 0)
(15.3112 1.9182 0)
(-22.7217 4.13757 0)
(-39.9464 3.04474 0)
(-35.7536 0.784912 0)
(-35.3623 -0.171768 0)
(-31.7 -0.632839 0)
(-26.8286 -1.08185 0)
(-19.6817 -1.76602 0)
(-10.3554 -2.54002 0)
(4.62241 -1.55771 0)
(1.45236 -2.49053 0)
(18.6938 -0.602516 0)
(18.7616 0.509151 0)
(42.2716 0.137352 0)
(32.7855 0.0528132 0)
(26.829 0.0230942 0)
(23.2668 0.0132172 0)
(20.9412 0.00881323 0)
(19.3107 0.00673301 0)
(18.0718 0.00528316 0)
(17.0906 0.00457285 0)
(16.3051 0.00372054 0)
(15.6542 0.00342696 0)
(15.1257 0.0028462 0)
(14.6666 0.0027798 0)
(14.2926 0.00234232 0)
(13.9526 0.00238531 0)
(13.6775 0.00204019 0)
(13.4153 0.00213066 0)
(13.2043 0.00186012 0)
(12.9941 0.00195558 0)
(12.8245 0.00174872 0)
(12.6497 0.00182132 0)
(12.507 0.00166465 0)
(12.3573 0.00169885 0)
(12.2326 0.00157668 0)
(12.1018 0.00156945 0)
(11.9899 0.00146906 0)
(11.874 0.00142758 0)
(11.772 0.00134171 0)
(11.6691 0.00127861 0)
(11.5771 0.00120392 0)
(11.4877 0.00113272 0)
(11.4075 0.001067 0)
(11.332 0.00100043 0)
(11.2624 0.00094411 0)
(11.1962 0.000896878 0)
(11.1302 0.000862533 0)
(11.0634 0.000863031 0)
(10.9894 0.000887526 0)
(10.909 0.00099616 0)
(10.8119 0.00115045 0)
(10.7019 0.00147125 0)
(10.5632 0.00190486 0)
(10.3931 0.00254339 0)
(10.1963 0.00355297 0)
(9.91057 0.00470515 0)
(9.61467 0.00611296 0)
(9.23063 0.00927581 0)
(8.56987 0.00895673 0)
(8.40613 0.0149139 0)
(7.19312 0.0166959 0)
(6.15761 0.00656756 0)
(8.30303 0.0714691 0)
(-0.816211 0.131386 0)
(1.1651 -0.236761 0)
(18.2797 -0.199398 0)
(6.80623 0.376823 0)
(-10.5072 0.40097 0)
(-0.239004 -0.109064 0)
(1.14262 -0.323225 0)
(18.4483 -0.934956 0)
(43.3055 -1.16803 0)
(53.1904 0.0539325 0)
(11.6926 1.92044 0)
(-20.4628 1.1032 0)
(-11.0221 0.118312 0)
(-7.93281 -0.475127 0)
(0.352515 -0.82894 0)
(9.55414 -0.939614 0)
(16.3724 -0.86873 0)
(23.1586 -1.06367 0)
(31.0885 -1.24808 0)
(38.9554 -1.10838 0)
(45.5592 -0.515086 0)
(46.9518 0.844157 0)
(47.6655 0.562569 0)
(28.6631 0.164021 0)
(-10.7037 3.66396 0)
(-33.4968 5.16246 0)
(-39.2044 3.18979 0)
(-35.5795 0.698035 0)
(-35.2842 -0.296491 0)
(-31.8392 -0.89629 0)
(-27.1556 -1.47049 0)
(-20.0306 -2.36948 0)
(-10.6014 -3.34807 0)
(4.22981 -2.07652 0)
(0.800731 -3.29692 0)
(19.2788 -0.842025 0)
(17.355 1.06427 0)
(44.6531 0.150838 0)
(38.0135 0.0679075 0)
(32.5629 0.0337688 0)
(28.7647 0.0204515 0)
(26.0976 0.0139472 0)
(24.16 0.010707 0)
(22.6655 0.00846271 0)
(21.4668 0.00730055 0)
(20.5001 0.00599779 0)
(19.69 0.0054839 0)
(19.0292 0.00460423 0)
(18.4504 0.00444166 0)
(17.9774 0.00378637 0)
(17.5452 0.00379613 0)
(17.1944 0.00328242 0)
(16.86 0.00337013 0)
(16.5901 0.00296709 0)
(16.3228 0.00306946 0)
(16.1066 0.00275865 0)
(15.8861 0.00283515 0)
(15.7057 0.00259648 0)
(15.519 0.00262508 0)
(15.363 0.00243655 0)
(15.2015 0.00241276 0)
(15.0627 0.0022571 0)
(14.9205 0.0021902 0)
(14.7946 0.00205756 0)
(14.6683 0.00196399 0)
(14.5547 0.00184929 0)
(14.4442 0.00174666 0)
(14.3438 0.00164646 0)
(14.2488 0.00155241 0)
(14.16 0.0014694 0)
(14.0751 0.00140733 0)
(13.9902 0.00136432 0)
(13.9045 0.00138001 0)
(13.8108 0.00143474 0)
(13.7102 0.00161848 0)
(13.5911 0.00187882 0)
(13.4575 0.00237552 0)
(13.2928 0.00307148 0)
(13.0923 0.00403079 0)
(12.8627 0.00557664 0)
(12.5355 0.00739987 0)
(12.1898 0.00934013 0)
(11.7532 0.0144553 0)
(11.0058 0.013973 0)
(10.7465 0.0213657 0)
(9.52793 0.0306423 0)
(7.91666 0.0065135 0)
(10.8722 0.0982804 0)
(0.669879 0.171476 0)
(5.36485 -0.32887 0)
(20.5109 -0.273034 0)
(7.14722 0.56728 0)
(-7.81049 0.578082 0)
(3.12099 -0.191242 0)
(7.57429 -0.508909 0)
(23.3168 -1.29435 0)
(46.7376 -1.44144 0)
(49.0516 0.393173 0)
(3.07864 2.64101 0)
(-18.2806 1.22684 0)
(-9.54151 0.0285382 0)
(-4.97393 -0.750867 0)
(2.79598 -1.13392 0)
(11.1165 -1.22626 0)
(17.3753 -1.11859 0)
(23.5465 -1.35343 0)
(31.2917 -1.60207 0)
(39.2175 -1.43547 0)
(45.1749 -0.71344 0)
(46.7664 0.811716 0)
(47.7202 1.29221 0)
(11.2143 1.97827 0)
(-28.1821 5.28926 0)
(-35.9894 5.66883 0)
(-37.6749 3.17861 0)
(-35.6772 0.623713 0)
(-34.8462 -0.446711 0)
(-31.7134 -1.19584 0)
(-27.2524 -1.93267 0)
(-20.2545 -3.10017 0)
(-11.0288 -4.32655 0)
(3.7612 -2.70206 0)
(0.287483 -4.28099 0)
(20.6044 -1.33968 0)
(16.5185 2.03878 0)
(45.4779 0.157965 0)
(41.9359 0.0809385 0)
(37.8139 0.0455144 0)
(34.33 0.0296172 0)
(31.5951 0.0209495 0)
(29.4803 0.016292 0)
(27.7938 0.013032 0)
(26.4103 0.0112307 0)
(25.2765 0.00933934 0)
(24.3127 0.00848013 0)
(23.5172 0.00721153 0)
(22.8149 0.00686555 0)
(22.2347 0.00593166 0)
(21.7034 0.00584443 0)
(21.2669 0.00511874 0)
(20.8528 0.00515545 0)
(20.5138 0.00458731 0)
(20.1819 0.00465949 0)
(19.9094 0.00421916 0)
(19.6362 0.00427128 0)
(19.4092 0.00392995 0)
(19.1789 0.00393203 0)
(18.9835 0.00366037 0)
(18.7849 0.00360527 0)
(18.6118 0.00338098 0)
(18.4373 0.00327865 0)
(18.2809 0.00308873 0)
(18.1256 0.00295791 0)
(17.9842 0.0027947 0)
(17.8472 0.00265612 0)
(17.721 0.00251506 0)
(17.601 0.00239189 0)
(17.4877 0.00228028 0)
(17.3788 0.00220795 0)
(17.27 0.00216364 0)
(17.1607 0.00221147 0)
(17.0432 0.00232 0)
(16.9188 0.00261671 0)
(16.7749 0.00303547 0)
(16.6158 0.00377719 0)
(16.4238 0.00484497 0)
(16.1937 0.00624403 0)
(15.9312 0.00852545 0)
(15.5651 0.0112912 0)
(15.1761 0.013976 0)
(14.6754 0.0217532 0)
(13.8708 0.0214941 0)
(13.48 0.0299557 0)
(12.2057 0.053573 0)
(10.1579 0.000188074 0)
(13.7394 0.126419 0)
(2.38344 0.223827 0)
(10.4446 -0.50475 0)
(22.3071 -0.329759 0)
(7.01892 0.835268 0)
(-9.86454 0.495742 0)
(6.38707 -0.518904 0)
(12.355 -0.728599 0)
(26.9751 -1.69319 0)
(48.1209 -1.6575 0)
(42.0782 0.949533 0)
(-4.20969 3.37928 0)
(-14.5443 1.30673 0)
(-8.23207 -0.14451 0)
(-3.24588 -1.04197 0)
(4.18063 -1.47554 0)
(11.7099 -1.53935 0)
(17.0745 -1.39136 0)
(22.846 -1.69051 0)
(30.9288 -2.03173 0)
(38.4298 -1.81255 0)
(43.4455 -0.938869 0)
(45.1096 0.812195 0)
(42.9739 2.66357 0)
(-3.17358 4.46716 0)
(-35.6647 6.64347 0)
(-34.6948 5.80565 0)
(-36.7152 3.16591 0)
(-35.6626 0.547688 0)
(-34.1363 -0.647629 0)
(-31.0892 -1.53577 0)
(-26.835 -2.47323 0)
(-20.0552 -3.95326 0)
(-11.4992 -5.48873 0)
(3.11423 -3.46219 0)
(0.279035 -5.4654 0)
(21.9999 -2.04701 0)
(15.9001 3.50903 0)
(45.0598 0.158561 0)
(44.0595 0.0892679 0)
(41.7346 0.0559489 0)
(39.1886 0.0394503 0)
(36.8477 0.0293736 0)
(34.8489 0.023439 0)
(33.1518 0.0191221 0)
(31.7011 0.0165572 0)
(30.4748 0.0139811 0)
(29.409 0.0126493 0)
(28.51 0.0109154 0)
(27.7074 0.0102785 0)
(27.0314 0.00901213 0)
(26.4107 0.00873947 0)
(25.8899 0.00776386 0)
(25.3986 0.00767745 0)
(24.9868 0.00691637 0)
(24.589 0.00690074 0)
(24.254 0.00630906 0)
(23.9246 0.00629242 0)
(23.644 0.00583037 0)
(23.3653 0.00577354 0)
(23.1236 0.0054037 0)
(22.883 0.00529518 0)
(22.6693 0.00499001 0)
(22.4576 0.00483803 0)
(22.2653 0.00458074 0)
(22.0768 0.00440354 0)
(21.9033 0.00418311 0)
(21.7361 0.00400274 0)
(21.5807 0.00381432 0)
(21.4328 0.00366032 0)
(21.2923 0.00351935 0)
(21.1573 0.00344306 0)
(21.023 0.00340777 0)
(20.8888 0.00350817 0)
(20.747 0.00369892 0)
(20.5987 0.00415239 0)
(20.4313 0.00478942 0)
(20.2488 0.00585805 0)
(20.0326 0.00742158 0)
(19.7781 0.00940344 0)
(19.4888 0.012675 0)
(19.0889 0.0166591 0)
(18.6746 0.0205083 0)
(18.1035 0.0316838 0)
(17.2657 0.0321562 0)
(16.7978 0.0427982 0)
(15.1936 0.0848637 0)
(13.5713 -0.008078 0)
(16.3133 0.178262 0)
(3.59002 0.273393 0)
(14.6845 -0.675813 0)
(23.4479 -0.343804 0)
(6.87554 1.19538 0)
(-9.37618 0.623141 0)
(9.58962 -0.783822 0)
(16.1638 -0.985638 0)
(29.7846 -2.11801 0)
(48.3125 -1.81227 0)
(33.9007 1.69917 0)
(-8.94049 4.0938 0)
(-10.611 1.30466 0)
(-6.77328 -0.283561 0)
(-1.93341 -1.38576 0)
(5.01523 -1.85473 0)
(11.5744 -1.86521 0)
(15.9203 -1.68414 0)
(21.8828 -2.11735 0)
(30.3344 -2.53734 0)
(36.6505 -2.21263 0)
(40.6912 -1.18838 0)
(41.3938 1.00786 0)
(34.0857 4.68056 0)
(-13.7225 7.41407 0)
(-36.701 7.6798 0)
(-32.9164 5.78902 0)
(-36.2408 3.22357 0)
(-34.9937 0.434962 0)
(-33.0861 -0.924045 0)
(-29.7841 -1.9326 0)
(-25.7407 -3.09411 0)
(-19.1615 -4.90117 0)
(-11.6549 -6.79592 0)
(2.27823 -4.4002 0)
(0.986748 -6.92171 0)
(23.1749 -2.90043 0)
(15.3175 5.45997 0)
(44.1767 0.154958 0)
(44.5243 0.0917917 0)
(43.7845 0.0624062 0)
(42.4867 0.0474887 0)
(40.9818 0.0375352 0)
(39.4947 0.0311569 0)
(38.0941 0.0262035 0)
(36.8073 0.0230256 0)
(35.6578 0.0198417 0)
(34.6194 0.0180071 0)
(33.7112 0.0158044 0)
(32.8833 0.0148018 0)
(32.1655 0.0131847 0)
(31.5004 0.0126455 0)
(30.9267 0.0114023 0)
(30.3855 0.0111178 0)
(29.919 0.0101484 0)
(29.4719 0.00998089 0)
(29.0846 0.00922367 0)
(28.7089 0.00908669 0)
(28.38 0.00848996 0)
(28.059 0.008335 0)
(27.7737 0.00785326 0)
(27.4947 0.00766313 0)
(27.2422 0.00726407 0)
(26.9959 0.00704265 0)
(26.7693 0.00670544 0)
(26.5498 0.00646727 0)
(26.346 0.00617718 0)
(26.151 0.00594373 0)
(25.9686 0.00569736 0)
(25.7954 0.00550607 0)
(25.6305 0.00533156 0)
(25.4722 0.00525407 0)
(25.3157 0.00523579 0)
(25.1605 0.00540675 0)
(24.9988 0.00570634 0)
(24.8317 0.00635963 0)
(24.6467 0.00727257 0)
(24.4478 0.00875422 0)
(24.216 0.0109414 0)
(23.9462 0.0136466 0)
(23.6447 0.0182296 0)
(23.221 0.0236392 0)
(22.8077 0.0292548 0)
(22.1824 0.0447931 0)
(21.3263 0.0455364 0)
(20.9029 0.0638588 0)
(18.7178 0.119064 0)
(18.2729 -0.00751291 0)
(18.5086 0.283375 0)
(5.24513 0.321398 0)
(19.1426 -0.87032 0)
(24.3327 -0.306689 0)
(6.52539 1.60501 0)
(-3.55984 0.815718 0)
(13.6632 -1.12776 0)
(19.6509 -1.2728 0)
(32.1779 -2.57553 0)
(47.188 -1.77853 0)
(25.8661 2.67104 0)
(-10.3522 4.77821 0)
(-7.61259 1.18823 0)
(-5.19912 -0.423918 0)
(-0.754226 -1.76821 0)
(5.57489 -2.26306 0)
(11.0699 -2.19174 0)
(14.5314 -2.01995 0)
(21.1799 -2.65262 0)
(29.3592 -3.11907 0)
(33.8545 -2.59268 0)
(36.8211 -1.36612 0)
(34.9892 1.63539 0)
(21.4399 7.36776 0)
(-20.1185 10.4014 0)
(-34.4667 8.42633 0)
(-32.142 5.81835 0)
(-35.5583 3.30478 0)
(-33.386 0.229591 0)
(-31.6061 -1.29401 0)
(-27.9245 -2.4366 0)
(-24.0607 -3.82362 0)
(-17.7207 -5.94621 0)
(-11.2102 -8.18558 0)
(1.405 -5.6351 0)
(2.44182 -8.89911 0)
(24.0746 -3.33888 0)
(14.5896 8.0868 0)
(43.6815 0.151211 0)
(44.1974 0.0904448 0)
(44.2687 0.0641133 0)
(43.9454 0.0515651 0)
(43.3395 0.0429995 0)
(42.5877 0.0373195 0)
(41.7547 0.0326121 0)
(40.8952 0.0294057 0)
(40.0551 0.026034 0)
(39.2435 0.0239268 0)
(38.4918 0.0214412 0)
(37.7783 0.0201386 0)
(37.133 0.0182563 0)
(36.5208 0.0174471 0)
(35.9737 0.0159782 0)
(35.4516 0.0154653 0)
(34.9867 0.0143084 0)
(34.5399 0.0139515 0)
(34.1409 0.013037 0)
(33.7553 0.0127439 0)
(33.4085 0.0120121 0)
(33.0722 0.0117284 0)
(32.7665 0.0111286 0)
(32.4701 0.010832 0)
(32.1971 0.0103291 0)
(31.9329 0.0100183 0)
(31.687 0.00958848 0)
(31.4503 0.00927214 0)
(31.2287 0.00889802 0)
(31.0173 0.00859644 0)
(30.8185 0.00827868 0)
(30.6299 0.00803936 0)
(30.45 0.00782363 0)
(30.2773 0.00774293 0)
(30.1074 0.00774496 0)
(29.9396 0.0079986 0)
(29.7668 0.00842682 0)
(29.5898 0.00931514 0)
(29.3972 0.0105536 0)
(29.1918 0.0125177 0)
(28.9579 0.0154623 0)
(28.6843 0.0189728 0)
(28.3912 0.0252558 0)
(27.9603 0.0321582 0)
(27.5772 0.0402127 0)
(26.9309 0.0612551 0)
(26.1037 0.060724 0)
(25.765 0.0959005 0)
(23.1525 0.151143 0)
(23.7644 0.0119295 0)
(21.3429 0.442151 0)
(9.79291 0.347316 0)
(24.3393 -1.07818 0)
(25.3419 -0.178489 0)
(5.28611 1.98727 0)
(5.46733 0.92683 0)
(18.3419 -1.49058 0)
(23.1101 -1.59115 0)
(34.0816 -2.98858 0)
(44.9884 -1.67799 0)
(18.6433 3.79213 0)
(-9.22403 5.22989 0)
(-5.05519 1.02653 0)
(-3.46848 -0.634834 0)
(0.538771 -2.19206 0)
(6.07658 -2.68459 0)
(10.4552 -2.51033 0)
(13.3672 -2.4474 0)
(20.9191 -3.32149 0)
(27.4457 -3.63405 0)
(30.151 -2.892 0)
(32.237 -1.39956 0)
(25.7374 2.82236 0)
(8.66732 10.364 0)
(-21.8691 13.0795 0)
(-30.8882 9.14367 0)
(-32.3583 5.97941 0)
(-33.6408 3.24951 0)
(-30.9501 -0.0510039 0)
(-29.1547 -1.74357 0)
(-25.5793 -3.05844 0)
(-21.668 -4.6828 0)
(-15.9654 -7.09584 0)
(-10.1562 -9.61175 0)
(0.562278 -7.41403 0)
(4.52497 -11.5809 0)
(24.6593 -3.763 0)
(13.5532 11.3812 0)
(43.8075 0.149905 0)
(44.0238 0.0889239 0)
(44.1878 0.0633533 0)
(44.2387 0.0521283 0)
(44.1551 0.0448386 0)
(43.9669 0.0402334 0)
(43.6788 0.0363691 0)
(43.3164 0.0337377 0)
(42.9077 0.0307602 0)
(42.4677 0.0288399 0)
(42.0234 0.0264814 0)
(41.571 0.0251611 0)
(41.1363 0.0232777 0)
(40.7037 0.0223572 0)