/*--------------------------------*- C++ -*----------------------------------*\
| =========                 |                                                 |
| \\      /  F ield         | OpenFOAM: The Open Source CFD Toolbox           |
|  \\    /   O peration     | Version:  2306                                  |
|   \\  /    A nd           | Website:  www.openfoam.com                      |
|    \\/     M anipulation  |                                                 |
\*---------------------------------------------------------------------------*/
FoamFile
{
    version     2.0;
    format      ascii;
    arch        "LSB;label=32;scalar=64";
    class       volVectorField;
    location    "1600";
    object      wallShearStress;
}
// * * * * * * * * * * * * * * * * * * * * * * * * * * * * * * * * * * * * * //

dimensions      [0 2 -2 0 0 0 0];

internalField   uniform (0 0 0);

boundaryField
{
    inlet
    {
        type            calculated;
        value           uniform (0 0 0);
    }
    outlet
    {
        type            calculated;
        value           uniform (0 0 0);
    }
    lowerWallStartup
    {
        type            symmetryPlane;
    }
    upperWallStartup
    {
        type            symmetryPlane;
    }
    upperWall
    {
        type            calculated;
        value           nonuniform List<vector> 
218
(
(-3.59584 0.0160874 0)
(-1.44583 0.000348066 0)
(-1.08965 5.81762e-05 0)
(-0.92581 4.40768e-05 0)
(-0.825467 1.36984e-05 0)
(-0.759407 3.12421e-05 0)
(-0.707012 5.99691e-06 0)
(-0.668216 3.07179e-05 0)
(-0.635439 2.45113e-06 0)
(-0.611405 3.29558e-05 0)
(-0.590378 1.30353e-06 0)
(-0.574895 3.61747e-05 0)
(-0.561508 3.89887e-06 0)
(-0.551173 3.75667e-05 0)
(-0.543464 1.13834e-05 0)
(-0.536 3.40273e-05 0)
(-0.532777 2.45823e-05 0)
(-0.5264 2.28106e-05 0)
(-0.52683 4.35949e-05 0)
(-0.520067 2.37166e-06 0)
(-0.523556 6.7441e-05 0)
(-0.515299 -2.73213e-05 0)
(-0.521499 9.44425e-05 0)
(-0.511035 -6.52938e-05 0)
(-0.519735 0.000123512 0)
(-0.506649 -0.000109916 0)
(-0.517662 0.000155006 0)
(-0.501831 -0.000158859 0)
(-0.515111 0.000190465 0)
(-0.496771 -0.0002102 0)
(-0.51256 0.000232306 0)
(-0.492156 -0.00026486 0)
(-0.510795 0.000282956 0)
(-0.488597 -0.000326932 0)
(-0.510216 0.000342109 0)
(-0.4863 -0.000399727 0)
(-0.510852 0.000404009 0)
(-0.485604 -0.000480868 0)
(-0.513208 0.000458727 0)
(-0.487841 -0.000561768 0)
(-0.519074 0.000498087 0)
(-0.495711 -0.00063185 0)
(-0.531836 0.000523258 0)
(-0.513239 -0.00068393 0)
(-0.556418 0.00055034 0)
(-0.545488 -0.000716714 0)
(-0.598648 0.000605272 0)
(-0.597897 -0.000734962 0)
(-0.66402 0.000699312 0)
(-0.675728 -0.000746098 0)
(-0.757666 0.000812053 0)
(-0.785027 -0.000762222 0)
(-0.886806 0.000923006 0)
(-0.935692 -0.000803324 0)
(-1.05885 0.000990698 0)
(-1.13793 -0.000719505 0)
(-1.26778 0.000811641 0)
(-1.38021 -0.000282094 0)
(-1.5091 0.000278049 0)
(-1.65139 8.0027e-05 0)
(-1.79486 -0.000224024 0)
(-1.9729 0.000277154 0)
(-2.13249 -0.00103933 0)
(-2.32774 0.000833964 0)
(-2.46311 -0.00109917 0)
(-2.56567 -0.000395847 0)
(-2.67416 -0.000520587 0)
(-2.73639 -0.00177734 0)
(-2.85927 -0.000384132 0)
(-2.90679 -0.00399647 0)
(-3.04304 -4.40597e-05 0)
(-3.09352 -0.00560341 0)
(-3.153 -0.0011622 0)
(-3.21501 -0.00439241 0)
(-3.20484 -0.00331423 0)
(-3.28639 -0.00269357 0)
(-3.30963 -0.00514822 0)
(-3.39148 -0.00146464 0)
(-3.44553 -0.00534366 0)
(-3.45756 -0.000588011 0)
(-3.49441 -0.00288845 0)
(-3.4655 -0.000725749 0)
(-3.48083 -0.00136615 0)
(-3.51149 5.03473e-05 0)
(-3.49895 -0.00226544 0)
(-3.57108 0.00232021 0)
(-3.52065 -0.00233128 0)
(-3.56853 0.00376055 0)
(-3.52325 -0.00156856 -9.4558e-19)
(-3.54225 0.00361394 0)
(-3.50459 -0.00198488 9.44745e-19)
(-3.51075 0.00280858 -9.43457e-19)
(-3.47755 -0.00252159 0)
(-3.45241 0.00169011 -9.41387e-19)
(-3.43785 -0.00299156 0)
(-3.38704 0.000242737 0)
(-3.41127 -0.00331427 0)
(-3.35302 -0.000846041 0)
(-3.4101 -0.00308888 9.34313e-19)
(-3.35107 -0.000702757 0)
(-3.40777 -0.00225134 -9.31031e-19)
(-3.33625 0.000482195 0)
(-3.3659 -0.00111152 -9.27494e-19)
(-3.26384 0.00185495 9.25363e-19)
(-3.2656 -4.53247e-06 0)
(-3.12825 0.00279743 9.20947e-19)
(-3.11656 0.000745169 0)
(-2.95473 0.00335841 -9.15333e-19)
(-2.92988 0.00100963 0)
(-2.74702 0.00416456 0)
(-2.6802 0.000926851 0)
(-2.44941 0.00567092 0)
(-2.3109 0.000740665 0)
(-1.97332 0.00756604 0)
(-1.82866 0.000187646 0)
(-1.29966 0.00919554 8.79985e-19)
(-1.17343 0.000449926 -8.7401e-19)
(-0.63551 0.00945877 8.67686e-19)
(-0.554723 0.00131072 -8.61585e-19)
(0.675667 0.0133209 0)
(0.693601 0.0211476 -8.4473e-19)
(1.68587 0.0115609 0)
(0.872882 0.0298251 -8.16993e-19)
(0.373782 0.00971778 0)
(-1.66497 0.0109964 0)
(-6.66077 -0.0563251 -7.19683e-19)
(-13.5782 -0.102494 0)
(-22.9725 -0.127468 -6.70065e-19)
(-31.4247 -0.0811818 0)
(-37.5482 -0.042102 -7.62182e-19)
(-40.4617 0.0189683 0)
(-34.2617 0.25677 -9.63872e-19)
(-12.2971 0.507906 0)
(14.6171 0.378039 0)
(19.3395 0.0704058 -1.15431e-18)
(21.9747 0.0524764 0)
(23.1415 -0.00566685 -1.0415e-18)
(22.7031 -0.030876 0)
(19.949 -0.0796365 -8.75189e-19)
(14.3328 -0.0202319 0)
(10.3521 0.20549 -7.80639e-19)
(11.1549 -0.0123406 0)
(-0.986643 -0.116905 0)
(-25.6821 -0.436931 -5.36526e-19)
(-56.6802 -0.327512 0)
(-74.0612 -0.0432021 -8.81401e-19)
(-72.4406 0.162832 0)
(-64.5345 0.108352 -1.28709e-18)
(-61.3126 0.0241135 0)
(-62.5624 -0.0402163 0)
(-65.6439 -0.0258552 -1.52532e-18)
(-68.6892 -0.035728 -1.60818e-18)
(-70.7747 -0.0252633 0)
(-75.5316 -0.0717932 -1.77659e-18)
(-83.6204 -0.109387 0)
(-90.3883 -0.0380655 -2.05212e-18)
(-91.7069 0.267739 0)
(-66.1882 0.716632 -2.76836e-18)
(-12.4471 0.793476 0)
(16.2022 0.475778 -3.46558e-18)
(35.5599 0.262404 -3.58654e-18)
(49.12 0.256036 0)
(60.7622 0.153054 -3.62553e-18)
(68.8013 0.168972 0)
(75.3882 0.088312 -3.43274e-18)
(78.9779 0.0865542 0)
(80.8929 0.0268386 0)
(80.4835 0.00848415 -2.81589e-18)
(78.5626 -0.0274414 2.56364e-18)
(75.3396 -0.0470006 -2.30941e-18)
(71.1561 -0.0593835 2.06327e-18)
(66.7491 -0.0662639 0)
(62.2324 -0.0550825 0)
(58.2569 -0.0455544 0)
(54.7963 -0.0287784 1.23613e-18)
(52.0765 -0.011097 0)
(50.286 -0.0429512 0)
(47.5697 -0.024209 0)
(44.6625 -0.0492298 0)
(41.8121 0.0294624 0)
(37.6651 0.0585353 0)
(37.2875 -0.0211571 0)
(28.8554 0.0507259 3.99422e-20)
(27.9574 0.00960176 -1.84466e-19)
(23.288 -0.0190628 0)
(22.8535 -0.115783 0)
(14.9626 -0.186151 1.49027e-19)
(5.07879 -0.132296 -1.61852e-19)
(-6.15518 -0.0709065 -3.16923e-19)
(-15.8366 -0.0604764 -2.9381e-19)
(-23.2451 -0.0435308 -5.20327e-19)
(-26.658 -0.0153338 -4.41794e-19)
(-25.8752 -0.00171462 -3.6409e-19)
(-21.8053 0.00295712 0)
(-27.5676 0.0267258 -4.92346e-19)
(-39.299 -0.0114519 0)
(-27.6924 0.117253 5.58614e-19)
(4.49884 0.104841 0)
(0.0750757 -0.0131814 0)
(-29.1265 -0.101566 0)
(-59.8498 -0.138642 0)
(-64.1994 -0.0890173 0)
(-48.8438 -0.0549633 0)
(-43.1037 -0.0815633 2.30696e-18)
(-31.4585 -0.0328421 0)
(-8.48902 0.028565 -6.83627e-18)
(13.4291 0.0665811 5.6392e-18)
(23.9029 0.208565 -4.80555e-18)
(15.82 0.273432 0)
(5.74206 0.0991046 3.17931e-19)
(-1.66241 -0.0180695 0)
(-4.45612 -0.0704911 0)
(-2.6233 -0.0378734 0)
(-0.0985724 0.0206494 0)
(0.0870096 0.0116981 0)
(-0.331534 0.0115476 0)
(-1.06544 -0.0471888 1.4671e-19)
(-1.03011 -0.0729386 0)
)
;
    }
    lowerWall
    {
        type            calculated;
        value           nonuniform List<vector> 
266
(
(-3.59535 -0.016087 0)
(-1.44525 -0.000354923 0)
(-1.08996 -6.68601e-05 0)
(-0.92541 -3.70099e-05 0)
(-0.82619 -2.0716e-05 0)
(-0.759308 -2.12272e-05 0)
(-0.708002 -1.18912e-05 0)
(-0.668428 -1.74726e-05 0)
(-0.636754 -8.03619e-06 0)
(-0.612128 -1.55947e-05 0)
(-0.592158 -6.35879e-06 0)
(-0.576427 -1.51817e-05 0)
(-0.563768 -6.51475e-06 0)
(-0.553794 -1.5668e-05 0)
(-0.546092 -8.00843e-06 0)
(-0.539957 -1.64667e-05 0)
(-0.535563 -1.02433e-05 0)
(-0.531881 -1.69726e-05 0)
(-0.529487 -1.24016e-05 0)
(-0.527168 -1.65724e-05 0)
(-0.525753 -1.35285e-05 0)
(-0.524022 -1.47196e-05 0)
(-0.52291 -1.27555e-05 0)
(-0.521305 -1.10667e-05 0)
(-0.520093 -9.59138e-06 0)
(-0.518334 -5.59765e-06 0)
(-0.51677 -4.14099e-06 0)
(-0.514703 1.23753e-06 0)
(-0.512738 2.8104e-06 0)
(-0.510447 8.41692e-06 0)
(-0.508277 9.98423e-06 0)
(-0.505959 1.475e-05 0)
(-0.503695 1.63891e-05 0)
(-0.501223 2.00611e-05 0)
(-0.498484 2.24941e-05 0)
(-0.495215 2.5996e-05 0)
(-0.491208 3.04198e-05 0)
(-0.486304 3.50043e-05 0)
(-0.480121 4.23224e-05 0)
(-0.472803 4.83488e-05 0)
(-0.463389 5.8494e-05 0)
(-0.452335 6.53802e-05 0)
(-0.438827 7.68037e-05 0)
(-0.420355 8.28798e-05 0)
(-0.402848 9.57065e-05 0)
(-0.373963 8.49116e-05 0)
(-0.340304 0.000111519 0)
(-0.328117 6.48599e-05 0)
(-0.21998 -5.50822e-05 0)
(-0.281694 0.000627741 0)
(-0.360547 -0.000473819 0)
(0.473333 -0.00157182 0)
(0.281212 -0.0010936 0)
(-1.26141 0.00563455 0)
(0.0693777 0.0825355 0)
(1.55633 -0.00851687 0)
(1.81726 -0.00744237 0)
(1.66124 0.00519982 0)
(1.00567 -0.00213634 0)
(-3.18206 0.0053004 0)
(-6.53784 0.0138223 0)
(-3.29082 -0.0180016 0)
(2.56567 -0.0244627 0)
(3.49818 -0.0160573 0)
(3.34449 0.000481079 0)
(2.53691 0.00117305 0)
(1.12908 0.00060515 0)
(-0.16926 7.34461e-05 0)
(-1.59764 0.00713383 0)
(-3.85208 0.0114043 0)
(-5.76093 0.00971314 0)
(-6.68848 -0.00835957 0)
(-4.29485 -0.0353869 0)
(-1.49851 0.0126409 0)
(-4.35597 0.0717526 0)
(-7.37493 0.0195478 0)
(-5.97362 -0.0289506 0)
(-0.443114 -0.0581258 0)
(4.10861 -0.0451529 0)
(6.30137 -0.0167987 0)
(7.20963 -0.0068093 0)
(7.20297 0.00530512 0)
(6.03435 0.0300577 0)
(4.15064 0.0580778 0)
(-1.50656 0.0776697 0)
(-6.29748 -0.261148 0)
(-4.66685 0.296835 0)
(-10.0512 1.24469 0)
(27.5596 -85.8222 0)
(-0.621836 -1.30461 0)
(0.0432462 -0.863084 1.40302e-20)
(-0.184254 -0.562464 -1.57151e-20)
(-0.254979 -0.313019 0)
(-0.2516 -0.144 0)
(-0.255189 -0.0132079 0)
(-0.257247 0.114967 0)
(-0.239841 0.172921 0)
(-0.214026 0.166551 -3.2371e-19)
(-0.190883 0.154406 2.58665e-19)
(-0.175834 0.119195 -4.20594e-19)
(-0.179073 0.108759 3.43644e-19)
(-0.204535 0.152984 0)
(-0.238418 0.209318 5.8767e-19)
(-0.289228 0.302607 -5.48665e-19)
(-0.345306 0.431879 0)
(-0.437295 0.629744 0)
(-0.537183 0.99413 -0)
(-0.561439 1.47719 1.7016e-18)
(-0.544429 2.09009 -1.62523e-18)
(-0.451109 2.84356 3.16078e-18)
(-0.212127 3.74645 -3.11707e-18)
(0.280527 4.37119 0)
(0.832574 4.0513 6.03192e-18)
(1.27913 3.04972 -5.55027e-18)
(1.35778 1.67996 0)
(0.8077 0.465961 0)
(0.790867 0.119482 0)
(0.906058 -0.178896 0)
(1.8296 -0.954424 0)
(3.01069 -2.45997 0)
(3.87038 -4.34307 -3.73795e-18)
(4.37375 -6.38728 -2.52384e-19)
(4.53197 -8.41186 3.43317e-18)
(4.3927 -10.2898 0)
(4.03265 -11.9304 0)
(3.52737 -13.2927 0)
(2.95799 -14.3586 0)
(2.37059 -15.1612 -0)
(1.82214 -15.6901 2.23726e-18)
(1.31891 -15.9984 -2.1837e-18)
(0.920393 -16.0676 -0)
(0.571595 -15.9888 0)
(0.367411 -15.7158 0)
(0.185104 -15.3988 -6.94445e-19)
(0.206458 -14.8788 7.13351e-19)
(0.214751 -14.7492 0)
(-0.233599 -4.03405 0)
(-4.67416 -0.059527 -7.69007e-21)
(-7.48386 0.0309133 0)
(-10.415 0.027569 -8.14769e-21)
(-13.1241 0.0236821 -0)
(-15.7337 0.0129142 0)
(-17.8841 0.0136061 0)
(-21.9483 0.0240576 -0)
(-26.6727 0.0226809 0)
(-29.1731 0.000572376 -1.10112e-20)
(-27.7275 -0.0171166 0)
(-21.2554 -0.0403601 0)
(-11.3818 -0.132302 0)
(1.11889 -0.0663744 0)
(13.9953 0.345235 0)
(2.97204 0.0852514 0)
(-12.1115 0.0634101 0)
(-14.8905 -0.0359857 0)
(-18.1092 -0.0292247 0)
(-23.9143 0.0148605 -0)
(-22.2377 -0.0596929 9.73727e-21)
(-19.1595 -0.112621 0)
(-0.763582 -0.201825 9.08521e-21)
(11.4765 0.0549158 0)
(-2.58869 0.197991 8.04916e-21)
(-9.89399 0.0915173 0)
(-9.0223 0.0855628 8.42122e-21)
(-12.3644 0.0900084 0)
(-16.7278 0.109715 0)
(-17.5819 -0.135425 -0)
(-5.22976 -0.198833 9.80759e-21)
(13.3456 -0.0420344 9.51516e-21)
(14.4758 0.101128 9.40761e-21)
(4.5927 0.15069 9.46091e-21)
(-2.43946 0.0488053 9.59072e-21)
(-5.56359 0.000839208 0)
(-6.12714 -0.000362744 -0)
(-8.50898 0.0268177 1.00118e-20)
(-11.3397 0.00468758 1.03484e-20)
(-5.98456 -0.0146171 1.05265e-20)
(-1.17844 -0.0189405 1.05359e-20)
(-2.13008 -0.00190785 1.05624e-20)
(-2.67645 -0.000187805 1.06077e-20)
(-3.83485 0.0244526 0)
(-4.69433 -0.000422232 1.07216e-20)
(-2.78919 -0.0168855 1.07565e-20)
(-0.41069 0.0107971 1.07095e-20)
(-0.910635 0.0271435 1.06951e-20)
(-2.17256 0.0183566 1.07511e-20)
(-2.3306 -0.0045065 1.08183e-20)
(-2.11359 -0.0191656 -0)
(-2.5971 -0.0138624 1.09256e-20)
(-3.68546 -0.00824406 1.09657e-20)
(-5.8521 0.0187438 1.10214e-20)
(-9.63302 0.0419447 1.11175e-20)
(-14.8139 0.0567364 1.13288e-20)
(-18.4972 0.0426107 1.16785e-20)
(-17.4523 0.00493326 0)
(-13.5322 -0.0120672 1.23014e-20)
(-10.846 -0.00323163 0)
(-10.8038 0.0100001 0)
(-12.0167 0.0196475 0)
(-13.1941 0.0189529 -1.31631e-20)
(-13.8546 0.017967 0)
(-14.0202 0.0119058 0)
(-13.3632 0.000830402 0)
(-11.998 -0.0158704 0)
(-10.6761 -0.0277548 0)
(-8.93452 -0.0483371 0)
(-6.8682 -0.0359705 -1.51601e-20)
(-5.32827 -1.71574e-05 0)
(-3.88679 -0.013926 0)
(-3.15668 -0.0121918 0)
(-3.79009 0.0127802 -1.50879e-20)
(-5.25301 0.00743268 -0)
(-6.03612 0.00606085 0)
(-5.65007 -0.0125035 0)
(-4.69453 -0.00607007 0)
(-4.03018 -0.014212 0)
(-4.17897 -0.00107378 0)
(-4.92296 0.0146777 -1.55169e-20)
(-5.52461 0.0204457 0)
(-5.34489 0.0145655 0)
(-4.71474 -0.00133229 -1.59094e-20)
(-3.61397 -0.0102854 0)
(-2.42476 -0.0133885 -1.63422e-20)
(-1.17119 -0.0102085 0)
(-0.156307 -0.00756954 0)
(0.998807 -0.00891835 1.69932e-20)
(1.98134 -0.00783159 0)
(3.17655 -0.01225 -1.74107e-20)
(4.16235 -0.013811 -0)
(5.36936 -0.0183629 0)
(6.30325 -0.0200467 0)
(7.41771 -0.0234511 0)
(8.29798 -0.0234362 0)
(9.27177 -0.0233875 -1.82656e-20)
(9.55083 -0.0205764 -0)
(9.46698 -0.0157423 0)
(9.15265 -0.00736875 -2.17141e-18)
(9.16803 -0.00687071 -3.79918e-18)
(9.35794 -0.00365185 -0)
(9.8546 -0.00415495 0)
(10.7111 -0.00410535 0)
(11.9762 -0.00488334 0)
(13.7526 -0.00657544 0)
(16.0474 -0.0089369 6.95992e-18)
(18.9245 -0.0133549 -0)
(22.3863 -0.0213893 1.05187e-17)
(26.3669 -0.0352944 -8.95997e-18)
(30.3837 -0.0564973 -0)
(33.5726 -0.0858171 0)
(34.9691 -0.119048 0)
(33.4775 -0.146369 -1.09632e-17)
(28.2135 -0.150413 5.61013e-18)
(19.7105 -0.121862 0)
(9.73834 -0.0634783 6.90588e-19)
(0.20342 0.000420726 -0)
(-3.40296 0.0222601 1.64268e-18)
(-1.48792 0.00717453 0)
(-3.22101 0.0199065 0)
(-3.36919 0.0250604 0)
(-0.62644 0.0118709 0)
(1.08572 -0.00177176 0)
(1.88696 -0.0216584 -1.03923e-17)
(2.02263 -0.0251605 7.46652e-18)
(0.878265 -0.0112899 0)
(-0.466163 0.00271109 -3.938e-19)
(-1.11073 0.00949013 0)
(-1.37816 0.00976564 0)
)
;
    }
    front
    {
        type            empty;
    }
    back
    {
        type            empty;
    }
}


// ************************************************************************* //
