/*--------------------------------*- C++ -*----------------------------------*\
| =========                 |                                                 |
| \\      /  F ield         | OpenFOAM: The Open Source CFD Toolbox           |
|  \\    /   O peration     | Version:  2306                                  |
|   \\  /    A nd           | Website:  www.openfoam.com                      |
|    \\/     M anipulation  |                                                 |
\*---------------------------------------------------------------------------*/
FoamFile
{
    version     2.0;
    format      ascii;
    arch        "LSB;label=32;scalar=64";
    class       volScalarField;
    location    "1600";
    object      cp;
}
// * * * * * * * * * * * * * * * * * * * * * * * * * * * * * * * * * * * * * //

dimensions      [0 0 0 0 0 0 0];

internalField   nonuniform List<scalar> 
20540
(
1.59589
0.0822487
1.59586
0.0129887
1.59583
-0.0268481
1.59579
-0.0400917
1.59574
-0.0451736
1.59568
-0.0489818
1.5956
-0.052285
1.59549
-0.0550058
1.59536
-0.0572585
1.5952
-0.0591908
1.59499
-0.0608924
1.59474
-0.0624108
1.59442
-0.0637729
1.59403
-0.0649939
1.59355
-0.066079
1.59295
-0.0670242
1.59223
-0.0678154
1.59134
-0.068427
1.59027
-0.0688193
1.58897
-0.0689341
1.58741
-0.0686905
1.58556
-0.0679779
1.58341
-0.0666504
1.58097
-0.0645221
1.57829
-0.0613661
1.57553
-0.05692
1.57297
-0.0508981
1.57116
-0.043054
1.57097
-0.0334784
1.5731
-0.0233317
1.57671
-0.0160126
1.57922
-0.0123755
1.57906
-0.0127811
1.57635
-0.0171548
1.57284
-0.0250032
1.57095
-0.0351902
1.57129
-0.0447295
1.57315
-0.0526092
1.57572
-0.0587413
1.57849
-0.0633403
1.58118
-0.0666661
1.58365
-0.0689651
1.58584
-0.0704553
1.58773
-0.0713184
1.58933
-0.0716998
1.59068
-0.0717113
1.5918
-0.0714368
1.59272
-0.0709376
1.59348
-0.0702571
1.59411
-0.0694247
1.59462
-0.0684586
1.59504
-0.0673676
1.59538
-0.0661521
1.59565
-0.0648041
1.59588
-0.0633068
1.59606
-0.0616319
1.59621
-0.0597312
1.59632
-0.0575142
1.59642
-0.0548341
1.59649
-0.0515791
1.59655
-0.0478159
1.59659
-0.0427145
1.59663
-0.0293201
1.59666
0.0104681
1.59668
0.078774
-0.0286945
0.00100521
-0.0425325
-0.0323205
-0.0480972
-0.0490334
-0.056261
-0.0601197
-0.0649144
-0.0689797
-0.0729674
-0.0766938
-0.0802386
-0.0836002
-0.0867988
-0.0898421
-0.0927439
-0.0955108
-0.0981537
-0.100677
-0.103091
-0.105399
-0.107608
-0.109722
-0.111748
-0.113687
-0.115546
-0.117328
-0.119036
-0.120673
-0.122243
-0.123749
-0.125193
-0.126578
-0.127908
-0.129183
-0.130408
-0.131584
-0.132714
-0.1338
-0.134845
-0.135853
-0.136825
-0.137765
-0.138678
-0.139566
-0.140435
-0.141289
-0.142134
-0.142977
-0.143825
-0.144686
-0.145568
-0.146482
-0.147438
-0.148448
-0.149524
-0.15068
-0.151933
-0.153303
-0.154809
-0.156481
-0.158337
-0.16007
-0.161528
-0.163038
-0.164627
-0.166293
-0.16804
-0.169863
-0.171775
-0.173772
-0.175865
-0.178052
-0.180337
-0.182726
-0.185205
-0.187805
-0.19048
-0.193337
-0.196236
-0.199479
-0.202686
-0.206582
-0.210275
-0.21529
-0.220013
-0.228088
-0.02874
0.00100524
-0.042532
-0.0323201
-0.0480969
-0.0490332
-0.0562608
-0.0601195
-0.0649142
-0.0689796
-0.0729673
-0.0766937
-0.0802385
-0.0836002
-0.0867987
-0.089842
-0.0927438
-0.0955107
-0.0981537
-0.100677
-0.103091
-0.105399
-0.107608
-0.109722
-0.111747
-0.113687
-0.115546
-0.117328
-0.119036
-0.120673
-0.122243
-0.123749
-0.125193
-0.126578
-0.127908
-0.129183
-0.130408
-0.131584
-0.132714
-0.1338
-0.134845
-0.135853
-0.136825
-0.137765
-0.138678
-0.139566
-0.140435
-0.141289
-0.142134
-0.142977
-0.143825
-0.144686
-0.145568
-0.146482
-0.147438
-0.148448
-0.149524
-0.15068
-0.151933
-0.153303
-0.154809
-0.156481
-0.158337
-0.16007
-0.161528
-0.163038
-0.164627
-0.166293
-0.16804
-0.169864
-0.171776
-0.173772
-0.175865
-0.178052
-0.180338
-0.182726
-0.185205
-0.187806
-0.190481
-0.193337
-0.196237
-0.19948
-0.202687
-0.206583
-0.210278
-0.21529
-0.220033
-0.22792
-0.0288255
0.00100373
-0.0425314
-0.0323194
-0.0480963
-0.0490327
-0.0562605
-0.0601192
-0.0649139
-0.0689793
-0.0729671
-0.0766935
-0.0802383
-0.0836
-0.0867986
-0.0898419
-0.0927437
-0.0955106
-0.0981535
-0.100677
-0.103091
-0.105399
-0.107608
-0.109722
-0.111747
-0.113687
-0.115546
-0.117328
-0.119035
-0.120673
-0.122243
-0.123748
-0.125193
-0.126578
-0.127908
-0.129183
-0.130408
-0.131584
-0.132714
-0.1338
-0.134845
-0.135853
-0.136825
-0.137765
-0.138678
-0.139566
-0.140435
-0.141289
-0.142134
-0.142977
-0.143825
-0.144686
-0.145568
-0.146482
-0.147438
-0.148447
-0.149524
-0.15068
-0.151933
-0.153303
-0.154809
-0.156481
-0.158337
-0.16007
-0.161529
-0.163038
-0.164628
-0.166293
-0.16804
-0.169864
-0.171776
-0.173773
-0.175866
-0.178053
-0.180338
-0.182727
-0.185206
-0.187807
-0.190482
-0.193339
-0.196238
-0.199482
-0.20269
-0.206585
-0.210283
-0.215285
-0.220072
-0.227701
-0.0289524
0.000998941
-0.0425312
-0.0323184
-0.0480955
-0.0490319
-0.0562598
-0.0601186
-0.0649134
-0.0689789
-0.0729667
-0.0766931
-0.0802379
-0.0835996
-0.0867983
-0.0898416
-0.0927434
-0.0955103
-0.0981533
-0.100677
-0.103091
-0.105398
-0.107608
-0.109722
-0.111747
-0.113687
-0.115546
-0.117327
-0.119035
-0.120673
-0.122243
-0.123748
-0.125193
-0.126578
-0.127907
-0.129183
-0.130408
-0.131584
-0.132714
-0.1338
-0.134845
-0.135852
-0.136825
-0.137765
-0.138677
-0.139566
-0.140434
-0.141289
-0.142134
-0.142977
-0.143825
-0.144686
-0.145568
-0.146482
-0.147438
-0.148447
-0.149524
-0.15068
-0.151933
-0.153303
-0.154809
-0.156481
-0.158337
-0.160071
-0.161529
-0.163038
-0.164628
-0.166294
-0.168041
-0.169865
-0.171777
-0.173774
-0.175867
-0.178054
-0.18034
-0.182728
-0.185208
-0.187809
-0.190484
-0.193341
-0.196241
-0.199486
-0.202694
-0.206588
-0.210294
-0.215273
-0.220149
-0.227466
-0.0291331
0.00098796
-0.0425324
-0.0323174
-0.0480943
-0.0490307
-0.0562587
-0.0601176
-0.0649126
-0.0689781
-0.072966
-0.0766924
-0.0802373
-0.0835991
-0.0867978
-0.0898411
-0.092743
-0.0955099
-0.0981529
-0.100676
-0.10309
-0.105398
-0.107607
-0.109722
-0.111747
-0.113687
-0.115546
-0.117327
-0.119035
-0.120672
-0.122242
-0.123748
-0.125192
-0.126578
-0.127907
-0.129183
-0.130408
-0.131584
-0.132713
-0.1338
-0.134845
-0.135852
-0.136824
-0.137765
-0.138677
-0.139566
-0.140434
-0.141289
-0.142134
-0.142977
-0.143825
-0.144685
-0.145568
-0.146482
-0.147438
-0.148447
-0.149524
-0.15068
-0.151933
-0.153303
-0.154809
-0.156481
-0.158337
-0.160071
-0.16153
-0.163039
-0.164629
-0.166294
-0.168042
-0.169866
-0.171778
-0.173775
-0.175869
-0.178056
-0.180342
-0.182731
-0.185211
-0.187812
-0.190488
-0.193346
-0.196246
-0.199491
-0.202701
-0.206592
-0.210311
-0.215254
-0.220247
-0.227265
-0.0293807
0.000967481
-0.0425363
-0.032317
-0.0480932
-0.0490294
-0.0562575
-0.0601164
-0.0649115
-0.0689771
-0.072965
-0.0766916
-0.0802365
-0.0835984
-0.086797
-0.0898404
-0.0927424
-0.0955093
-0.0981523
-0.100676
-0.10309
-0.105398
-0.107607
-0.109721
-0.111746
-0.113686
-0.115545
-0.117327
-0.119035
-0.120672
-0.122242
-0.123748
-0.125192
-0.126578
-0.127907
-0.129183
-0.130407
-0.131583
-0.132713
-0.133799
-0.134845
-0.135852
-0.136824
-0.137765
-0.138677
-0.139565
-0.140434
-0.141288
-0.142134
-0.142977
-0.143825
-0.144685
-0.145568
-0.146482
-0.147438
-0.148447
-0.149524
-0.15068
-0.151933
-0.153303
-0.15481
-0.156481
-0.158338
-0.160072
-0.16153
-0.16304
-0.16463
-0.166296
-0.168043
-0.169867
-0.17178
-0.173777
-0.175871
-0.178059
-0.180345
-0.182734
-0.185214
-0.187816
-0.190492
-0.193351
-0.196251
-0.199497
-0.202709
-0.206596
-0.210331
-0.215232
-0.22035
-0.227085
-0.0297087
0.000934563
-0.0425445
-0.0323179
-0.0480925
-0.049028
-0.056256
-0.060115
-0.0649101
-0.0689758
-0.0729638
-0.0766905
-0.0802355
-0.0835974
-0.0867961
-0.0898396
-0.0927415
-0.0955085
-0.0981516
-0.100675
-0.103089
-0.105397
-0.107606
-0.10972
-0.111746
-0.113686
-0.115545
-0.117326
-0.119034
-0.120671
-0.122242
-0.123747
-0.125192
-0.126577
-0.127907
-0.129182
-0.130407
-0.131583
-0.132713
-0.133799
-0.134844
-0.135852
-0.136824
-0.137764
-0.138677
-0.139565
-0.140434
-0.141288
-0.142133
-0.142976
-0.143824
-0.144685
-0.145567
-0.146482
-0.147438
-0.148447
-0.149523
-0.15068
-0.151934
-0.153303
-0.15481
-0.156482
-0.158339
-0.160072
-0.161531
-0.163041
-0.164631
-0.166297
-0.168045
-0.169869
-0.171782
-0.173779
-0.175873
-0.178061
-0.180348
-0.182738
-0.185218
-0.18782
-0.190496
-0.193356
-0.196257
-0.199503
-0.202718
-0.206599
-0.210353
-0.215206
-0.220447
-0.226913
-0.0301338
0.000886457
-0.0425584
-0.0323208
-0.0480927
-0.0490269
-0.0562547
-0.0601135
-0.0649086
-0.0689743
-0.0729624
-0.0766891
-0.0802342
-0.0835962
-0.086795
-0.0898385
-0.0927405
-0.0955076
-0.0981507
-0.100674
-0.103088
-0.105396
-0.107605
-0.10972
-0.111745
-0.113685
-0.115544
-0.117326
-0.119033
-0.120671
-0.122241
-0.123747
-0.125191
-0.126577
-0.127906
-0.129182
-0.130406
-0.131582
-0.132712
-0.133798
-0.134844
-0.135851
-0.136823
-0.137764
-0.138676
-0.139565
-0.140433
-0.141288
-0.142133
-0.142976
-0.143824
-0.144685
-0.145567
-0.146481
-0.147438
-0.148447
-0.149523
-0.15068
-0.151934
-0.153304
-0.15481
-0.156482
-0.158339
-0.160073
-0.161532
-0.163042
-0.164632
-0.166298
-0.168046
-0.169871
-0.171784
-0.173782
-0.175876
-0.178065
-0.180351
-0.182741
-0.185222
-0.187825
-0.190501
-0.193362
-0.196263
-0.199509
-0.202727
-0.2066
-0.210376
-0.215176
-0.220526
-0.22675
-0.0306776
0.000819943
-0.0425798
-0.0323265
-0.0480944
-0.0490263
-0.0562535
-0.0601119
-0.064907
-0.0689727
-0.0729608
-0.0766876
-0.0802327
-0.0835948
-0.0867936
-0.0898372
-0.0927393
-0.0955064
-0.0981496
-0.100673
-0.103087
-0.105395
-0.107605
-0.109719
-0.111744
-0.113684
-0.115543
-0.117325
-0.119033
-0.12067
-0.12224
-0.123746
-0.12519
-0.126576
-0.127905
-0.129181
-0.130406
-0.131582
-0.132712
-0.133798
-0.134843
-0.13585
-0.136823
-0.137763
-0.138676
-0.139564
-0.140433
-0.141287
-0.142133
-0.142976
-0.143823
-0.144684
-0.145567
-0.146481
-0.147437
-0.148447
-0.149523
-0.15068
-0.151934
-0.153304
-0.154811
-0.156483
-0.15834
-0.160074
-0.161533
-0.163043
-0.164634
-0.1663
-0.168048
-0.169873
-0.171786
-0.173784
-0.175879
-0.178068
-0.180354
-0.182745
-0.185225
-0.187829
-0.190505
-0.193366
-0.196268
-0.199513
-0.202735
-0.206598
-0.210396
-0.215142
-0.22057
-0.226602
-0.0313665
0.000730869
-0.0426104
-0.0323358
-0.048098
-0.0490267
-0.0562528
-0.0601106
-0.0649054
-0.068971
-0.0729591
-0.0766859
-0.0802311
-0.0835931
-0.0867921
-0.0898357
-0.0927378
-0.095505
-0.0981482
-0.100672
-0.103086
-0.105394
-0.107603
-0.109718
-0.111743
-0.113683
-0.115542
-0.117324
-0.119032
-0.120669
-0.122239
-0.123745
-0.125189
-0.126575
-0.127904
-0.12918
-0.130405
-0.131581
-0.132711
-0.133797
-0.134842
-0.13585
-0.136822
-0.137762
-0.138675
-0.139563
-0.140432
-0.141286
-0.142132
-0.142975
-0.143823
-0.144684
-0.145566
-0.14648
-0.147437
-0.148446
-0.149523
-0.150679
-0.151933
-0.153304
-0.154811
-0.156483
-0.15834
-0.160074
-0.161534
-0.163044
-0.164635
-0.166301
-0.168049
-0.169875
-0.171788
-0.173786
-0.175881
-0.17807
-0.180356
-0.182748
-0.185228
-0.187832
-0.190507
-0.193369
-0.19627
-0.199515
-0.20274
-0.206589
-0.210409
-0.215105
-0.220554
-0.226463
-0.0322323
0.00061394
-0.0426524
-0.03235
-0.0481043
-0.0490284
-0.056253
-0.0601097
-0.0649041
-0.0689694
-0.0729574
-0.0766841
-0.0802293
-0.0835913
-0.0867903
-0.089834
-0.0927361
-0.0955033
-0.0981466
-0.10067
-0.103084
-0.105392
-0.107602
-0.109716
-0.111742
-0.113682
-0.115541
-0.117322
-0.119031
-0.120668
-0.122238
-0.123744
-0.125188
-0.126574
-0.127903
-0.129179
-0.130404
-0.13158
-0.13271
-0.133796
-0.134842
-0.135849
-0.136821
-0.137762
-0.138674
-0.139562
-0.140431
-0.141286
-0.142131
-0.142974
-0.143822
-0.144683
-0.145566
-0.14648
-0.147436
-0.148446
-0.149522
-0.150679
-0.151933
-0.153303
-0.154811
-0.156483
-0.15834
-0.160075
-0.161534
-0.163044
-0.164635
-0.166302
-0.16805
-0.169875
-0.171789
-0.173787
-0.175882
-0.178071
-0.180357
-0.182748
-0.185228
-0.187832
-0.190507
-0.193368
-0.196269
-0.19951
-0.202738
-0.206571
-0.210406
-0.215061
-0.220456
-0.226311
-0.0333126
0.000462524
-0.0427084
-0.03237
-0.048114
-0.0490319
-0.0562543
-0.0601095
-0.0649032
-0.068968
-0.0729558
-0.0766823
-0.0802274
-0.0835895
-0.0867884
-0.0898321
-0.0927343
-0.0955015
-0.0981448
-0.100669
-0.103083
-0.105391
-0.1076
-0.109715
-0.11174
-0.11368
-0.11554
-0.117321
-0.119029
-0.120666
-0.122237
-0.123743
-0.125187
-0.126573
-0.127902
-0.129178
-0.130403
-0.131579
-0.132709
-0.133795
-0.13484
-0.135848
-0.13682
-0.13776
-0.138673
-0.139561
-0.14043
-0.141285
-0.14213
-0.142973
-0.143821
-0.144682
-0.145565
-0.146479
-0.147435
-0.148445
-0.149522
-0.150678
-0.151933
-0.153303
-0.15481
-0.156483
-0.15834
-0.160074
-0.161534
-0.163044
-0.164635
-0.166301
-0.16805
-0.169875
-0.171788
-0.173787
-0.175881
-0.17807
-0.180355
-0.182746
-0.185224
-0.187828
-0.1905
-0.193361
-0.19626
-0.199496
-0.202726
-0.20654
-0.210376
-0.215002
-0.220255
-0.226103
-0.0346514
0.000268408
-0.0427814
-0.0323973
-0.048128
-0.0490377
-0.0562572
-0.0601103
-0.064903
-0.0689672
-0.0729545
-0.0766808
-0.0802258
-0.0835877
-0.0867866
-0.0898302
-0.0927324
-0.0954996
-0.098143
-0.100667
-0.103081
-0.105389
-0.107599
-0.109713
-0.111739
-0.113679
-0.115538
-0.117319
-0.119027
-0.120665
-0.122235
-0.123741
-0.125185
-0.126571
-0.127901
-0.129177
-0.130401
-0.131577
-0.132707
-0.133794
-0.134839
-0.135846
-0.136819
-0.137759
-0.138672
-0.13956
-0.140429
-0.141283
-0.142129
-0.142972
-0.14382
-0.144681
-0.145564
-0.146478
-0.147434
-0.148444
-0.149521
-0.150677
-0.151931
-0.153302
-0.154809
-0.156482
-0.158339
-0.160073
-0.161532
-0.163042
-0.164633
-0.166299
-0.168047
-0.169872
-0.171785
-0.173783
-0.175876
-0.178065
-0.180349
-0.182738
-0.185214
-0.187816
-0.190485
-0.193342
-0.196239
-0.199467
-0.202695
-0.206487
-0.210306
-0.21491
-0.219933
-0.225776
-0.0362986
2.14971e-05
-0.0428753
-0.0324335
-0.0481472
-0.0490464
-0.056262
-0.0601124
-0.0649037
-0.068967
-0.0729538
-0.0766797
-0.0802244
-0.0835862
-0.0867849
-0.0898285
-0.0927306
-0.0954978
-0.0981411
-0.100665
-0.103079
-0.105387
-0.107597
-0.109711
-0.111737
-0.113677
-0.115536
-0.117318
-0.119026
-0.120663
-0.122233
-0.123739
-0.125184
-0.126569
-0.127899
-0.129175
-0.1304
-0.131576
-0.132706
-0.133792
-0.134837
-0.135845
-0.136817
-0.137758
-0.13867
-0.139559
-0.140427
-0.141282
-0.142127
-0.142971
-0.143819
-0.144679
-0.145562
-0.146476
-0.147433
-0.148443
-0.149519
-0.150676
-0.15193
-0.1533
-0.154807
-0.156479
-0.158336
-0.160069
-0.161528
-0.163039
-0.164628
-0.166294
-0.168041
-0.169866
-0.171778
-0.173775
-0.175866
-0.178053
-0.180335
-0.182722
-0.185194
-0.187792
-0.190457
-0.193308
-0.1962
-0.199415
-0.202635
-0.2064
-0.210177
-0.214754
-0.219478
-0.225256
-0.0383097
-0.000290511
-0.0429943
-0.0324804
-0.0481727
-0.0490586
-0.0562693
-0.0601162
-0.0649057
-0.0689679
-0.0729539
-0.0766793
-0.0802236
-0.0835851
-0.0867837
-0.089827
-0.0927291
-0.0954961
-0.0981394
-0.100663
-0.103077
-0.105385
-0.107595
-0.109709
-0.111735
-0.113675
-0.115534
-0.117316
-0.119024
-0.120661
-0.122232
-0.123737
-0.125182
-0.126568
-0.127897
-0.129173
-0.130398
-0.131574
-0.132704
-0.13379
-0.134836
-0.135843
-0.136815
-0.137756
-0.138668
-0.139557
-0.140426
-0.14128
-0.142126
-0.142969
-0.143817
-0.144678
-0.14556
-0.146474
-0.147431
-0.14844
-0.149517
-0.150673
-0.151927
-0.153297
-0.154804
-0.156475
-0.158332
-0.160064
-0.161522
-0.163032
-0.16462
-0.166285
-0.168031
-0.169854
-0.171764
-0.173759
-0.175848
-0.178032
-0.180309
-0.182692
-0.185158
-0.18775
-0.190408
-0.193249
-0.196133
-0.199327
-0.202532
-0.206259
-0.209969
-0.214486
-0.218876
-0.224467
-0.040743
-0.000682452
-0.0431437
-0.0325404
-0.0482056
-0.0490752
-0.0562795
-0.060122
-0.0649094
-0.0689699
-0.072955
-0.0766797
-0.0802235
-0.0835847
-0.086783
-0.0898261
-0.092728
-0.0954949
-0.098138
-0.100662
-0.103076
-0.105384
-0.107593
-0.109708
-0.111733
-0.113673
-0.115532
-0.117314
-0.119022
-0.120659
-0.12223
-0.123736
-0.12518
-0.126566
-0.127895
-0.129171
-0.130396
-0.131572
-0.132702
-0.133789
-0.134834
-0.135841
-0.136814
-0.137754
-0.138667
-0.139555
-0.140424
-0.141278
-0.142124
-0.142967
-0.143815
-0.144676
-0.145558
-0.146472
-0.147428
-0.148438
-0.149514
-0.15067
-0.151923
-0.153292
-0.154798
-0.156469
-0.158324
-0.160054
-0.161511
-0.16302
-0.164606
-0.166269
-0.168013
-0.169834
-0.171741
-0.173733
-0.175817
-0.177997
-0.180267
-0.182643
-0.1851
-0.187681
-0.190328
-0.193153
-0.196023
-0.199188
-0.202366
-0.206034
-0.209654
-0.214048
-0.218103
-0.223354
-0.0436556
-0.00117198
-0.0433294
-0.0326159
-0.0482474
-0.0490969
-0.0562933
-0.0601304
-0.0649149
-0.0689736
-0.0729574
-0.0766813
-0.0802245
-0.0835851
-0.0867831
-0.0898259
-0.0927276
-0.0954943
-0.0981372
-0.100661
-0.103075
-0.105383
-0.107592
-0.109706
-0.111732
-0.113672
-0.115531
-0.117312
-0.11902
-0.120658
-0.122228
-0.123734
-0.125178
-0.126564
-0.127894
-0.12917
-0.130394
-0.13157
-0.1327
-0.133787
-0.134832
-0.13584
-0.136812
-0.137752
-0.138665
-0.139553
-0.140422
-0.141276
-0.142122
-0.142965
-0.143812
-0.144673
-0.145555
-0.146469
-0.147425
-0.148434
-0.149509
-0.150665
-0.151917
-0.153285
-0.15479
-0.156459
-0.158312
-0.160039
-0.161493
-0.163
-0.164584
-0.166244
-0.167984
-0.169801
-0.171703
-0.17369
-0.175768
-0.17794
-0.1802
-0.182564
-0.185008
-0.187573
-0.190204
-0.193003
-0.195851
-0.19897
-0.202108
-0.205684
-0.209191
-0.213381
-0.217113
-0.221889
-0.0470963
-0.0017797
-0.0435581
-0.0327099
-0.0482994
-0.0491246
-0.0563112
-0.0601419
-0.0649228
-0.0689792
-0.0729615
-0.0766843
-0.0802267
-0.0835868
-0.0867843
-0.0898268
-0.0927281
-0.0954946
-0.0981373
-0.100661
-0.103074
-0.105382
-0.107591
-0.109706
-0.111731
-0.113671
-0.11553
-0.117311
-0.119019
-0.120657
-0.122227
-0.123733
-0.125177
-0.126563
-0.127892
-0.129168
-0.130393
-0.131569
-0.132699
-0.133785
-0.134831
-0.135838
-0.13681
-0.137751
-0.138663
-0.139551
-0.14042
-0.141274
-0.14212
-0.142962
-0.14381
-0.14467
-0.145552
-0.146465
-0.14742
-0.148429
-0.149503
-0.150657
-0.151909
-0.153275
-0.154778
-0.156444
-0.158293
-0.160016
-0.161467
-0.162971
-0.16455
-0.166204
-0.167939
-0.16975
-0.171645
-0.173624
-0.175691
-0.177851
-0.180097
-0.182444
-0.184868
-0.187408
-0.190014
-0.192775
-0.195589
-0.198641
-0.201718
-0.20516
-0.208525
-0.212427
-0.215847
-0.220065
-0.0510942
-0.00252909
-0.043837
-0.0328253
-0.0483629
-0.0491594
-0.0563337
-0.0601568
-0.0649334
-0.068987
-0.0729675
-0.076689
-0.0802305
-0.0835899
-0.0867868
-0.0898288
-0.0927299
-0.095496
-0.0981385
-0.100662
-0.103075
-0.105383
-0.107592
-0.109706
-0.111731
-0.113671
-0.11553
-0.117311
-0.119019
-0.120656
-0.122226
-0.123732
-0.125177
-0.126562
-0.127892
-0.129167
-0.130392
-0.131568
-0.132698
-0.133784
-0.13483
-0.135837
-0.136809
-0.137749
-0.138662
-0.13955
-0.140418
-0.141272
-0.142117
-0.14296
-0.143807
-0.144667
-0.145548
-0.146461
-0.147415
-0.148422
-0.149495
-0.150647
-0.151896
-0.15326
-0.154759
-0.156422
-0.158265
-0.159981
-0.161426
-0.162926
-0.164498
-0.166145
-0.167871
-0.169673
-0.171557
-0.173523
-0.175575
-0.177717
-0.179942
-0.182263
-0.184659
-0.187161
-0.18973
-0.192435
-0.195198
-0.198153
-0.201141
-0.204401
-0.207588
-0.211136
-0.214241
-0.217886
-0.0556433
-0.0034458
-0.0441736
-0.0329654
-0.0484392
-0.0492022
-0.0563615
-0.0601758
-0.0649471
-0.0689976
-0.0729757
-0.0766958
-0.0802361
-0.0835947
-0.086791
-0.0898325
-0.0927331
-0.0954989
-0.098141
-0.100664
-0.103077
-0.105384
-0.107593
-0.109707
-0.111732
-0.113672
-0.115531
-0.117312
-0.11902
-0.120657
-0.122227
-0.123733
-0.125177
-0.126562
-0.127892
-0.129167
-0.130392
-0.131568
-0.132698
-0.133784
-0.134829
-0.135836
-0.136808
-0.137749
-0.138661
-0.139549
-0.140417
-0.141271
-0.142116
-0.142958
-0.143804
-0.144663
-0.145543
-0.146455
-0.147408
-0.148413
-0.149484
-0.150633
-0.151879
-0.153239
-0.154733
-0.156389
-0.158224
-0.15993
-0.161367
-0.162859
-0.164421
-0.166057
-0.16777
-0.169558
-0.171425
-0.173373
-0.175402
-0.177517
-0.179712
-0.181994
-0.184349
-0.186798
-0.189313
-0.191939
-0.194622
-0.197448
-0.200306
-0.203338
-0.2063
-0.209459
-0.212236
-0.215344
-0.060681
-0.00455562
-0.0445754
-0.0331335
-0.0485292
-0.0492539
-0.0563948
-0.0601993
-0.0649642
-0.0690112
-0.0729867
-0.076705
-0.080244
-0.0836016
-0.0867971
-0.089838
-0.0927381
-0.0955035
-0.0981452
-0.100668
-0.103081
-0.105388
-0.107597
-0.10971
-0.111735
-0.113675
-0.115533
-0.117314
-0.119022
-0.120659
-0.122229
-0.123734
-0.125179
-0.126564
-0.127893
-0.129169
-0.130393
-0.131569
-0.132699
-0.133785
-0.13483
-0.135837
-0.136809
-0.137749
-0.138661
-0.139549
-0.140417
-0.14127
-0.142114
-0.142955
-0.143801
-0.144659
-0.145538
-0.146447
-0.147398
-0.1484
-0.149468
-0.150613
-0.151854
-0.153208
-0.154694
-0.15634
-0.158163
-0.159855
-0.16128
-0.162761
-0.164308
-0.165928
-0.167622
-0.169389
-0.171232
-0.173151
-0.175148
-0.177224
-0.179373
-0.181601
-0.183897
-0.186271
-0.188705
-0.191223
-0.193792
-0.19645
-0.19913
-0.201894
-0.204585
-0.207344
-0.209786
-0.212413
-0.0660643
-0.00588015
-0.0450493
-0.0333323
-0.0486331
-0.0493154
-0.0564341
-0.0602279
-0.0649852
-0.0690282
-0.0730006
-0.0767169
-0.0802544
-0.083611
-0.0868055
-0.0898457
-0.0927452
-0.0955101
-0.0981514
-0.100674
-0.103086
-0.105393
-0.107601
-0.109715
-0.11174
-0.113679
-0.115537
-0.117318
-0.119026
-0.120663
-0.122232
-0.123738
-0.125182
-0.126567
-0.127896
-0.129172
-0.130396
-0.131572
-0.132701
-0.133787
-0.134832
-0.135839
-0.136811
-0.13775
-0.138662
-0.139549
-0.140417
-0.141269
-0.142112
-0.142953
-0.143797
-0.144653
-0.14553
-0.146437
-0.147384
-0.148382
-0.149445
-0.150585
-0.151818
-0.153162
-0.154637
-0.156269
-0.158074
-0.159746
-0.161153
-0.162616
-0.164142
-0.165738
-0.167404
-0.169141
-0.170948
-0.172826
-0.174775
-0.176795
-0.17888
-0.181033
-0.183243
-0.185515
-0.187835
-0.190209
-0.192617
-0.195068
-0.197517
-0.199981
-0.202365
-0.204731
-0.206841
-0.20904
-0.0715456
-0.00743055
-0.0456001
-0.0335637
-0.0487503
-0.049387
-0.0564789
-0.0602618
-0.0650102
-0.0690489
-0.0730177
-0.0767319
-0.0802677
-0.083623
-0.0868165
-0.0898559
-0.0927548
-0.095519
-0.0981599
-0.100682
-0.103094
-0.1054
-0.107609
-0.109722
-0.111746
-0.113685
-0.115543
-0.117324
-0.119031
-0.120668
-0.122238
-0.123743
-0.125187
-0.126572
-0.127901
-0.129176
-0.1304
-0.131576
-0.132705
-0.133791
-0.134836
-0.135842
-0.136814
-0.137753
-0.138664
-0.139551
-0.140417
-0.141269
-0.142111
-0.14295
-0.143792
-0.144646
-0.145519
-0.146422
-0.147364
-0.148357
-0.149412
-0.150542
-0.151764
-0.153095
-0.154553
-0.156164
-0.157942
-0.159585
-0.160968
-0.162404
-0.1639
-0.16546
-0.167087
-0.168778
-0.170533
-0.172353
-0.174233
-0.176174
-0.17817
-0.180218
-0.18231
-0.184443
-0.186607
-0.188796
-0.190995
-0.193196
-0.19537
-0.19751
-0.199562
-0.201548
-0.203333
-0.205144
-0.0767595
-0.00919884
-0.0462274
-0.0338285
-0.0488784
-0.049469
-0.0565288
-0.0603013
-0.0650391
-0.0690736
-0.0730383
-0.0767503
-0.0802841
-0.0836379
-0.0868304
-0.0898689
-0.092767
-0.0955306
-0.0981709
-0.100692
-0.103104
-0.10541
-0.107618
-0.109731
-0.111755
-0.113694
-0.115552
-0.117332
-0.119039
-0.120676
-0.122245
-0.12375
-0.125194
-0.126579
-0.127908
-0.129183
-0.130407
-0.131582
-0.132711
-0.133797
-0.134841
-0.135847
-0.136818
-0.137757
-0.138668
-0.139553
-0.140419
-0.141269
-0.142109
-0.142945
-0.143785
-0.144634
-0.145503
-0.1464
-0.147335
-0.148319
-0.149362
-0.15048
-0.151685
-0.152996
-0.154429
-0.156009
-0.157748
-0.159351
-0.160697
-0.162095
-0.163546
-0.165056
-0.166625
-0.168251
-0.169933
-0.171669
-0.173454
-0.175285
-0.177157
-0.179063
-0.180997
-0.182949
-0.18491
-0.186868
-0.188811
-0.190724
-0.192587
-0.194388
-0.196096
-0.197717
-0.199182
-0.200631
-0.0812307
-0.0111467
-0.0469209
-0.0341247
-0.0490131
-0.0495605
-0.0565823
-0.060346
-0.0650717
-0.0691023
-0.0730625
-0.076772
-0.0803037
-0.0836561
-0.0868473
-0.0898848
-0.092782
-0.0955449
-0.0981846
-0.100705
-0.103117
-0.105422
-0.10763
-0.109742
-0.111766
-0.113704
-0.115562
-0.117343
-0.119049
-0.120686
-0.122255
-0.12376
-0.125203
-0.126588
-0.127916
-0.129191
-0.130415
-0.13159
-0.132719
-0.133804
-0.134848
-0.135854
-0.136824
-0.137762
-0.138672
-0.139556
-0.14042
-0.141268
-0.142105
-0.142938
-0.143773
-0.144617
-0.145479
-0.146367
-0.147292
-0.148262
-0.149289
-0.150387
-0.151568
-0.152849
-0.154246
-0.155781
-0.157465
-0.15901
-0.160305
-0.161646
-0.163033
-0.164471
-0.165959
-0.167494
-0.169073
-0.170691
-0.172345
-0.174029
-0.175735
-0.177457
-0.179185
-0.180909
-0.182618
-0.184302
-0.185947
-0.187541
-0.18907
-0.190523
-0.191884
-0.193148
-0.194293
-0.195397
-0.0844192
-0.0131923
-0.0476532
-0.034447
-0.0491471
-0.0496602
-0.0566373
-0.0603955
-0.0651073
-0.0691348
-0.07309
-0.0767972
-0.0803266
-0.0836774
-0.0868673
-0.0899037
-0.0928001
-0.0955622
-0.0982012
-0.100721
-0.103132
-0.105437
-0.107644
-0.109756
-0.11178
-0.113718
-0.115575
-0.117355
-0.119062
-0.120698
-0.122267
-0.123771
-0.125215
-0.126599
-0.127928
-0.129202
-0.130426
-0.131601
-0.132729
-0.133814
-0.134857
-0.135862
-0.136832
-0.137769
-0.138677
-0.139559
-0.14042
-0.141265
-0.142099
-0.142926
-0.143755
-0.144591
-0.145442
-0.146318
-0.147226
-0.148177
-0.149181
-0.150249
-0.151396
-0.152634
-0.153979
-0.155449
-0.157053
-0.158517
-0.159739
-0.161
-0.162298
-0.163635
-0.16501
-0.166419
-0.167857
-0.169319
-0.170798
-0.172289
-0.173782
-0.17527
-0.176744
-0.178192
-0.179606
-0.180975
-0.182287
-0.18353
-0.184699
-0.18579
-0.186794
-0.187711
-0.188535
-0.189314
-0.0858208
-0.0151983
-0.0483692
-0.0347854
-0.0492693
-0.0497654
-0.0566903
-0.0604487
-0.0651447
-0.0691703
-0.0731203
-0.0768253
-0.0803525
-0.0837017
-0.0868902
-0.0899254
-0.0928209
-0.0955821
-0.0982204
-0.10074
-0.10315
-0.105455
-0.107661
-0.109773
-0.111796
-0.113734
-0.115591
-0.117371
-0.119077
-0.120712
-0.122281
-0.123785
-0.125228
-0.126613
-0.127941
-0.129215
-0.130438
-0.131613
-0.132741
-0.133825
-0.134868
-0.135872
-0.13684
-0.137775
-0.138681
-0.139561
-0.140419
-0.141259
-0.142086
-0.142906
-0.143725
-0.144549
-0.145386
-0.146243
-0.147128
-0.148051
-0.149021
-0.150048
-0.151144
-0.152321
-0.153591
-0.15497
-0.156462
-0.157814
-0.158935
-0.160084
-0.161259
-0.162459
-0.163681
-0.164922
-0.166174
-0.167432
-0.168689
-0.169937
-0.171168
-0.172375
-0.173547
-0.174672
-0.175747
-0.176766
-0.177724
-0.178611
-0.179422
-0.180157
-0.18082
-0.181415
-0.181945
-0.182433
-0.0851352
-0.0169644
-0.0489783
-0.0351237
-0.0493646
-0.049872
-0.0567369
-0.0605034
-0.0651822
-0.0692078
-0.0731525
-0.0768557
-0.0803806
-0.0837282
-0.0869154
-0.0899495
-0.0928439
-0.0956043
-0.0982418
-0.100761
-0.10317
-0.105474
-0.10768
-0.109792
-0.111814
-0.113751
-0.115608
-0.117388
-0.119094
-0.120729
-0.122297
-0.123801
-0.125244
-0.126628
-0.127956
-0.12923
-0.130453
-0.131627
-0.132754
-0.133837
-0.134879
-0.135882
-0.136848
-0.137781
-0.138684
-0.13956
-0.140412
-0.141246
-0.142065
-0.142874
-0.143679
-0.144486
-0.145301
-0.146132
-0.146985
-0.147867
-0.148789
-0.149757
-0.150781
-0.151872
-0.153037
-0.154289
-0.155628
-0.156827
-0.157811
-0.158811
-0.159821
-0.16084
-0.161864
-0.162889
-0.163907
-0.164912
-0.165897
-0.166854
-0.167775
-0.168656
-0.169495
-0.170282
-0.171006
-0.171667
-0.172266
-0.172802
-0.173278
-0.173694
-0.174053
-0.17436
-0.174619
-0.174837
-0.0824581
-0.0182412
-0.0493716
-0.0354345
-0.0494191
-0.0499734
-0.0567729
-0.0605565
-0.0652173
-0.069245
-0.0731846
-0.0768864
-0.0804094
-0.0837556
-0.0869415
-0.0899745
-0.092868
-0.0956275
-0.0982643
-0.100782
-0.103192
-0.105495
-0.1077
-0.109811
-0.111834
-0.11377
-0.115627
-0.117406
-0.119111
-0.120746
-0.122314
-0.123818
-0.125261
-0.126644
-0.127972
-0.129245
-0.130468
-0.131641
-0.132768
-0.13385
-0.13489
-0.135891
-0.136855
-0.137785
-0.138683
-0.139553
-0.140399
-0.141223
-0.142029
-0.142823
-0.143609
-0.144392
-0.145177
-0.14597
-0.146777
-0.147603
-0.148457
-0.149343
-0.150269
-0.15124
-0.152263
-0.153343
-0.154477
-0.155474
-0.156281
-0.157086
-0.157886
-0.158678
-0.159457
-0.16022
-0.160958
-0.161666
-0.162341
-0.162978
-0.163571
-0.16411
-0.164596
-0.165028
-0.165405
-0.165729
-0.166
-0.16622
-0.166393
-0.16652
-0.166603
-0.166647
-0.166654
-0.16662
-0.078318
-0.0188342
-0.0495136
-0.0356691
-0.0494395
-0.0500556
-0.0567981
-0.0606022
-0.0652475
-0.0692784
-0.0732138
-0.0769149
-0.0804363
-0.0837813
-0.0869662
-0.0899981
-0.0928909
-0.0956495
-0.0982857
-0.100803
-0.103212
-0.105515
-0.10772
-0.10983
-0.111852
-0.113788
-0.115644
-0.117423
-0.119128
-0.120763
-0.122331
-0.123834
-0.125276
-0.12666
-0.127987
-0.12926
-0.130482
-0.131654
-0.13278
-0.133861
-0.134899
-0.135898
-0.136858
-0.137784
-0.138676
-0.139538
-0.140374
-0.141184
-0.141974
-0.142747
-0.143506
-0.144255
-0.144998
-0.145739
-0.146483
-0.147234
-0.147995
-0.14877
-0.149564
-0.150377
-0.151212
-0.152069
-0.15294
-0.153681
-0.154265
-0.154832
-0.155377
-0.155899
-0.156394
-0.156858
-0.157288
-0.157678
-0.158021
-0.158316
-0.158564
-0.158762
-0.158911
-0.159014
-0.159071
-0.159086
-0.15906
-0.158997
-0.158898
-0.158765
-0.158601
-0.158407
-0.158186
-0.157932
-0.0741038
-0.0188043
-0.0495298
-0.0357543
-0.049463
-0.0500931
-0.0568174
-0.0606292
-0.0652685
-0.0693008
-0.0732342
-0.0769346
-0.0804551
-0.0837993
-0.0869836
-0.0900148
-0.0929071
-0.0956651
-0.098301
-0.100818
-0.103226
-0.105529
-0.107733
-0.109843
-0.111865
-0.113801
-0.115657
-0.117435
-0.11914
-0.120775
-0.122343
-0.123846
-0.125288
-0.126671
-0.127997
-0.12927
-0.130491
-0.131663
-0.132787
-0.133867
-0.134903
-0.135899
-0.136855
-0.137775
-0.138661
-0.139514
-0.140337
-0.141132
-0.141902
-0.142649
-0.143376
-0.144085
-0.144779
-0.14546
-0.14613
-0.146792
-0.147446
-0.148095
-0.148737
-0.149373
-0.149999
-0.150613
-0.151203
-0.151676
-0.152031
-0.152356
-0.152649
-0.15291
-0.153136
-0.153324
-0.153467
-0.153567
-0.15362
-0.153628
-0.153591
-0.153511
-0.15339
-0.153231
-0.153038
-0.152811
-0.152556
-0.152273
-0.151965
-0.151633
-0.15128
-0.150909
-0.150521
-0.150109
-0.0714191
-0.0186302
-0.049463
-0.0357522
-0.0494675
-0.0500989
-0.0568236
-0.0606379
-0.0652768
-0.0693097
-0.0732428
-0.0769432
-0.0804635
-0.0838073
-0.0869915
-0.0900224
-0.0929147
-0.0956723
-0.0983081
-0.100825
-0.103233
-0.105535
-0.10774
-0.10985
-0.111871
-0.113807
-0.115663
-0.117441