/*--------------------------------*- C++ -*----------------------------------*\
| =========                 |                                                 |
| \\      /  F ield         | OpenFOAM: The Open Source CFD Toolbox           |
|  \\    /   O peration     | Version:  2306                                  |
|   \\  /    A nd           | Website:  www.openfoam.com                      |
|    \\/     M anipulation  |                                                 |
\*---------------------------------------------------------------------------*/
FoamFile
{
    version     2.0;
    format      ascii;
    arch        "LSB;label=32;scalar=64";
    class       volScalarField;
    location    "1600";
    object      k;
}
// * * * * * * * * * * * * * * * * * * * * * * * * * * * * * * * * * * * * * //

dimensions      [0 2 -2 0 0 0 0];

internalField   nonuniform List<scalar> 
20540
(
507.735
811.887
507.712
811.871
507.618
811.803
507.447
811.68
507.182
811.489
506.803
811.216
506.286
810.841
505.6
810.343
504.709
809.693
503.565
808.855
502.113
807.783
500.281
806.421
497.98
804.695
495.1
802.513
491.503
799.754
487.018
796.265
481.429
791.847
474.47
786.243
465.812
779.12
455.052
770.052
441.707
758.491
425.209
743.747
404.907
724.959
380.091
701.078
350.035
670.869
314.071
632.933
271.722
585.779
222.902
527.954
168.285
458.234
110.336
375.998
66.1591
292.408
41.6777
240.615
43.2175
242.98
69.981
297.803
115.166
380.327
171.568
460.047
224.745
527.713
272.412
583.904
313.908
629.77
349.277
666.686
378.942
696.07
403.515
719.262
423.677
737.461
440.101
751.688
453.413
762.791
464.166
771.453
472.832
778.215
479.808
783.504
485.419
787.649
489.933
790.905
493.561
793.469
496.476
795.49
498.816
797.086
500.691
798.346
502.187
799.339
503.377
800.12
504.316
800.731
505.051
801.205
505.618
801.568
506.047
801.841
506.362
802.041
506.583
802.181
506.727
802.272
506.806
802.322
506.831
802.337
4.80399
1.5905
1.25421
1.04777
0.938577
0.848974
0.786989
0.735155
0.694035
0.659341
0.630063
0.604889
0.583034
0.563952
0.547054
0.532098
0.518737
0.506729
0.495906
0.486122
0.477215
0.469096
0.461663
0.45485
0.448581
0.442795
0.437447
0.432494
0.427894
0.423616
0.419632
0.415912
0.412436
0.409181
0.406133
0.403272
0.400586
0.39806
0.395685
0.393449
0.391345
0.389363
0.387501
0.38575
0.384109
0.382574
0.381144
0.379821
0.378603
0.377498
0.376506
0.375639
0.374899
0.374304
0.373859
0.373587
0.373497
0.373612
0.373965
0.37457
0.375476
0.376708
0.378351
0.380078
0.381651
0.383399
0.385358
0.387533
0.389917
0.392528
0.395386
0.398495
0.401903
0.405574
0.409621
0.413923
0.418748
0.423713
0.42965
0.435211
0.443102
0.449013
0.460473
0.467422
0.482781
0.499361
0.50046
0.576329
21.699
4.87319
3.39337
2.70233
2.34971
2.0814
1.89621
1.74639
1.62822
1.5301
1.44795
1.37797
1.31766
1.26537
1.21934
1.17883
1.14282
1.11061
1.0817
1.05567
1.03205
1.0106
0.991027
0.973139
0.95672
0.941606
0.927673
0.914794
0.90286
0.891785
0.881489
0.871893
0.862941
0.854574
0.846748
0.839413
0.832534
0.826073
0.820004
0.814293
0.808924
0.803869
0.799114
0.794643
0.790444
0.786508
0.782826
0.779401
0.776222
0.773304
0.770639
0.768253
0.76614
0.764338
0.762846
0.761714
0.760947
0.760592
0.76072
0.761305
0.762468
0.764258
0.766801
0.769556
0.772151
0.77511
0.778409
0.78209
0.786138
0.790593
0.795448
0.800739
0.806477
0.812686
0.819421
0.826715
0.834643
0.843121
0.852765
0.862186
0.874994
0.884266
0.903323
0.912669
0.942546
0.946604
1.01414
0.879605
51.6624
18.1237
14.0727
12.1005
11.0091
10.139
9.5042
8.97155
8.53566
8.16325
7.8431
7.56419
7.31895
7.10245
6.90877
6.73589
6.58016
6.43919
6.31132
6.19504
6.08859
5.9911
5.90144
5.81892
5.74269
5.67209
5.60664
5.54582
5.48919
5.43639
5.3871
5.34097
5.29778
5.25726
5.21924
5.1835
5.14988
5.1182
5.08838
5.06024
5.03372
5.0087
4.98511
4.96287
4.94194
4.92227
4.90383
4.88663
4.87062
4.85588
4.84235
4.83019
4.81934
4.81
4.80216
4.79606
4.79172
4.78933
4.78927
4.79137
4.79618
4.80397
4.81529
4.82768
4.83945
4.85288
4.86782
4.88449
4.90279
4.9229
4.94473
4.96845
4.99402
5.02165
5.05128
5.08351
5.11785
5.15488
5.19588
5.23599
5.28961
5.32703
5.40526
5.4403
5.56179
5.55163
5.86817
5.14752
77.5117
26.0475
19.2383
16.682
15.4019
14.4566
13.7736
13.2077
12.7429
12.3453
12.0018
11.7011
11.4353
11.1995
10.9874
10.7973
10.6251
10.4686
10.326
10.1958
10.0762
9.96619
9.86469
9.77096
9.68409
9.60339
9.52837
9.45847
9.39322
9.33223
9.27516
9.22164
9.17142
9.12421
9.07983
9.03803
8.99864
8.96147
8.92641
8.89328
8.862
8.83243
8.80452
8.77815
8.75328
8.72987
8.70785
8.68724
8.66799
8.65017
8.63371
8.61878
8.6053
8.5935
8.58334
8.57509
8.56873
8.56448
8.56266
8.56334
8.5666
8.57306
8.58315
8.59458
8.60562
8.61845
8.63268
8.64866
8.66615
8.68546
8.70631
8.72902
8.75317
8.77952
8.80692
8.83767
8.8686
8.90382
8.93975
8.97703
9.02405
9.05604
9.12697
9.14944
9.27021
9.18399
9.65873
8.70984
101.594
33.8621
22.9078
19.112
17.3968
16.2897
15.5301
14.928
14.4424
14.0327
13.6811
13.3748
13.1049
12.8658
12.651
12.4586
12.2844
12.1261
11.9819
11.8502
11.7291
11.6179
11.5151
11.4203
11.3323
11.2506
11.1746
11.1038
11.0376
10.9758
10.918
10.8637
10.8127
10.7648
10.7198
10.6774
10.6374
10.5996
10.564
10.5304
10.4986
10.4685
10.4401
10.4133
10.3879
10.364
10.3415
10.3203
10.3005
10.2821
10.265
10.2493
10.235
10.2223
10.211
10.2016
10.1938
10.1879
10.1842
10.1827
10.1835
10.1868
10.1934
10.2014
10.2093
10.2189
10.2295
10.2417
10.255
10.2699
10.2858
10.3034
10.3216
10.3422
10.3623
10.3866
10.4085
10.4365
10.4611
10.4908
10.5232
10.5459
10.6014
10.6089
10.7157
10.5877
11.0588
10.2436
124.618
42.5265
26.9962
21.372
18.8792
17.4362
16.5128
15.8295
15.2987
14.8637
14.4968
14.1813
13.9056
13.6628
13.4455
13.2516
13.0763
12.9172
12.7726
12.6406
12.5193
12.4079
12.305
12.2101
12.1221
12.0403
11.9643
11.8935
11.8273
11.7655
11.7077
11.6533
11.6024
11.5545
11.5094
11.467
11.427
11.3892
11.3536
11.3199
11.288
11.2579
11.2294
11.2025
11.177
11.153
11.1303
11.109
11.0889
11.0701
11.0526
11.0365
11.0216
11.0081
10.996
10.9855
10.9764
10.969
10.9634
10.9597
10.958
10.9586
10.9613
10.9659
10.9707
10.9769
10.984
10.9923
11.0013
11.0118
11.0228
11.0353
11.0478
11.0626
11.0758
11.0938
11.1075
11.1285
11.1429
11.1659
11.1845
11.2019
11.2394
11.2392
11.3224
11.2048
11.5449
10.9968
147.132
51.9517
31.8981
24.1223
20.5374
18.542
17.3239
16.4807
15.8575
15.3684
14.9683
14.6321
14.3432
14.092
13.8691
13.6718
13.4943
13.3337
13.1883
13.0559
12.9344
12.8229
12.7202
12.6255
12.5378
12.4563
12.3806
12.31
12.2442
12.1827
12.1251
12.0711
12.0204
11.9727
11.9279
11.8857
11.8459
11.8084
11.7729
11.7394
11.7077
11.6777
11.6494
11.6225
11.5971
11.5731
11.5504
11.529
11.5089
11.49
11.4722
11.4557
11.4403
11.4263
11.4134
11.402
11.3917
11.383
11.3757
11.3701
11.366
11.3638
11.3635
11.3646
11.3666
11.3698
11.3734
11.3782
11.3833
11.3898
11.3964
11.4043
11.4118
11.4215
11.429
11.4411
11.4485
11.4628
11.4703
11.486
11.4949
11.5076
11.5289
11.5259
11.5803
11.5005
11.6836
11.3819
169.507
62.0507
37.5866
27.5544
22.6774
19.9318
18.2692
17.1607
16.3744
15.7839
15.3186
14.9402
14.6233
14.3536
14.118
13.9121
13.7288
13.5643
13.4163
13.2822
13.1596
13.0476
12.9446
12.8499
12.7623
12.681
12.6056
12.5355
12.47
12.4089
12.3518
12.2982
12.2479
12.2007
12.1563
12.1145
12.0751
12.0378
12.0027
11.9695
11.9382
11.9084
11.8803
11.8537
11.8285
11.8047
11.7821
11.7608
11.7406
11.7217
11.7038
11.6871
11.6714
11.6569
11.6434
11.6312
11.62
11.6101
11.6013
11.594
11.5878
11.5833
11.5799
11.5786
11.578
11.5784
11.5791
11.5807
11.5825
11.5855
11.5884
11.5923
11.5956
11.6008
11.6041
11.6108
11.614
11.6217
11.6248
11.6336
11.6367
11.6443
11.6534
11.6492
11.6777
11.6325
11.7029
11.5589
191.984
72.8196
43.9763
31.6727
25.4116
21.7806
19.5406
18.0546
17.0186
16.2623
15.685
15.2304
14.8609
14.5547
14.2932
14.0693
13.8729
13.6991
13.5445
13.4057
13.2797
13.1654
13.0608
12.9651
12.8768
12.7952
12.7197
12.6496
12.5844
12.5235
12.4667
12.4135
12.3637
12.3168
12.2729
12.2315
12.1925
12.1557
12.121
12.0882
12.0572
12.0279
12.0001
11.9738
11.9489
11.9253
11.903
11.8818
11.8618
11.8429
11.825
11.8082
11.7923
11.7775
11.7635
11.7508
11.7387
11.728
11.7179
11.7092
11.7012
11.6947
11.6887
11.6853
11.6824
11.6807
11.6786
11.678
11.6769
11.6771
11.6769
11.6773
11.6776
11.6787
11.679
11.6812
11.6811
11.6837
11.6831
11.6866
11.6852
11.6884
11.6879
11.6839
11.6928
11.6706
11.6793
11.6073
214.707
84.2987
51.0191
36.4305
28.7521
24.1624
21.2526
19.2935
17.9217
16.9273
16.1797
15.6034
15.1459
14.7762
14.4681
14.21
13.9883
13.7957
13.627
13.4777
13.3438
13.2235
13.1145
13.0155
12.9247
12.8413
12.7646
12.6936
12.6277
12.5666
12.5096
12.4563
12.4066
12.3599
12.3162
12.2751
12.2365
12.2
12.1657
12.1332
12.1026
12.0736
12.0462
12.0202
11.9957
11.9724
11.9503
11.9294
11.9095
11.8907
11.8728
11.8561
11.84
11.8251
11.8108
11.7977
11.785
11.7735
11.7625
11.7526
11.7432
11.735
11.7269
11.7218
11.717
11.7138
11.7094
11.7069
11.7032
11.7014
11.6983
11.6967
11.6937
11.6926
11.6895
11.6888
11.6854
11.6851
11.6813
11.6811
11.6763
11.6757
11.6703
11.6654
11.662
11.6496
11.6314
11.5849
237.751
96.545
58.707
41.7906
32.6743
27.0894
23.4567
20.9582
19.1806
17.8809
16.9028
16.1531
15.5644
15.0957
14.7122
14.3968
14.1312
13.9048
13.71
13.5406
13.3908
13.2582
13.1395
13.0329
12.9362
12.8481
12.7676
12.6938
12.6257
12.5628
12.5045
12.4502
12.3997
12.3526
12.3085
12.2672
12.2284
12.1919
12.1577
12.1253
12.0948
12.066
12.0388
12.0131
11.9887
11.9656
11.9437
11.923
11.9032
11.8846
11.8668
11.8501
11.834
11.819
11.8044
11.791
11.7778
11.7658
11.754
11.7433
11.7327
11.7233
11.7134
11.707
11.7008
11.6963
11.6901
11.6864
11.6806
11.6773
11.6719
11.6688
11.6634
11.6606
11.6549
11.6523
11.6461
11.6437
11.6368
11.6344
11.6265
11.6234
11.6142
11.6091
11.5967
11.5881
11.5699
11.5212
261.136
109.617
67.0592
47.7394
37.153
30.5483
26.1625
23.0847
20.8538
19.197
17.9364
16.9638
16.1991
15.5917
15.0985
14.6967
14.3625
14.0817
13.8435
13.6394
13.4618
13.3069
13.1701
13.0489
12.9402
12.8424
12.7541
12.6737
12.6003
12.533
12.4712
12.414
12.3611
12.3119
12.2662
12.2236
12.1838
12.1464
12.1115
12.0786
12.0477
12.0186
11.9912
11.9652
11.9407
11.9176
11.8956
11.8749
11.8551
11.8364
11.8185
11.8018
11.7855
11.7704
11.7556
11.7419
11.7283
11.7159
11.7034
11.6921
11.6805
11.6701
11.659
11.6515
11.6441
11.6388
11.6313
11.6265
11.6192
11.6147
11.6076
11.6035
11.5962
11.5923
11.5846
11.5808
11.5725
11.5687
11.5597
11.5557
11.5456
11.5408
11.5288
11.5225
11.5057
11.4962
11.4734
11.4382
284.825
123.566
76.1106
54.2847
42.1776
34.5236
29.3616
25.6795
22.9658
20.9172
19.3362
18.1011
17.1208
16.3371
15.6993
15.1794
14.7483
14.3882
14.0849
13.8274
13.6056
13.4144
13.2474
13.1011
12.9715
12.8563
12.7533
12.6607
12.5769
12.5008
12.4316
12.368
12.3098
12.2561
12.2065
12.1606
12.1179
12.0781
12.0411
12.0064
11.974
11.9436
11.915
11.8881
11.8628
11.8389
11.8163
11.795
11.7747
11.7556
11.7373
11.7202
11.7035
11.688
11.6728
11.6587
11.6446
11.6317
11.6186
11.6066
11.5943
11.5831
11.5709
11.5625
11.5543
11.5482
11.5397
11.5342
11.5257
11.5205
11.5122
11.5072
11.4986
11.4939
11.4848
11.4801
11.4704
11.4656
11.4552
11.45
11.4385
11.4324
11.4186
11.4109
11.392
11.3809
11.3544
11.3272
308.735
138.429
85.9034
61.4498
47.7531
39.0089
33.0444
28.7368
25.52
23.0567
21.1304
19.6049
18.3797
17.3893
16.5767
15.9094
15.3538
14.8885
14.4966
14.1642
13.8789
13.634
13.4215
13.2365
13.0739
12.9305
12.8034
12.6902
12.5886
12.4972
12.4147
12.3396
12.2714
12.209
12.1519
12.0993
12.0508
12.0059
11.9645
11.9258
11.8899
11.8564
11.8251
11.7957
11.7682
11.7424
11.7181
11.6953
11.6736
11.6532
11.6338
11.6156
11.5979
11.5815
11.5654
11.5505
11.5355
11.5219
11.5079
11.4952
11.4819
11.4698
11.4567
11.4474
11.4385
11.4318
11.4226
11.4164
11.4071
11.4012
11.392
11.3864
11.3769
11.3716
11.3615
11.3561
11.3455
11.34
11.3286
11.3226
11.31
11.3029
11.288
11.2791
11.259
11.2466
11.2179
11.1929
332.728
154.222
96.4805
69.2682
53.8977
44.0103
37.2084
32.2509
28.5118
25.6165
23.3273
21.4929
20.0027
18.784
17.7742
16.9363
16.2329
15.6399
15.1372
14.709
14.3406
14.0237
13.7487
13.5094
13.2996
13.115
12.952
12.8073
12.6782
12.5627
12.459
12.3653
12.2806
12.2036
12.1336
12.0694
12.0108
11.9567
11.9071
11.8611
11.8187
11.7792
11.7427
11.7085
11.6767
11.647
11.6191
11.593
11.5684
11.5454
11.5235
11.503
11.4833
11.465
11.4471
11.4305
11.414
11.3989
11.3835
11.3695
11.3549
11.3416
11.3273
11.3169
11.3072
11.2997
11.2899
11.283
11.2731
11.2665
11.2567
11.2504
11.2402
11.2344
11.2236
11.2177
11.2064
11.2003
11.1883
11.1815
11.1683
11.1604
11.1447
11.135
11.1142
11.1006
11.071
11.0454
356.615
170.933
107.88
77.778
60.6391
49.5443
41.8607
36.2222
31.938
28.5929
25.9257
23.7681
21.9989
20.5371
19.3148
18.2899
17.422
16.6839
16.0529
15.5113
15.0426
14.6371
14.2835
13.9747
13.7031
13.4638
13.2521
13.0642
12.8965
12.7466
12.6121
12.4909
12.3816
12.2825
12.1926
12.1106
12.0358
11.9673
11.9045
11.8465
11.7933
11.7439
11.6984
11.656
11.6168
11.5802
11.5461
11.5142
11.4843
11.4564
11.4301
11.4055
11.382
11.3601
11.3389
11.3194
11.3
11.2823
11.2645
11.2482
11.2314
11.2161
11.2
11.188
11.1774
11.1687
11.1582
11.1502
11.1397
11.1322
11.1217
11.1147
11.1039
11.0974
11.0859
11.0797
11.0677
11.0611
11.0485
11.0413
11.0274
11.019
11.0027
10.9924
10.9712
10.9568
10.9272
10.901
380.144
188.511
120.128
87.0179
68.0108
55.6357
47.0175
40.6595
35.8017
31.9852
28.9229
26.4282
24.3678
22.6516
21.2058
19.9826
18.9386
18.0434
17.2717
16.6041
16.0222
15.5151
15.0699
14.6787
14.3329
14.0266
13.7544
13.5119
13.2948
13.1002
12.9252
12.7672
12.6245
12.495
12.3774
12.2702
12.1724
12.0828
12.0008
11.9253
11.8559
11.7918
11.7326
11.6777
11.627
11.5797
11.5357
11.4948
11.4565
11.4207
11.3872
11.3558
11.3261
11.2984
11.2719
11.2472
11.2233
11.2012
11.1794
11.1593
11.1392
11.1206
11.1017
11.0872
11.0751
11.0646
11.053
11.0434
11.0321
11.0232
11.012
11.0039
10.9924
10.9849
10.9729
10.966
10.9534
10.9464
10.9332
10.9256
10.9112
10.9027
10.886
10.8754
10.8547
10.8394
10.8148
10.7811
403.002
206.854
133.233
97.022
76.0482
62.3147
52.702
45.5789
40.1127
35.7981
32.3201
29.472
27.107
25.1252
23.446
22.0156
20.7869
19.7262
18.8053
18.003
17.2992
16.6813
16.1355
15.6526
15.223
14.8404
14.4985
14.1921
13.9166
13.6684
13.4442
13.2411
13.0569
12.8893
12.7366
12.5971
12.4695
12.3523
12.2448
12.1457
12.0545
11.9701
11.8922
11.8199
11.753
11.6906
11.6327
11.5787
11.5283
11.4813
11.4372
11.3959
11.3571
11.3207
11.2863
11.254
11.2232
11.1944
11.1667
11.1407
11.1155
11.0919
11.0686
11.0505
11.0361
11.0231
11.0097
10.9978
10.9852
10.9743
10.9621
10.9523
10.9402
10.9312
10.9189
10.9105
10.898
10.8899
10.8767
10.8685
10.8541
10.8455
10.8288
10.8183
10.7997
10.7809
10.7641
10.7263
424.801
225.799
147.175
107.814
84.7844
69.6132
58.9412
51.0019
44.8869
40.0425
36.1235
32.9019
30.2164
27.9558
26.0326
24.3857
22.9644
21.7309
20.6542
19.7108
18.879
18.1441
17.4914
16.9106
16.3911
15.9258
15.5076
15.1309
14.7905
14.4822
14.2024
13.9478
13.7159
13.504
13.3101
13.1322
12.969
12.8186
12.6802
12.5523
12.4342
12.3246
12.2233
12.129
12.0414
11.9598
11.8839
11.8129
11.7466
11.6846
11.6265
11.572
11.5209
11.4729
11.4277
11.3851
11.3449
11.307
11.271
11.237
11.2046
11.174
11.1445
11.1212
11.1035
11.0868
11.0707
11.0557
11.0409
11.0273
11.0135
11.001
10.9879
10.9764
10.9638
10.953
10.9407
10.9301
10.9179
10.907
10.8945
10.8826
10.8693
10.8549
10.8409
10.8205
10.806
10.7697
445.071
245.108
161.898
119.4
94.2449
77.5612
65.7633
56.9527
50.1438
44.7333
40.3439
36.7249
33.6996
31.1445
28.9641
27.0902
25.4672
24.0533
22.8142
21.7238
20.7586
19.9019
19.1377
18.4544
17.8408
17.2885
16.7899
16.3386
15.929
15.5565
15.2168
14.9065
14.6225
14.362
14.1227
13.9023
13.6993
13.5117
13.3383
13.1776
13.0286
12.8901
12.7615
12.6416
12.5299
12.4256
12.3282
12.237
12.1518
12.0717
11.9967
11.9262
11.8601
11.7977
11.7391
11.6838
11.6316
11.5824
11.5359
11.4919
11.4503
11.4107
11.3732
11.3435
11.3213
11.3001
11.2803
11.2613
11.2435
11.2264
11.2102
11.1948
11.1799
11.1657
11.1519
11.1387
11.1257
11.1131
11.1006
11.0882
11.0759
11.0629
11.0504
11.0357
11.0229
11.0042
10.9937
10.9549
463.245
264.448
177.297
131.758
104.441
86.1811
73.1932
63.4545
55.9038
49.8872
44.9944
40.9509
37.5631
34.6949
32.242
30.128
28.2926
26.6892
25.28
24.0361
22.9319
21.9483
21.0683
20.2787
19.5673
18.9246
18.3424
17.8136
17.3319
16.8922
16.4901
16.1212
15.7826
15.4708
15.1835
14.918
14.6726
14.4451
14.2342
14.0381
13.8558
13.6858
13.5275
13.3795
13.2413
13.1119
12.9908
12.8771
12.7705
12.6703
12.5763
12.4877
12.4044
12.3258
12.2518
12.1819
12.116
12.0537
11.9949
11.9392
11.8867
11.8368
11.7897
11.7525
11.7248
11.6984
11.6738
11.6505
11.6286
11.6077
11.5882
11.5695
11.5519
11.535
11.519
11.5036
11.489
11.4748
11.4611
11.4476
11.4345
11.4212
11.4085
11.3945
11.3823
11.3657
11.3592
11.3123
478.642
283.381
193.199
144.828
115.361
95.4819
81.2471
70.5256
62.1842
55.5195
50.0877
45.5897
41.8145
38.6121
35.8686
33.4998
31.4393
29.6356
28.0473
26.6419
25.392
24.2759
23.2751
22.3747
21.5617
20.8254
20.1566
19.5474
18.9913
18.4822
18.0154
17.5861
17.1909
16.8261
16.489
16.1768
15.8873
15.6184
15.3684
15.1354
14.9183
14.7154
14.5259
14.3484
14.1823
14.0263
13.8801
13.7426
13.6134
13.4918
13.3773
13.2694
13.1677
13.0716
12.981
12.8954
12.8145
12.7381
12.6658
12.5974
12.5329
12.4716
12.4138
12.3683
12.3343
12.3023
12.2723
12.2439
12.2174
12.1923
12.1688
12.1466
12.1256
12.1058
12.0871
12.0694
12.0525
12.0366
12.0212
12.0066
11.9924
11.9788
11.9655
11.9523
11.9401
11.9259
11.9214
11.8684
490.444
301.356
209.347
158.497
126.961
105.45
89.9257
78.1725
68.9934
61.6388
55.6316
50.6477
46.4582
42.8988
39.8454
37.2051
34.9052
32.8891
31.1111
29.5354
28.1319
26.8766
25.7491
24.7329
23.8138
22.9799
22.2211
21.5287
20.8954
20.3146
19.7809
19.2893
18.8358
18.4164
18.0281
17.6678
17.3331
17.0216
16.7314
16.4606
16.2076
15.9709
15.7493
15.5415
15.3466
15.1634
14.9913
14.8292
14.6767
14.5328
14.3973
14.2692
14.1485
14.0343
13.9264
13.8244
13.7279
13.6366
13.5503
13.4686
13.3913
13.3181
13.2489
13.1946
13.154
13.1158
13.08
13.0463
13.0147
12.9851
12.9572
12.9311
12.9065
12.8834
12.8616
12.8412
12.822
12.8039
12.7867
12.7706
12.7552
12.7408
12.727
12.714
12.7017
12.6892
12.6841
12.6312
497.606
317.698
225.374
172.582
139.146
116.037
99.2038
86.3817
76.3241
68.2405
61.6226
56.1219
51.4911
47.5513
44.1678
41.2386
38.6841
36.4424
34.4634
32.7075
31.1418
29.7397
28.479
27.3413
26.3111
25.3752
24.5225
23.7434
23.0298
22.3746
21.7717
21.2156
20.7019
20.2262
19.7852
19.3755
18.9943
18.6391
18.3077
17.9981
17.7084
17.4371
17.1828
16.944
16.7197
16.5087
16.3101
16.1229
15.9466
15.7801
15.623
15.4745
15.3342
15.2015
15.076
14.9572
14.8448
14.7383
14.6375
14.5421
14.4517
14.3662
14.2852
14.2218
14.1743
14.1296
14.0877
14.0485
14.0116
13.9771
13.9446
13.9143
13.8858
13.8592
13.8342
13.8108
13.7889
13.7684
13.7492
13.7313
13.7145
13.6989
13.6842
13.6708
13.6581
13.6461
13.64
13.5894
499.06
331.61
240.8
186.816
151.764
127.149
109.018
95.1083
84.1421
75.2973
68.0377
61.9918
56.8945
52.5521
48.8189
45.5837
42.7598
40.2795
38.088
36.1418
34.4051
32.8485
31.4477
30.1825
29.0357
27.993
27.0422
26.1727
25.3756
24.643
23.9682
23.3454
22.7694
22.2356
21.7401
21.2794
20.8505
20.4503
20.0767
19.7273
19.4001
19.0934
18.8056
18.5351
18.2808
18.0414
17.8159
17.6033
17.4027
17.2132
17.0342
16.8649
16.7048
16.5533
16.4099
16.2741
16.1454
16.0235
15.9079
15.7985
15.6949
15.5967
15.5038
15.4309
15.3762
15.3249
15.2768
15.2317
15.1893
15.1497
15.1125
15.0777
15.0451
15.0146
14.9862
14.9596
14.9348
14.9117
14.8901
14.8702
14.8516
14.8345
14.8185
14.804
14.7905
14.7781
14.7702
14.7239
493.419
342.177
255.035
200.839
164.58
138.623
119.25
104.26
92.3721
82.7456
74.8215
68.2081
62.6235
57.8599
53.7601
50.204
47.0976
44.367
41.9528
39.8072
37.8914
36.1731
34.6259
33.2274
31.9592
30.8053
29.7524
28.7889
27.9051
27.0922
26.3431
25.6511
25.0108
24.417
23.8655
23.3524
22.8743
22.4281
22.0111
21.6209
21.2553
20.9124
20.5904
20.2877
20.0028
19.7345
19.4817
19.2431
19.0178
18.8049
18.6037
18.4134
18.2332
18.0626
17.901
17.7479
17.6027
17.4652
17.3347
17.2111
17.0939
16.9829
16.8777
16.7952
16.7332
16.6751
16.6205
16.5693
16.5213
16.4764
16.4342
16.3948
16.3579
16.3234
16.2912
16.2612
16.2332
16.2072
16.183
16.1606
16.1398
16.1207
16.103
16.0869
16.0719
16.0592
16.0418
16.0074
479.135
348.384
267.41
214.197
177.268
150.212
129.702
113.674
100.877
90.4658
81.8681
74.6757
68.5916
63.3947
58.9173
55.0302
51.632
48.6428
45.9985
43.647
41.5462
39.661
37.9627
36.4269
35.0334
33.765
32.6071
31.547
30.574
29.6789
28.8534
28.0907
27.3845
26.7294
26.1206
25.554
25.0258
24.5326
24.0715
23.6399
23.2353
22.8556
22.4989
22.1635
21.8477
21.5501
21.2695
21.0047
20.7546
20.5181
20.2945
20.0828
19.8824
19.6926
19.5127
19.3421
19.1804
19.027
18.8815
18.7435
18.6127
18.4886
18.371
18.2787
18.2093
18.1441
18.083
18.0256
17.9717
17.9213
17.874
17.8297
17.7882
17.7495
17.7133
17.6796
17.6481
17.6189
17.5917
17.5665
17.5432
17.5216
17.5016
17.4832
17.4662
17.451
17.4334
17.4014
454.715
349.476
277.273
226.367
189.399
161.56
140.073
123.091
109.428
98.2549
88.995
81.2285
74.6464
69.0161
64.1598
59.9399
56.248
52.9984
50.122
47.563
45.2756
43.2221
41.3714
39.6973
38.1776
36.7938
35.5301
34.3728
33.3102
32.3323
31.4303
30.5964
29.8242
29.1076
28.4414
27.8212
27.2428
26.7026
26.1975
25.7244
25.2809
24.8645
24.4733
24.1052
23.7586
23.432
23.1238
22.8329
22.558
22.2981
22.0522
21.8194
21.5989
21.39
21.1919
21.004
20.8258
20.6566
20.4962
20.3438
20.1994
20.0622
19.9323
19.83
19.7531
19.6809
19.6131
19.5494
19.4896
19.4335
19.3809
19.3316
19.2854
19.2422
19.2019
19.1641
19.129
19.0962
19.0656
19.0372
19.0107
18.9861
18.9633
18.942
18.9225
18.904
18.8872
18.8562
419.254
345.106
284.15
236.799
200.434
172.168
149.914
132.108
117.662
105.784
95.9025
87.592
80.5349
74.4891
69.2686
64.728
60.7527
57.2513
54.1505
51.3905
48.9225
46.7061
44.7078
42.8995
41.2576
39.7622
38.396
37.1446
35.9953
34.9373
33.9612
33.0586
32.2225
31.4465
30.7249
30.053
29.4262
28.8407
28.2931
27.7801
27.299
26.8474
26.4228
26.0234
25.6472
25.2925
24.9579
24.6418
24.3432
24.0608
23.7935
23.5404
23.3006
23.0733
22.8577
22.6531
22.459
22.2747
22.0998
21.9337
21.776
21.6262
21.4842
21.3723
21.2881
21.2089
21.1345
21.0646
20.9988
20.9371
20.8792
20.8248
20.7739
20.7261
20.6813
20.6394
20.6002
20.5635
20.5292
20.4971
20.4671
20.4391
20.413
20.3886
20.3659
20.3443
20.3265
20.296
374.06
336.35
288.048
244.999
209.715
181.356
158.571
140.113
125.016
112.535
102.113
93.3246
85.8472
79.4323
73.8869
69.0594
64.8301
61.103
57.8006
54.86
52.2295
49.8665
47.7353
45.8064
44.0545
42.4584
41.0001
39.6639
38.4366
37.3065
36.2637
35.2994
34.4058
33.5763
32.805
32.0865
31.4163
30.7901
30.2042
29.6554
29.1407
28.6573
28.203
27.7753
27.3725
26.9928
26.6344
26.2959
25.9759
25.6733
25.3868
25.1155
24.8583
24.6145
24.3832
24.1637
23.9553
23.7573
23.5693
23.3906
23.221
23.0596
22.9067
22.7859
22.6949
22.6094
22.5288
22.4531
22.3818
22.3148
22.2518
22.1926
22.137
22.0847
22.0356
21.9895
21.9462
21.9056
21.8675
21.8318
21.7982
21.7667
21.7372
21.7095
21.6835
21.659
21.6367
21.6088
337.768
323.15
289.63
249.935
215.651
187.387
164.332
145.484
129.975
117.103
106.325
97.2193
89.461
82.7981
77.0338
72.0127
67.6116
63.7314
60.2924
57.2292
54.4884
52.0257
49.8044
47.7934
45.9667
44.3023
42.7813
41.3875
40.1071
38.928
37.8399
36.8335
35.9009
35.0351
34.2299
33.4799
32.7801
32.1262
31.5145
30.9413
30.4037
29.8988
29.4242
28.9774
28.5566
28.1598
27.7852
27.4314
27.097
26.7807
26.4812
26.1974
25.9285
25.6735
25.4315
25.2017
24.9835
24.7762
24.5793
24.3919
24.214
24.0447
23.884
23.757
23.6612
23.5711
23.4862
23.4062
23.3308
23.2599
23.1931
23.1302
23.0709
23.0151
22.9626
22.9131
22.8666
22.8227
22.7814
22.7425
22.7059
22.6714
22.6389
22.6082
22.5793
22.552
22.5263
22.4994
318.661
314.487
290.555
252.207
218.431
190.244
167.08
148.055
132.354
119.299
108.352
99.0947
91.202
84.4203
78.551
73.4368
68.9531
64.9994
61.4946
58.3724
55.5786
53.0679
50.8031
48.7526
46.8899
45.1925
43.6413
42.2198
40.9139
39.7112
38.6013
37.5746
36.6233
35.74
34.9185
34.1532
33.4392
32.7721
32.1478
31.563
31.0144
30.4991
30.0147
29.5588
29.1292
28.7241
28.3418
27.9806
27.6391
27.316
27.0101
26.7202
26.4453
26.1845
25.937
25.7018
25.4784
25.2659
25.0639
24.8716
24.6887
24.5143
24.3487
24.2174
24.1184
24.0249
23.9368
23.8536
23.7751
23.7011
23.6311
23.5652
23.5029
23.4441
23.3886
23.3362
23.2867
23.24
23.1959
23.1542
23.1148
23.0776
23.0424
23.0091
22.9776
22.9477
22.9195
22.8921
319.594
315.036
290.705
252.304
218.497
190.29
167.114
148.081
132.375
119.316
108.366
99.1068
91.2125
84.4295
78.5591
73.4441
68.9597
65.0053
61.5001
58.3774
55.5832
53.0723
50.8072
48.7564
46.8935
45.196
43.6446
42.223
40.9169
39.7141
38.604
37.5773
36.6259
35.7425
34.9209
34.1556
33.4415
32.7743
32.15
31.5651
31.0164
30.5011
30.0166
29.5606
29.131
28.7259
28.3435
27.9822
27.6406
27.3174
27.0113
26.7213
26.4463
26.1853
25.9375
25.7021
25.4784
25.2656
25.0632
24.8704
24.687
24.512
24.3457
24.2138
24.1142
24.0202
23.9315
23.8476
23.7685
23.6937
23.6231
23.5564
23.4933
23.4337
23.3773
23.3241
23.2737
23.2261
23.181
23.1384
23.0981
23.0599
23.0237
22.9894
22.9569
22.9261
22.8968
22.8695
340.263
324.559
290.069
250.221
215.843
187.522
164.433
145.562
130.037
117.154
106.368
97.2552
89.492
82.8252
77.0577
72.0341
67.6309
63.7489
60.3085
57.244
54.5022
52.0386
49.8164
47.8047
45.9774
44.3124
42.7909
41.3967
40.116
38.9366
37.8481
36.8414
35.9086
35.0425
34.2371
33.4869
32.7869
32.1328
31.5209
30.9476
30.4098
29.9048
29.4299
28.983
28.562
28.1649
27.7901
27.436
27.1013
26.7845
26.4845
26.2001
25.9305
25.6746
25.4316
25.2006
24.9811
24.7722
24.5734
24.384
24.2037
24.0316
23.8679
23.7379
23.6397
23.547
23.4593
23.3765
23.2982
23.2241
23.1541
23.0879
23.0252
22.966
22.9099
22.8568
22.8065
22.7589
22.7138
22.6711
22.6306
22.5922
22.5559
22.5213
22.4886
22.4575
22.4279
22.401
377.066
337.806
288.825
245.526
210.108
181.663
158.821
140.321
125.192
112.688
102.247
93.4431
85.9534
79.5283
73.9744
69.1398
64.9045
61.172
57.8652
54.9206
52.2867
49.9206
47.7868
45.8554
44.1014
42.5033
41.0433
39.7055
38.4767
37.3453
36.3013
35.3358
34.4412
33.6108
32.8386
32.1193
31.4483
30.8213
30.2348
29.6854
29.17
28.686
28.2311
27.8029
27.3994
27.019
26.66
26.3208
26.0001
25.6966
25.4091
25.1367
24.8784
24.6331
24.4002
24.1788
23.9683
23.7679
23.5772
23.3953
23.2221
23.0567
22.8992
22.774
22.6794
22.59
22.5055
22.4255
22.3498
22.2782
22.2105
22.1463
22.0856
22.028
21.9736
21.9219
21.873
21.8266
21.7827
21.741
21.7015
21.6639
21.6283
21.5946
21.5625
21.532
21.5028
21.4769
420.905
346.507
285.284
237.775
201.28
172.901
150.554
132.669
118.158
106.227
96.3012
87.9534
80.8648
74.7923
69.549
64.9885
60.9961
57.4797
54.3658
51.594
49.1157
46.8899
44.8834
43.0675
41.4189
39.9172
38.5455
37.2889
36.135
35.0726
34.0925
33.1862
32.3467
31.5675
30.843
30.1683
29.5389
28.951
28.4011
27.886
27.4029
26.9493
26.5229
26.1217
25.7437
25.3873
25.051
24.7333
24.4329
24.1486
23.8794
23.6242
23.3823
23.1525
22.9344
22.7269
22.5296
22.3418
22.1629
21.9924
21.8298
21.6745
21.5264
21.4088
21.3198
21.2357
21.1561
21.0807
21.0094
20.9419
20.8779
20.8173
20.7599
20.7055
20.6539
20.605
20.5587
20.5147
20.473
20.4334
20.3959
20.3602
20.3264
20.2943
20.2637
20.2348
20.2068
20.1831
455.395
350.942
278.84
227.854
190.744
162.752
141.128
124.026
110.261
99.0028
89.671
81.8437
75.21
69.5355
64.6413
60.3883
56.6678
53.3928
50.4942
47.9153
45.6104
43.541
41.6762
39.9891
38.4578
37.0634
35.79
34.6238
33.5531
32.5677
31.6587
30.8185
30.0403
29.3181
28.6469
28.0218
27.439
26.8946
26.3854
25.9087
25.4616
25.0419
24.6475
24.2763
23.9268
23.5973
23.2863
22.9926
22.715
22.4523
22.2035
21.9677
21.7441
21.5319
21.3303
21.1386
20.9563
20.7827
20.6173
20.4596
20.3092
20.1655
20.0284
19.9195
19.8371
19.7591
19.6853
19.6154
19.5492
19.4865
19.4271
19.3708
19.3175
19.2669
19.2189
19.1734
19.1303
19.0893
19.0505
19.0136
18.9786
18.9454
18.9139
18.8839
18.8554
18.8286
18.8021
18.7813
479.374
350.156
269.509
216.228
179.114
151.852
131.153
114.961
102.025
91.4972
82.8014
75.5257
69.3709
64.1135
59.5839
55.6514
52.2137
49.1897
46.5146
44.1358
42.0106
40.1035
38.3855
36.8318
35.4222
34.1389
32.9675
31.895
30.9107
30.005
29.1699
28.3982
27.6837
27.0208
26.4048
25.8314
25.2969
24.7978
24.3311
23.8942
23.4847
23.1003
22.7392
22.3995
22.0796
21.7781
21.4937
21.2251
20.9712
20.7311
20.5037
20.2883
20.084
19.89
19.7059
19.5308
19.3642
19.2056
19.0545
18.9104
18.773
18.6416
18.5162
18.4166
18.3413
18.2699
18.2024
18.1384
18.0779
18.0205
17.9661
17.9145
17.8656
17.8192
17.7752
17.7335
17.6939
17.6564
17.6207
17.5869
17.5548
17.5243
17.4953
17.4679
17.4417
17.4174
17.3924
17.3743
493.677
344.484
257.737
203.413
166.896
140.668
121.053
105.855
93.7944
84.0222
75.9763
69.2598
63.5878
58.7492
54.5849
50.9727
47.8174
45.0435
42.5912
40.4117
38.4656
36.72
35.1483
33.7275
32.4391
31.2667
30.197
29.2179
28.3198
27.4938
26.7325
26.0293
25.3784
24.7749
24.2143
23.6927
23.2066
22.7529
22.3289
21.9321
21.5602
21.2114
20.8837
20.5757
20.2857
20.0125
19.7548
19.5116
19.2817
19.0644
18.8586
18.6638
18.479
18.3037
18.1372
17.9789
17.8284
17.6851
17.5486
17.4184
17.2942
17.1756
17.0622
16.9722
16.9041
16.8397
16.7787
16.7209
16.6661
16.6142
16.565
16.5184
16.4742
16.4323
16.3925
16.3547
16.3189
16.285
16.2527
16.2221
16.193
16.1655
16.1393
16.1146
16.0906
16.0691
16.0458
16.0303
499.695
334.609
244.128
189.899
154.496
129.54
111.117
96.96
85.7897
76.7746
69.3731
63.2073
58.0086
53.5793
49.7712
46.4709
43.5903
41.0598
38.8241
36.8383
35.0664
33.4779
32.0485
30.7572
29.5868
28.5225
27.5519
26.6642
25.8503
25.1022
24.4131
23.7769
23.1885
22.6431
22.1369
21.6661
21.2277
20.8187
20.4367
20.0794
19.7447
19.4311
19.1365
18.8597
18.5993
18.3541
18.1229
17.9049
17.6988
17.5042
17.3199
17.1456
16.9802
16.8235
16.6746
16.5332
16.3987
16.2708
16.1489
16.0327
15.9219
15.8161
15.7149
15.6347
15.5739
15.5165
15.4621
15.4106
15.3617
15.3155
15.2717
15.2301
15.1907
15.1533
15.1178
15.0842
15.0523
15.0221
14.9933
14.9661
14.9402
14.9158
14.8922
14.8706
14.8488
14.8303
14.8088
14.7958
498.87
321.473
229.304
176.115
142.228
118.711
101.538
88.435
78.1477
69.8734
63.0975
57.4633
52.7201
48.6837
45.2171
42.2156
39.5979
37.3004