/*--------------------------------*- C++ -*----------------------------------*\
| =========                 |                                                 |
| \\      /  F ield         | OpenFOAM: The Open Source CFD Toolbox           |
|  \\    /   O peration     | Version:  2306                                  |
|   \\  /    A nd           | Website:  www.openfoam.com                      |
|    \\/     M anipulation  |                                                 |
\*---------------------------------------------------------------------------*/
FoamFile
{
    version     2.0;
    format      ascii;
    arch        "LSB;label=32;scalar=64";
    class       volScalarField;
    location    "1600";
    object      nut;
}
// * * * * * * * * * * * * * * * * * * * * * * * * * * * * * * * * * * * * * //

dimensions      [0 2 -1 0 0 0 0];

internalField   nonuniform List<scalar> 
20540
(
0.27732
0.323074
0.277318
0.323172
0.277321
0.323303
0.277324
0.323463
0.277326
0.323653
0.277329
0.323879
0.277331
0.324149
0.277331
0.324471
0.277328
0.324857
0.277319
0.32532
0.2773
0.325878
0.277265
0.326551
0.277205
0.327361
0.277106
0.328335
0.276949
0.329503
0.276704
0.3309
0.27633
0.332559
0.275765
0.334517
0.274921
0.336804
0.273674
0.339439
0.271847
0.342418
0.269191
0.345698
0.265355
0.349167
0.259853
0.352596
0.252005
0.35557
0.240876
0.357373
0.22519
0.356791
0.203239
0.351771
0.172897
0.339006
0.13232
0.314124
0.0948869
0.274811
0.0689791
0.245452
0.0708036
0.246525
0.0983268
0.277249
0.135805
0.314995
0.174342
0.338816
0.203377
0.351312
0.224558
0.356449
0.239807
0.3572
0.250691
0.355527
0.258398
0.352615
0.263812
0.349179
0.267581
0.345643
0.270177
0.342248
0.271945
0.339124
0.27313
0.336327
0.27391
0.333871
0.274411
0.331745
0.274723
0.329923
0.274908
0.328375
0.27501
0.327067
0.275058
0.325966
0.275072
0.325044
0.275068
0.324273
0.275052
0.323628
0.275032
0.323089
0.275011
0.322639
0.27499
0.322262
0.274972
0.321946
0.274957
0.32168
0.274944
0.321455
0.274935
0.321266
0.274927
0.321107
0.274923
0.320975
0.27492
0.320879
6.72651e-07
2.23496e-07
1.76308e-07
1.47322e-07
1.31984e-07
1.19396e-07
1.10687e-07
1.03402e-07
9.76231e-08
9.27466e-08
8.86312e-08
8.50922e-08
8.20199e-08
7.93372e-08
7.69614e-08
7.48586e-08
7.298e-08
7.12916e-08
6.97697e-08
6.83939e-08
6.71414e-08
6.59997e-08
6.49545e-08
6.39965e-08
6.31148e-08
6.23011e-08
6.15491e-08
6.08524e-08
6.02055e-08
5.96039e-08
5.90436e-08
5.85204e-08
5.80315e-08
5.75738e-08
5.71451e-08
5.67428e-08
5.6365e-08
5.60097e-08
5.56757e-08
5.53612e-08
5.50652e-08
5.47866e-08
5.45246e-08
5.42784e-08
5.40475e-08
5.38317e-08
5.36305e-08
5.34444e-08
5.32732e-08
5.31178e-08
5.29782e-08
5.28563e-08
5.27522e-08
5.26685e-08
5.26059e-08
5.25676e-08
5.2555e-08
5.25712e-08
5.26208e-08
5.27058e-08
5.28334e-08
5.30067e-08
5.32377e-08
5.34806e-08
5.37019e-08
5.39476e-08
5.42233e-08
5.45291e-08
5.48644e-08
5.52317e-08
5.56336e-08
5.60709e-08
5.65503e-08
5.70665e-08
5.76357e-08
5.82408e-08
5.89193e-08
5.96176e-08
6.04524e-08
6.12346e-08
6.23442e-08
6.31755e-08
6.4787e-08
6.57643e-08
6.7924e-08
7.02553e-08
7.04103e-08
8.10754e-08
1.59025e-05
3.51624e-06
2.4729e-06
2.00138e-06
1.7588e-06
1.57348e-06
1.44416e-06
1.33878e-06
1.25499e-06
1.18497e-06
1.12599e-06
1.07548e-06
1.03174e-06
9.93659e-07
9.60001e-07
9.30283e-07
9.03779e-07
8.8e-07
8.58605e-07
8.39293e-07
8.21735e-07
8.05754e-07
7.91142e-07
7.77766e-07
7.65468e-07
7.54132e-07
7.43666e-07
7.33979e-07
7.24993e-07
7.16643e-07
7.08873e-07
7.01623e-07
6.94854e-07
6.88521e-07
6.82593e-07
6.77033e-07
6.71815e-07
6.66909e-07
6.62299e-07
6.57959e-07
6.53874e-07
6.50027e-07
6.46407e-07
6.43e-07
6.39799e-07
6.36797e-07
6.33987e-07
6.31371e-07
6.28942e-07
6.2671e-07
6.24669e-07
6.2284e-07
6.21217e-07
6.1983e-07
6.18678e-07
6.17798e-07
6.17195e-07
6.16901e-07
6.16975e-07
6.1739e-07
6.18241e-07
6.19566e-07
6.21457e-07
6.23508e-07
6.25446e-07
6.27656e-07
6.3012e-07
6.3287e-07
6.35892e-07
6.39218e-07
6.4284e-07
6.46786e-07
6.51058e-07
6.55684e-07
6.60688e-07
6.66118e-07
6.71992e-07
6.78304e-07
6.85424e-07
6.92436e-07
7.01877e-07
7.08712e-07
7.22883e-07
7.29479e-07
7.52382e-07
7.53134e-07
8.08096e-07
6.87917e-07
0.000106162
3.41817e-05
2.54e-05
2.18861e-05
2.00527e-05
1.86657e-05
1.76574e-05
1.68157e-05
1.61235e-05
1.55296e-05
1.50159e-05
1.45659e-05
1.41678e-05
1.38145e-05
1.34967e-05
1.32118e-05
1.29539e-05
1.27195e-05
1.2506e-05
1.23112e-05
1.21322e-05
1.19678e-05
1.18162e-05
1.16762e-05
1.15466e-05
1.14262e-05
1.13144e-05
1.12102e-05
1.11131e-05
1.10223e-05
1.09374e-05
1.08579e-05
1.07833e-05
1.07132e-05
1.06473e-05
1.05853e-05
1.05269e-05
1.04718e-05
1.04199e-05
1.03709e-05
1.03246e-05
1.02809e-05
1.02396e-05
1.02007e-05
1.0164e-05
1.01295e-05
1.00971e-05
1.00669e-05
1.00387e-05
1.00126e-05
9.98865e-06
9.96702e-06
9.94763e-06
9.93083e-06
9.91657e-06
9.90529e-06
9.89698e-06
9.89192e-06
9.89092e-06
9.89342e-06
9.90044e-06
9.91256e-06
9.93052e-06
9.95033e-06
9.96932e-06
9.99121e-06
1.00156e-05
1.00428e-05
1.00727e-05
1.01057e-05
1.01414e-05
1.01803e-05
1.0222e-05
1.02673e-05
1.03154e-05
1.03687e-05
1.0424e-05
1.0486e-05
1.05517e-05
1.062e-05
1.07072e-05
1.07695e-05
1.09056e-05
1.0953e-05
1.11952e-05
1.11083e-05
1.18382e-05
1.00205e-05
0.000306339
0.000102548
6.98449e-05
5.90129e-05
5.40989e-05
5.09588e-05
4.88135e-05
4.71239e-05
4.57667e-05
4.4623e-05
4.36419e-05
4.27863e-05
4.20309e-05
4.13605e-05
4.07564e-05
4.0214e-05
3.97217e-05
3.92728e-05
3.8863e-05
3.84878e-05
3.8142e-05
3.78234e-05
3.75286e-05
3.72558e-05
3.70024e-05
3.67664e-05
3.65466e-05
3.63414e-05
3.61495e-05
3.59698e-05
3.58014e-05
3.56432e-05
3.54945e-05
3.53545e-05
3.52227e-05
3.50984e-05
3.49812e-05
3.48704e-05
3.47658e-05
3.46668e-05
3.45732e-05
3.44847e-05
3.4401e-05
3.43218e-05
3.42471e-05
3.41765e-05
3.41101e-05
3.40478e-05
3.39893e-05
3.39351e-05
3.38847e-05
3.38388e-05
3.37969e-05
3.37599e-05
3.37274e-05
3.37003e-05
3.36785e-05
3.36624e-05
3.36532e-05
3.3651e-05
3.36553e-05
3.36686e-05
3.36918e-05
3.37189e-05
3.37459e-05
3.37782e-05
3.38145e-05
3.38556e-05
3.39007e-05
3.3951e-05
3.40052e-05
3.40651e-05
3.41276e-05
3.41984e-05
3.42683e-05
3.43541e-05
3.44312e-05
3.4535e-05
3.46234e-05
3.47383e-05
3.48648e-05
3.49589e-05
3.51924e-05
3.5222e-05
3.57049e-05
3.52719e-05
3.7204e-05
3.30969e-05
0.000632845
0.000233125
0.000147125
0.000117216
0.00010418
9.68679e-05
9.22622e-05
8.89331e-05
8.64058e-05
8.43662e-05
8.26726e-05
8.12294e-05
7.99785e-05
7.88834e-05
7.7906e-05
7.70366e-05
7.6252e-05
7.55401e-05
7.48931e-05
7.43026e-05
7.37595e-05
7.32604e-05
7.27992e-05
7.23733e-05
7.19779e-05
7.161e-05
7.12678e-05
7.09484e-05
7.06498e-05
7.03704e-05
7.01086e-05
6.98626e-05
6.96316e-05
6.94141e-05
6.92095e-05
6.90164e-05
6.88342e-05
6.86621e-05
6.84996e-05
6.83459e-05
6.82005e-05
6.80628e-05
6.79326e-05
6.78094e-05
6.76928e-05
6.75828e-05
6.74788e-05
6.73812e-05
6.72892e-05
6.72035e-05
6.71233e-05
6.70497e-05
6.69817e-05
6.69206e-05
6.68656e-05
6.68184e-05
6.6778e-05
6.67455e-05
6.67213e-05
6.67078e-05
6.67027e-05
6.67079e-05
6.67262e-05
6.67517e-05
6.67787e-05
6.68126e-05
6.6852e-05
6.68979e-05
6.69482e-05
6.70063e-05
6.70679e-05
6.7139e-05
6.72095e-05
6.7297e-05
6.73722e-05
6.74849e-05
6.75634e-05
6.77062e-05
6.77936e-05
6.79551e-05
6.80988e-05
6.82217e-05
6.85484e-05
6.85698e-05
6.9276e-05
6.85566e-05
7.1362e-05
6.74652e-05
0.00110298
0.000449696
0.000277878
0.000209936
0.00017892
0.000162202
0.000152153
0.000145374
0.000140499
0.000136759
0.000133789
0.000131341
0.000129282
0.000127521
0.000125976
0.000124626
0.000123423
0.000122342
0.000121369
0.000120487
0.000119681
0.000118945
0.000118267
0.000117644
0.000117067
0.000116532
0.000116035
0.000115573
0.000115141
0.000114738
0.000114361
0.000114007
0.000113675
0.000113363
0.00011307
0.000112793
0.000112532
0.000112286
0.000112053
0.000111833
0.000111625
0.000111428
0.000111242
0.000111066
0.000110899
0.000110742
0.000110593
0.000110452
0.00011032
0.000110196
0.00011008
0.000109973
0.000109872
0.000109782
0.000109698
0.000109626
0.000109561
0.000109507
0.000109463
0.000109432
0.000109412
0.000109406
0.000109412
0.000109432
0.000109456
0.000109489
0.000109528
0.000109576
0.000109628
0.000109692
0.000109758
0.000109839
0.000109915
0.000110021
0.000110099
0.000110244
0.000110324
0.000110509
0.000110605
0.000110823
0.000110989
0.00011118
0.000111583
0.000111668
0.000112542
0.000111798
0.00011488
0.000109032
0.00174449
0.000773307
0.000485743
0.000356596
0.000292606
0.000257321
0.000236201
0.000222377
0.000212762
0.00020569
0.00020027
0.000195958
0.000192448
0.000189531
0.000187031
0.000184896
0.000183027
0.000181374
0.000179907
0.000178595
0.000177407
0.000176331
0.000175348
0.000174452
0.000173627
0.000172865
0.000172162
0.00017151
0.000170904
0.00017034
0.000169813
0.00016932
0.000168859
0.000168426
0.00016802
0.000167638
0.000167278
0.000166939
0.000166619
0.000166317
0.000166032
0.000165761
0.000165506
0.000165265
0.000165036
0.000164821
0.000164616
0.000164424
0.000164242
0.000164072
0.000163911
0.000163763
0.000163623
0.000163497
0.000163379
0.000163275
0.00016318
0.0001631
0.00016303
0.000162979
0.000162939
0.00016292
0.000162915
0.000162926
0.000162948
0.000162979
0.000163017
0.000163068
0.000163123
0.000163197
0.000163271
0.000163368
0.000163455
0.000163588
0.000163676
0.000163859
0.000163965
0.000164201
0.000164341
0.000164624
0.000164854
0.000165141
0.000165634
0.000165837
0.000166846
0.000166401
0.000169383
0.000160872
0.00259619
0.00122729
0.000795759
0.000580821
0.000465451
0.000398293
0.000357052
0.000329971
0.0003113
0.000297837
0.000287738
0.000279924
0.000273715
0.000268689
0.00026448
0.00026097
0.000257959
0.000255343
0.000253064
0.000251056
0.000249261
0.000247657
0.000246208
0.000244899
0.000243705
0.000242612
0.00024161
0.000240687
0.000239833
0.000239043
0.000238309
0.000237625
0.000236988
0.000236392
0.000235835
0.000235312
0.000234821
0.000234359
0.000233925
0.000233515
0.000233129
0.000232765
0.000232421
0.000232095
0.000231788
0.000231498
0.000231224
0.000230966
0.000230721
0.000230493
0.000230277
0.000230078
0.000229889
0.000229718
0.000229557
0.000229416
0.000229284
0.000229173
0.000229073
0.000228999
0.000228936
0.000228903
0.000228883
0.000228896
0.000228916
0.00022895
0.00022899
0.00022905
0.000229115
0.000229206
0.0002293
0.00022942
0.000229534
0.000229703
0.000229831
0.000230066
0.000230227
0.000230523
0.000230752
0.000231098
0.000231471
0.000231852
0.0002325
0.000232801
0.0002341
0.000233789
0.00023691
0.00022591
0.00370885
0.00184087
0.00123506
0.000909763
0.000722649
0.000607294
0.000533408
0.000483685
0.000449008
0.000423999
0.000405344
0.000391093
0.000379924
0.000371035
0.000363736
0.000357745
0.000352704
0.000348395
0.000344703
0.000341504
0.000338686
0.0003362
0.000333983
0.000332005
0.00033022
0.000328601
0.000327133
0.000325789
0.000324557
0.000323426
0.000322382
0.000321415
0.000320518
0.000319684
0.000318909
0.000318184
0.000317506
0.00031687
0.000316276
0.000315716
0.000315191
0.000314695
0.000314229
0.00031379
0.000313376
0.000312985
0.000312616
0.000312271
0.000311943
0.000311638
0.000311348
0.000311082
0.00031083
0.000310602
0.000310385
0.000310197
0.000310019
0.000309872
0.000309735
0.000309635
0.000309546
0.000309501
0.000309468
0.00030949
0.000309508
0.00030956
0.000309602
0.000309689
0.000309774
0.000309897
0.000310026
0.00031018
0.000310348
0.000310562
0.000310763
0.00031107
0.000311308
0.000311702
0.000312043
0.000312487
0.000313043
0.000313537
0.000314382
0.000314849
0.000316461
0.000316531
0.000319571
0.000306526
0.00514707
0.00265117
0.00183541
0.00137395
0.00109388
0.000912238
0.000790493
0.000705663
0.000645044
0.000600678
0.000567312
0.000541805
0.000521863
0.00050609
0.000493272
0.000482847
0.000474178
0.000466873
0.000460685
0.000455389
0.000450787
0.000446775
0.000443239
0.000440123
0.000437339
0.000434841
0.000432598
0.000430564
0.000428715
0.000427031
0.00042549
0.000424072
0.000422767
0.00042156
0.000420445
0.000419408
0.000418444
0.000417544
0.000416706
0.000415921
0.000415187
0.000414498
0.000413852
0.000413244
0.000412674
0.000412138
0.000411632
0.00041116
0.000410713
0.000410299
0.000409905
0.000409545
0.000409203
0.000408896
0.000408604
0.000408352
0.00040811
0.000407915
0.000407731
0.000407599
0.000407481
0.000407422
0.000407379
0.000407418
0.00040744
0.000407523
0.000407575
0.000407708
0.000407812
0.000407995
0.000408162
0.000408398
0.000408617
0.000408934
0.000409196
0.000409638
0.000409944
0.000410522
0.000410967
0.000411595
0.000412349
0.000412971
0.000414156
0.000414813
0.000416749
0.000417265
0.000420481
0.00040529
0.00699183
0.0037051
0.00263532
0.0020087
0.00161369
0.00134619
0.00115986
0.00102509
0.000925858
0.00085153
0.000794628
0.000750641
0.000715998
0.00068851
0.000666195
0.000648075
0.000633075
0.000620526
0.000609962
0.000600991
0.00059326
0.000586585
0.000580754
0.000575656
0.000571146
0.000567134
0.000563563
0.00056035
0.000557454
0.000554838
0.000552461
0.00055029
0.000548306
0.000546482
0.000544809
0.000543262
0.000541832
0.000540505
0.000539276
0.000538129
0.000537062
0.000536064
0.000535134
0.000534261
0.000533446
0.000532682
0.000531964
0.000531297
0.000530665
0.000530083
0.000529531
0.000529028
0.000528549
0.000528123
0.000527717
0.000527368
0.000527034
0.000526767
0.000526515
0.000526334
0.000526177
0.000526098
0.000526045
0.000526104
0.000526135
0.00052626
0.000526331
0.000526529
0.000526669
0.000526934
0.000527161
0.0005275
0.000527801
0.000528254
0.000528603
0.000529234
0.000529617
0.000530456
0.000530971
0.000531908
0.000532816
0.000533668
0.000535224
0.000536153
0.000538381
0.000539402
0.000543573
0.000525288
0.0093437
0.0050614
0.00368191
0.00285621
0.00232202
0.00194821
0.00167905
0.00147804
0.00132552
0.00120823
0.00111637
0.0010441
0.00098635
0.000940047
0.000902202
0.000871316
0.000845685
0.000824252
0.000806224
0.000790946
0.000777827
0.000766553
0.000756754
0.000748225
0.000740724
0.000734094
0.000728221
0.000722979
0.000718279
0.000714056
0.000710244
0.000706782
0.000703638
0.000700765
0.000698143
0.000695732
0.000693512
0.000691466
0.000689579
0.000687826
0.000686204
0.000684693
0.00068329
0.000681979
0.000680759
0.00067962
0.000678554
0.000677565
0.000676633
0.000675775
0.000674965
0.000674228
0.000673529
0.000672908
0.000672317
0.00067181
0.000671324
0.000670937
0.000670573
0.000670307
0.000670084
0.000669959
0.000669888
0.000669957
0.000670001
0.00067017
0.00067027
0.000670542
0.000670736
0.000671098
0.000671415
0.000671875
0.000672296
0.000672909
0.000673389
0.000674248
0.000674746
0.000675911
0.000676524
0.000677859
0.000678937
0.00068014
0.000682058
0.000683298
0.000685919
0.000687394
0.00069233
0.000671104
0.0123263
0.00679315
0.00503285
0.00396736
0.00326628
0.0027636
0.0023924
0.00210752
0.00188543
0.00171067
0.00157029
0.00145765
0.00136598
0.00129135
0.0012296
0.00117869
0.0011361
0.00110029
0.00107005
0.00104434
0.00102224
0.00100324
0.000986747
0.000972396
0.000959801
0.000948701
0.000938891
0.000930169
0.000922373
0.00091539
0.000909111
0.000903431
0.000898292
0.000893616
0.000889362
0.000885467
0.000881899
0.000878618
0.000875603
0.000872815
0.000870243
0.000867856
0.000865646
0.00086359
0.000861681
0.000859905
0.000858249
0.000856713
0.00085527
0.000853945
0.000852698
0.000851564
0.000850491
0.000849537
0.000848631
0.000847847
0.000847103
0.000846503
0.000845938
0.000845511
0.000845163
0.000844929
0.00084481
0.000844853
0.000844904
0.000845099
0.000845236
0.000845574
0.000845843
0.0008463
0.000846744
0.000847323
0.000847919
0.000848697
0.000849373
0.000850468
0.000851163
0.000852663
0.000853473
0.000855216
0.000856571
0.000858155
0.000860527
0.000862112
0.000865249
0.000867188
0.000873005
0.000848715
0.0160904
0.00899083
0.00675835
0.00540365
0.00450315
0.00384599
0.00335154
0.00296387
0.00265514
0.00240643
0.00220285
0.00203605
0.00189765
0.00178308
0.0016868
0.00160639
0.00153828
0.0014805
0.00143128
0.00138915
0.00135273
0.0013213
0.00129392
0.00127004
0.00124904
0.00123052
0.00121414
0.00119959
0.00118659
0.00117495
0.0011645
0.00115506
0.00114653
0.00113878
0.00113174
0.00112532
0.00111944
0.00111405
0.0011091
0.00110454
0.00110034
0.00109645
0.00109286
0.00108953
0.00108644
0.00108356
0.00108089
0.00107842
0.0010761
0.00107397
0.00107197
0.00107015
0.00106843
0.00106689
0.00106544
0.00106416
0.00106296
0.00106198
0.00106104
0.00106031
0.00105971
0.00105925
0.00105901
0.00105893
0.00105897
0.00105913
0.00105931
0.00105967
0.00106003
0.00106055
0.00106116
0.00106184
0.00106267
0.00106359
0.00106454
0.00106585
0.00106687
0.00106865
0.00106984
0.0010719
0.00107374
0.00107567
0.00107863
0.00108058
0.00108442
0.00108675
0.00109382
0.00106567
0.0208168
0.0117657
0.00894333
0.00723912
0.00610047
0.00525903
0.00461727
0.00410586
0.00369178
0.00335197
0.0030691
0.00283285
0.00263379
0.00246611
0.00232288
0.00220164
0.00209744
0.00200803
0.00193106
0.00186449
0.00180647
0.00175605
0.00171184
0.00167305
0.00163879
0.00160846
0.00158155
0.00155757
0.0015361
0.00151686
0.00149955
0.0014839
0.00146976
0.00145691
0.00144523
0.00143456
0.00142482
0.00141587
0.00140768
0.00140012
0.00139317
0.00138673
0.0013808
0.00137529
0.00137019
0.00136545
0.00136105
0.00135696
0.00135316
0.00134964
0.00134635
0.00134333
0.0013405
0.00133794
0.00133554
0.0013334
0.00133142
0.00132972
0.00132811
0.00132682
0.00132572
0.00132481
0.00132427
0.00132392
0.00132388
0.00132389
0.00132409
0.00132436
0.00132484
0.00132533
0.00132615
0.00132685
0.00132797
0.00132899
0.00133031
0.00133178
0.00133326
0.00133523
0.00133701
0.0013393
0.00134183
0.00134407
0.00134778
0.00135012
0.00135487
0.00135751
0.0013664
0.00133337
0.0267197
0.0152539
0.0116898
0.00956248
0.00813917
0.00707824
0.00626124
0.00560229
0.00506203
0.00461226
0.00423281
0.0039111
0.00363608
0.00340082
0.00319724
0.00302257
0.00287017
0.00273791
0.00262272
0.00252193
0.00243319
0.00235542
0.00228663
0.00222582
0.0021717
0.00212355
0.00208056
0.00204208
0.00200747
0.00197632
0.00194819
0.00192271
0.00189961
0.00187858
0.00185943
0.00184191
0.00182589
0.00181116
0.00179764
0.00178517
0.00177368
0.00176304
0.00175322
0.0017441
0.00173566
0.00172781
0.00172052
0.00171373
0.00170743
0.00170156
0.00169611
0.00169106
0.00168636
0.00168204
0.00167803
0.0016744
0.00167103
0.00166807
0.00166535
0.00166305
0.00166095
0.00165927
0.00165807
0.00165716
0.00165691
0.00165657
0.0016567
0.00165672
0.00165727
0.0016576
0.00165861
0.00165925
0.00166067
0.00166172
0.00166347
0.00166504
0.00166709
0.0016692
0.00167173
0.00167421
0.00167759
0.00168018
0.00168477
0.00168758
0.00169343
0.00169636
0.00170752
0.0016689
0.0340466
0.0196202
0.0151193
0.0124792
0.0107152
0.00939283
0.00836764
0.00753346
0.00684323
0.00626239
0.00576729
0.00534265
0.00497543
0.00465742
0.00437916
0.0041371
0.0039237
0.00373637
0.00357141
0.00342531
0.0032954
0.00318054
0.00307792
0.00298643
0.00290433
0.00283077
0.00276465
0.00270506
0.00265115
0.00260238
0.0025581
0.00251781
0.00248113
0.00244762
0.00241697
0.00238885
0.00236305
0.00233928
0.00231741
0.00229719
0.00227854
0.00226123
0.00224522
0.00223033
0.00221652
0.00220365
0.0021917
0.00218054
0.00217017
0.00216049
0.00215149
0.00214311
0.00213533
0.00212811
0.00212143
0.00211529
0.00210962
0.00210452
0.00209985
0.00209579
0.00209214
0.00208906
0.00208651
0.00208471
0.00208389
0.00208296
0.00208278
0.00208232
0.00208279
0.00208279
0.00208388
0.00208434
0.00208601
0.002087
0.00208919
0.00209081
0.00209349
0.00209574
0.0020991
0.00210182
0.00210618
0.00210921
0.00211486
0.00211827
0.00212552
0.00212883
0.00214304
0.00209693
0.0430747
0.0250624
0.0193745
0.0161133
0.0139414
0.0123074
0.0110348
0.00999273
0.00912476
0.00838858
0.00775632
0.00720932
0.00673216
0.00631498
0.00594677
0.0056229
0.00533507
0.00507962
0.00485237
0.00464939
0.00446707
0.00430462
0.00415798
0.00402615
0.0039068
0.00379919
0.00370171
0.00361318
0.00353257
0.00345923
0.00339218
0.00333088
0.00327481
0.00322329
0.00317597
0.00313237
0.0030922
0.00305506
0.00302077
0.00298894
0.00295949
0.00293209
0.00290668
0.00288296
0.00286094
0.00284035
0.00282121
0.00280328
0.0027866
0.00277097
0.00275645
0.00274283
0.0027302
0.00271839
0.00270748
0.00269734
0.00268801
0.00267943
0.00267164
0.00266458
0.0026584
0.00265299
0.00264821
0.00264484
0.00264298
0.00264104
0.00264016
0.00263891
0.00263899
0.00263841
0.0026394
0.00263948
0.00264133
0.0026421
0.00264476
0.00264628
0.00264975
0.00265205
0.00265643
0.00265944
0.00266495
0.00266862
0.00267551
0.00267975
0.00268888
0.00269208
0.00271013
0.00265611
0.0541013
0.0318143
0.024621
0.0206097
0.0179488
0.015943
0.0143761
0.0130874
0.012009
0.0110891
0.0102948
0.0096033
0.00899632
0.00846187
0.00798714
0.00756603
0.00718939
0.00685233
0.00654997
0.00627802
0.00603189
0.00581041
0.00560927
0.00542707
0.00526069
0.00510989
0.00497221
0.00484621
0.00473077
0.00462512
0.00452787
0.00443856
0.00435638
0.00428045
0.00421037
0.00414548
0.00408544
0.00402968
0.00397799
0.00392983
0.0038851
0.00384334
0.00380448
0.0037681
0.00373422
0.00370243
0.00367279
0.00364494
0.00361899
0.00359457
0.00357184
0.00355044
0.00353058
0.00351189
0.00349462
0.00347843
0.00346356
0.0034497
0.00343714
0.00342552
0.00341527
0.00340615
0.00339799
0.00339203
0.00338848
0.00338483
0.00338274
0.00338011
0.00337942
0.00337776
0.00337841
0.00337767
0.00337957
0.00337979
0.00338287
0.00338406
0.00338834
0.00339045
0.00339608
0.00339902
0.00340625
0.00340987
0.0034191
0.00342315
0.00343524
0.00343849
0.00345928
0.00339814
0.0674226
0.0401466
0.0310458
0.026135
0.022888
0.0204384
0.0185209
0.0169392
0.0156112
0.0144741
0.0134886
0.0126271
0.0118675
0.0111953
0.0105956
0.0100604
0.00957937
0.00914634
0.00875541
0.00840184
0.00808005
0.00778825
0.00752184
0.00727899
0.0070561
0.00685236
0.00666536
0.0064934
0.00633485
0.00618891
0.00605369
0.00592915
0.0058138
0.00570664
0.00560727
0.00551485
0.00542894
0.00534884
0.00527423
0.00520445
0.00513942
0.00507847
0.00502155
0.00496807
0.0049181
0.00487107
0.00482709
0.00478563
0.00474689
0.00471032
0.0046762
0.00464394
0.00461395
0.0045856
0.00455935
0.00453459
0.00451183
0.00449042
0.00447101
0.00445284
0.00443678
0.00442197
0.00440898
0.00439911
0.00439313
0.00438687
0.00438293
0.00437822
0.00437619
0.00437301
0.00437273
0.00437101
0.00437239
0.00437204
0.00437507
0.00437603
0.00438073
0.00438294
0.00438945
0.00439278
0.00440134
0.00440561
0.00441667
0.00442155
0.00443598
0.0044402
0.00446426
0.00439463
0.0832992
0.0503643
0.0388536
0.0328779
0.0289287
0.0259488
0.0236131
0.0216829
0.0200589
0.0186648
0.0174538
0.0163921
0.0154534
0.01462
0.0138743
0.013206
0.0126034
0.0120587
0.0115648
0.0111161
0.0107063
0.0103325
0.0099898
0.00967587
0.00938668
0.0091207
0.00887542
0.00864892
0.0084391
0.00824501
0.00806457
0.0078972
0.00774167
0.00759667
0.00746157
0.00733541
0.00721764
0.00710743
0.0070043
0.00690756
0.00681714
0.00673206
0.00665228
0.00657712
0.00650665
0.00644013
0.00637774
0.00631877
0.00626348
0.00621115
0.00616218
0.00611577
0.00607248
0.00603144
0.00599332
0.00595724
0.00592395
0.00589255
0.0058639
0.00583713
0.00581276
0.00579026
0.00577104
0.00575583
0.00574628
0.00573665
0.00572975
0.00572251
0.00571809
0.0057131
0.00571102
0.00570812
0.00570829
0.00570734
0.0057097
0.00571057
0.00571514
0.00571773
0.00572461
0.00572876
0.00573821
0.00574366
0.00575614
0.00576245
0.00577894
0.00578447
0.00581183
0.00573118
0.101902
0.0627723
0.0482847
0.041048
0.036258
0.0326445
0.0298094
0.0274642
0.0254886
0.0237902
0.0223129
0.0210157
0.0198671
0.0188452
0.0179293
0.0171062
0.0163626
0.0156887
0.0150758
0.0145174
0.0140061
0.013538
0.0131075
0.0127117
0.0123462
0.0120086
0.0116961
0.0114066
0.0111375
0.0108876
0.0106547
0.0104376
0.0102352
0.0100459
0.00986899
0.0097032
0.00954791
0.00940211
0.00926532
0.00913657
0.00901573
0.00890179
0.00879467
0.00869347
0.00859829
0.00850823
0.00842351
0.00834326
0.00826779
0.00819622
0.00812902
0.00806525
0.00800553
0.00794885
0.00789599
0.0078459
0.00779944
0.00775557
0.00771525
0.00767739
0.00764321
0.00761105
0.00758318
0.00756159
0.00754714
0.00753342
0.00752244
0.00751202
0.00750431
0.00749698
0.00749236
0.0074879
0.00748621
0.00748442
0.00748555
0.00748626
0.00749018
0.00749321
0.00750001
0.00750513
0.00751502
0.0075219
0.00753534
0.00754339
0.00756138
0.00756866
0.00759814
0.00750738
0.123238
0.0776383
0.0596105
0.0508709
0.0450754
0.0407046
0.0372727
0.0344331
0.0320396
0.0299809
0.0281894
0.0266152
0.0252206
0.0239784
0.0228644
0.0218619
0.0209551
0.0201322
0.0193824
0.0186981
0.0180705
0.0174946
0.0169641
0.016475
0.0160226
0.0156036
0.0152148
0.0148537
0.0145174
0.0142041
0.0139116
0.0136381
0.0133825
0.0131429
0.0129183
0.0127073
0.0125092
0.0123228
0.0121475
0.0119821
0.0118265
0.0116794
0.0115408
0.0114096
0.0112859
0.0111687
0.0110581
0.0109532
0.0108543
0.0107603
0.0106719
0.0105878
0.0105089
0.0104339
0.0103637
0.0102971
0.0102351
0.0101765
0.0101224
0.0100715
0.0100252
0.0099819
0.00994335
0.00991415
0.00989371
0.009875
0.00985904
0.00984464
0.00983288
0.00982253
0.00981472
0.00980812
0.00980402
0.00980092
0.00980035
0.0098005
0.00980335
0.00980652
0.00981278
0.00981868
0.00982851
0.00983669
0.00985048
0.0098602
0.0098788
0.0098881
0.0099174
0.0098218
0.147032
0.095144
0.0731081
0.062576
0.0555813
0.050307
0.0461619
0.0427334
0.0398437
0.0373587
0.0351968
0.0332975
0.031615
0.0301162
0.0287721
0.0275618
0.0264667
0.0254724
0.0245658
0.0237374
0.0229774
0.0222789
0.0216348
0.0210402
0.0204895
0.0199788
0.0195042
0.0190627
0.0186509
0.0182666
0.0179073
0.0175708
0.0172556
0.0169598
0.016682
0.0164207
0.0161748
0.0159431
0.0157248
0.0155186
0.015324
0.01514
0.0149662
0.0148016
0.0146459
0.0144983
0.0143588
0.0142263
0.014101
0.013982
0.0138697
0.0137629
0.0136622
0.0135667
0.0134768
0.0133918
0.0133121
0.0132369
0.013167
0.0131014
0.013041
0.0129851
0.0129343
0.0128962
0.0128689
0.0128442
0.0128225
0.0128032
0.0127867
0.0127725
0.0127609
0.0127514
0.0127444
0.0127393
0.0127365
0.0127354
0.0127367
0.0127394
0.0127445
0.0127506
0.0127596
0.0127687
0.0127816
0.0127931
0.0128104
0.0128221
0.0128498
0.0127538
0.172677
0.115304
0.089026
0.0763717
0.0679566
0.061608
0.0566124
0.0524839
0.0490062
0.0460185
0.0434216
0.041142
0.0391243
0.0373276
0.0357174
0.0342678
0.0329565
0.0317659
0.0306804
0.0296882
0.0287778
0.0279406
0.0271685
0.026455
0.0257941
0.0251807
0.0246102
0.0240789
0.0235832
0.0231199
0.0226865
0.0222803
0.0218993
0.0215414
0.0212049
0.0208881
0.0205897
0.0203082
0.0200426
0.0197916
0.0195544
0.0193299
0.0191175
0.0189162
0.0187257
0.0185449
0.0183736
0.0182109
0.0180569
0.0179105
0.0177719
0.0176403
0.0175159
0.0173978
0.0172864
0.017181
0.0170819
0.0169885
0.016901
0.0168193
0.0167434
0.0166731
0.0166088
0.0165604
0.0165254
0.0164938
0.0164655
0.0164405
0.0164186
0.0163996
0.0163835
0.0163702
0.0163595
0.0163514
0.0163458
0.0163425
0.0163415
0.0163426
0.016346
0.0163511
0.0163586
0.0163672
0.0163785
0.01639
0.0164054
0.0164177
0.0164427
0.0163516
0.199055
0.137848
0.10753
0.092398
0.0823231
0.0747061
0.0687021
0.0637461
0.059576
0.0559992
0.0528951
0.0501741
0.0477691
0.0456295
0.0437142
0.0419912
0.0404337
0.0390203
0.0377324
0.0365553
0.0354756
0.0344829
0.0335674
0.0327214
0.0319376
0.03121
0.0305332
0.0299027
0.0293143
0.0287642
0.0282493
0.0277665
0.0273135
0.0268877
0.0264872
0.0261099
0.0257543
0.0254187
0.0251018
0.0248022
0.0245189
0.0242506
0.0239966
0.0237558
0.0235276
0.0233109
0.0231055
0.0229104
0.0227253
0.0225495
0.0223828
0.0222245
0.0220744
0.0219322
0.0217976
0.0216702
0.0215501
0.0214369
0.0213306
0.0212311
0.0211383
0.0210523
0.020973
0.0209132
0.0208695
0.0208299
0.0207943
0.0207624
0.0207341
0.0207093
0.0206878
0.0206696
0.0206544
0.0206421
0.0206326
0.0206258
0.0206215
0.0206197
0.0206201
0.0206227
0.0206274
0.0206339
0.0206425
0.0206522
0.0206644
0.0206765
0.0206883
0.0206151
0.224476
0.162089
0.128605
0.110638
0.0986736
0.0895793
0.0823933
0.0764706
0.0714948
0.0672367
0.0635489
0.0603226
0.0574762
0.0549478
0.0526877
0.0506569
0.0488231
0.0471605
0.0456467
0.044264
0.0429967
0.0418318
0.0407581
0.0397661
0.0388473
0.0379946
0.0372016
0.0364628
0.0357733
0.0351288
0.0345254
0.0339598
0.0334289
0.0329298
0.0324603
0.032018
0.031601
0.0312073
0.0308355
0.030484
0.0301514
0.0298364
0.0295381
0.0292552
0.0289869
0.0287322
0.0284906
0.028261
0.0280431
0.0278361
0.0276396
0.0274529
0.0272758
0.0271078
0.0269486
0.0267979
0.0266555
0.0265212
0.0263947
0.026276
0.026165
0.0260617
0.0259661
0.0258934
0.0258401
0.0257914
0.0257473
0.0257074
0.0256716
0.0256397
0.0256116
0.0255871
0.025566
0.0255481
0.0255334
0.0255215
0.0255124
0.0255059
0.0255019
0.0255001
0.0255005
0.0255029
0.0255072
0.0255128
0.0255206
0.0255283
0.0255377
0.0254734
0.246671
0.186982
0.151798
0.130829
0.116752
0.105975
0.0974343
0.0904075
0.0845156
0.0794873
0.0751437
0.0713528
0.0680157
0.065057
0.0624169
0.0600482
0.0579122
0.0559776
0.0542182
0.0526124
0.0511419
0.0497912
0.048547
0.0473981
0.0463345
0.0453478
0.0444306
0.0435763
0.0427793
0.0420344
0.0413372
0.0406837
0.0400704
0.039494
0.0389518
0.038441
0.0379594
0.0375048
0.0370755
0.0366695
0.0362854
0.0359216
0.035577
0.0352502
0.0349402
0.034646
0.0343666
0.0341013
0.0338493
0.0336098
0.0333823
0.0331662
0.032961
0.0327662
0.0325814
0.0324063
0.0322405
0.0320839
0.0319361
0.031797
0.0316666
0.0315446
0.0314312
0.0313443
0.0312801
0.0312212
0.0311672
0.031118
0.0310733
0.031033
0.0309967
0.0309644
0.0309358
0.0309106
0.0308888
0.0308701
0.0308543
0.0308413
0.0308308
0.0308227
0.0308168
0.0308129
0.0308109
0.0308103
0.030812
0.0308127
0.0308218
0.0307646
0.262891
0.210911
0.176046
0.152228
0.135838
0.123223
0.113195
0.10496
0.0980695
0.0922071
0.0871576
0.0827623
0.0789028
0.0754882
0.0724471
0.0697231
0.0672703
0.0650517
0.0630364
0.0611989
0.0595177
0.0579748
0.0565546
0.055244
0.0540315
0.0529072
0.0518626
0.0508901
0.0499832
0.0491359
0.0483431
0.0476002
0.0469032
0.0462483
0.0456322
0.0450521
0.0445052
0.0439891
0.0435016
0.0430408
0.0426048
0.0421919
0.0418008
0.0414299
0.0410781
0.0407441
0.040427
0.0401258
0.0398396
0.0395676
0.0393091
0.0390633
0.0388298
0.038608
0.0383974
0.0381975
0.0380081
0.0378286
0.037659
0.0374988
0.0373481
0.0372063
0.0370739
0.0369714