/*--------------------------------*- C++ -*----------------------------------*\
| =========                 |                                                 |
| \\      /  F ield         | OpenFOAM: The Open Source CFD Toolbox           |
|  \\    /   O peration     | Version:  2306                                  |
|   \\  /    A nd           | Website:  www.openfoam.com                      |
|    \\/     M anipulation  |                                                 |
\*---------------------------------------------------------------------------*/
FoamFile
{
    version     2.0;
    format      ascii;
    arch        "LSB;label=32;scalar=64";
    class       volScalarField;
    location    "1600";
    object      omega;
}
// * * * * * * * * * * * * * * * * * * * * * * * * * * * * * * * * * * * * * //

dimensions      [0 0 -1 0 0 0 0];

internalField   nonuniform List<scalar> 
20540
(
1830.86
2513.01
1830.79
2512.2
1830.44
2510.97
1829.8
2509.35
1828.83
2507.28
1827.44
2504.68
1825.56
2501.45
1823.09
2497.43
1819.9
2492.46
1815.84
2486.33
1810.72
2478.79
1804.34
2469.51
1796.43
2458.13
1786.68
2444.19
1774.71
2427.15
1760.07
2406.36
1742.23
2381.07
1720.56
2350.38
1694.35
2313.28
1662.75
2268.6
1624.84
2215.1
1579.58
2151.43
1525.91
2076.25
1462.72
1988.34
1389
1886.74
1303.87
1771.07
1206.64
1641.8
1096.75
1500.84
973.323
1351.7
833.862
1196.97
697.242
1064.03
604.207
980.296
610.385
985.619
711.718
1074.13
848.025
1207.41
984.086
1357.81
1105.06
1502.12
1213.11
1638.12
1309
1763.08
1393.26
1875.2
1466.51
1974.02
1529.56
2059.87
1583.36
2133.59
1628.93
2196.32
1667.3
2249.3
1699.43
2293.75
1726.23
2330.88
1748.5
2361.77
1766.94
2387.37
1782.17
2408.55
1794.7
2426.02
1804.99
2440.4
1813.4
2452.24
1820.25
2461.96
1825.79
2469.93
1830.25
2476.47
1833.81
2481.82
1836.61
2486.19
1838.8
2489.76
1840.46
2492.67
1841.69
2495.03
1842.56
2496.94
1843.13
2498.46
1843.45
2499.64
1843.56
2500.44
7.14188e+06
7.11644e+06
7.11378e+06
7.11214e+06
7.11127e+06
7.11056e+06
7.11007e+06
7.10966e+06
7.10933e+06
7.10905e+06
7.10882e+06
7.10862e+06
7.10845e+06
7.1083e+06
7.10816e+06
7.10804e+06
7.10794e+06
7.10784e+06
7.10776e+06
7.10768e+06
7.10761e+06
7.10754e+06
7.10748e+06
7.10743e+06
7.10738e+06
7.10733e+06
7.10729e+06
7.10725e+06
7.10722e+06
7.10718e+06
7.10715e+06
7.10712e+06
7.10709e+06
7.10707e+06
7.10704e+06
7.10702e+06
7.107e+06
7.10698e+06
7.10696e+06
7.10694e+06
7.10693e+06
7.10691e+06
7.1069e+06
7.10688e+06
7.10687e+06
7.10686e+06
7.10685e+06
7.10683e+06
7.10683e+06
7.10682e+06
7.10681e+06
7.1068e+06
7.1068e+06
7.10679e+06
7.10679e+06
7.10679e+06
7.10678e+06
7.10679e+06
7.10679e+06
7.10679e+06
7.1068e+06
7.10681e+06
7.10682e+06
7.10684e+06
7.10685e+06
7.10686e+06
7.10688e+06
7.1069e+06
7.10692e+06
7.10694e+06
7.10696e+06
7.10698e+06
7.10701e+06
7.10704e+06
7.10707e+06
7.10711e+06
7.10715e+06
7.10719e+06
7.10724e+06
7.10728e+06
7.10734e+06
7.10739e+06
7.10748e+06
7.10754e+06
7.10767e+06
7.1078e+06
7.10777e+06
7.10856e+06
1.36451e+06
1.38591e+06
1.37222e+06
1.35023e+06
1.33597e+06
1.3228e+06
1.31302e+06
1.30446e+06
1.2974e+06
1.29126e+06
1.28594e+06
1.28126e+06
1.27712e+06
1.27345e+06
1.27014e+06
1.26717e+06
1.26449e+06
1.26205e+06
1.25983e+06
1.2578e+06
1.25594e+06
1.25423e+06
1.25265e+06
1.2512e+06
1.24985e+06
1.2486e+06
1.24743e+06
1.24635e+06
1.24534e+06
1.24439e+06
1.24351e+06
1.24268e+06
1.2419e+06
1.24117e+06
1.24049e+06
1.23984e+06
1.23923e+06
1.23866e+06
1.23812e+06
1.23761e+06
1.23712e+06
1.23667e+06
1.23624e+06
1.23584e+06
1.23546e+06
1.2351e+06
1.23477e+06
1.23446e+06
1.23417e+06
1.23391e+06
1.23368e+06
1.23347e+06
1.23329e+06
1.23314e+06
1.23303e+06
1.23295e+06
1.23291e+06
1.23292e+06
1.23298e+06
1.2331e+06
1.23329e+06
1.23354e+06
1.23388e+06
1.23424e+06
1.23456e+06
1.23493e+06
1.23533e+06
1.23578e+06
1.23628e+06
1.23681e+06
1.2374e+06
1.23803e+06
1.23872e+06
1.23945e+06
1.24025e+06
1.24109e+06
1.24204e+06
1.24298e+06
1.24414e+06
1.24515e+06
1.24665e+06
1.24771e+06
1.24961e+06
1.25112e+06
1.25275e+06
1.25689e+06
1.25498e+06
1.27865e+06
486638
530217
554044
552884
549010
543187
538257
533521
529391
525657
522318
519310
516590
514130
511884
509839
507967
506246
504662
503203
501852
500601
499438
498358
497351
496411
495533
494710
493940
493216
492537
491898
491296
490728
490193
489688
489210
488759
488332
487928
487546
487185
486844
486521
486218
485932
485665
485417
485187
484976
484786
484617
484471
484350
484256
484192
484160
484166
484209
484298
484441
484635
484898
485178
485434
485715
486024
486366
486739
487141
487579
488046
488556
489090
489682
490275
490968
491594
492419
493034
494023
494642
495639
496694
496803
499775
495696
513700
253026
254003
275444
282684
284699
283692
282167
280275
278432
276659
275006
273478
272069
270778
269588
268496
267490
266561
265703
264911
264175
263493
262858
262267
261715
261200
260718
260267
259844
259446
259073
258721
258390
258078
257783
257505
257242
256994
256758
256536
256325
256126
255938
255760
255592
255435
255287
255149
255021
254903
254797
254701
254618
254548
254492
254451
254427
254423
254438
254475
254540
254631
254755
254889
255012
255148
255295
255457
255633
255823
256029
256245
256483
256723
256999
257252
257575
257820
258200
258419
258830
259048
259345
259765
259635
260377
259615
263162
160535
145253
155702
163050
166987
168164
168326
167857
167146
166331
165485
164655
163855
163099
162388
161723
161103
160525
159987
159486
159019
158583
158176
157797
157441
157109
156797
156505
156230
155972
155729
155501
155285
155082
154889
154708
154536
154374
154220
154075
153937
153807
153683
153567
153456
153353
153255
153164
153078
152999
152927
152862
152803
152752
152710
152676
152652
152639
152637
152646
152670
152708
152764
152825
152882
152948
153018
153095
153178
153267
153364
153463
153574
153679
153807
153909
154056
154145
154308
154378
154528
154582
154656
154717
154681
154437
154968
151836
112983
94567.4
97151.3
101803
105517
107497
108528
108888
108889
108685
108356
107973
107560
107142
106731
106331
105948
105583
105238
104912
104605
104316
104044
103789
103548
103322
103109
102909
102720
102542
102374
102216
102066
101924
101791
101664
101544
101430
101323
101221
101124
101032
100945
100863
100785
100712
100642
100577
100515
100458
100405
100357
100312
100273
100238
100209
100185
100167
100156
100151
100154
100164
100184
100207
100229
100256
100285
100317
100352
100388
100428
100467
100512
100550
100599
100630
100681
100703
100745
100755
100771
100754
100727
100648
100606
100224
100495
100858
84340.8
67181.3
65668.7
67645.9
70188
72057.8
73343.8
74111.5
74531.4
74716.4
74740.6
74669.5
74530.2
74352.3
74154.3
73943.1
73728.2
73515.3
73306.1
73103.3
72908
72721
72542.5
72372.5
72211
72057.6
71912.2
71774.3
71643.7
71519.9
71402.6
71291.4
71186
71086
70991.2
70901.2
70815.8
70734.7
70657.7
70584.5
70515
70448.9
70386.2
70326.7
70270.1
70216.5
70165.8
70117.7
70072.5
70029.9
69990.1
69952.9
69918.6
69887
69858.5
69832.9
69810.7
69791.5
69776.4
69764.1
69756.1
69751
69751.1
69753.2
69756.2
69762.1
69768.4
69776
69783.8
69792
69800.5
69807.6
69815.9
69818.9
69826.6
69823.1
69822.5
69809.5
69795.7
69771.2
69727.7
69683.5
69604.5
69500.9
69407.4
69113.1
68977.2
70751.6
65290.8
50559.1
47233.6
47440.4
48721.4
50043.2
51166.7
52006.8
52600
52995.2
53238
53372.5
53425.4
53420.9
53380.1
53309.4
53220.7
53121.8
53015.4
52905.4
52794.4
52684.2
52576
52470.2
52367.7
52268.7
52173.5
52082.1
51994.6
51910.9
51830.9
51754.5
51681.6
51612.1
51545.9
51482.6
51422.4
51365
51310.3
51258.1
51208.3
51160.9
51115.7
51072.7
51031.7
50992.6
50955.5
50920.1
50886.6
50854.8
50824.7
50796.3
50769.6
50744.5
50721.2
50699.4
50679.4
50660.9
50644.6
50629.2
50616.1
50603.5
50593.1
50584.5
50577.5
50571.6
50565.7
50559.9
50553.3
50546.4
50538.2
50528.8
50518
50503.7
50489.5
50467.4
50445.9
50414.7
50377.8
50340.6
50273
50222.8
50122.1
50039.4
49883.3
49756.3
49398.3
51165.7
51763.6
39557.2
35606.6
34814.2
35164.5
35865
36633.4
37327.2
37902.7
38354.7
38695.5
38943.3
39115.4
39227.3
39295.6
39327.6
39333.1
39320.7
39293.1
39254.9
39209.5
39159.4
39106.2
39050.9
38994.6
38938.4
38882.5
38827.6
38773.9
38721.6
38670.7
38621.5
38574
38528.2
38484
38441.6
38400.9
38361.8
38324.3
38288.3
38253.8
38220.8
38189.1
38158.8
38129.7
38101.9
38075.3
38049.8
38025.5
38002.1
37979.8
37958.4
37938
37918.4
37899.7
37881.7
37864.6
37847.9
37832.1
37816.3
37801.2
37785.6
37770.3
37756.7
37745
37733.3
37721.4
37708.7
37695.1
37680.6
37664.4
37647
37627.4
37605
37581.7
37551.5
37522.5
37483.6
37440.7
37398.6
37327.9
37279.3
37177.2
37109.5
36948.8
36870.4
36546.9
37867.2
41714.3
31796.8
27797.1
26515.3
26284.5
26486.9
26885.3
27341
27783.7
28180.3
28519.8
28799
29022.9
29196.8
29330.8
29429.6
29500.2
29549.2
29579.8
29596.1
29601.1
29597.7
29587.8
29572.4
29553.1
29531
29506.7
29481.3
29454.8
29427.7
29400.5
29373.2
29346.2
29319.5
29293.4
29267.7
29242.8
29218.5
29194.8
29171.9
29149.8
29128.3
29107.6
29087.5
29068.1
29049.4
29031.4
29013.9
28997
28980.6
28964.8
28949.4
28934.4
28919.6
28905.3
28890.9
28876.9
28862.7
28848.5
28833.8
28818.9
28803
28786.2
28770.9
28757.7
28743.8
28729.4
28714
28697.6
28680.2
28660.9
28640.6
28617.9
28592.9
28567
28534.6
28504.8
28464
28423.9
28380
28316.6
28272.4
28178.6
28122
27983.3
27918.8
27662.1
28584.2
34004.1
26057.3
22277
20804.8
20248.1
20122.9
20223.7
20445.2
20716.6
20998.6
21271.3
21519
21738.1
21925.1
22083.9
22214.8
22321.6
22408.1
22476.8
22530.4
22571.5
22602.4
22624.9
22640.1
22649.5
22654.4
22655.2
22653.3
22648.8
22642.3
22634.2
22624.9
22614.7
22603.8
22592.3
22580.6
22568.7
22556.6
22544.4
22532.4
22520.4
22508.5
22496.9
22485.4
22474.1
22462.9
22452.1
22441.3
22430.8
22420.3
22410
22399.7
22389.5
22379.2
22368.8
22358.2
22347.3
22335.9
22324.1
22311.5
22298
22283.4
22267
22252.3
22239.1
22225.4
22210.6
22195.1
22178.2
22160.8
22141
22121
22098
22073.9
22048.4
22017.3
21989.7
21950.4
21916.1
21872.9
21820.8
21780.1
21699.7
21652.6
21540
21483.3
21284.8
21933.2
27947.8
21657.4
18213.1
16714.3
16000.3
15680.2
15581.7
15618.5
15732.6
15888.5
16066.8
16247.4
16423.2
16586.1
16735.2
16867.2
16983.3
17084.2
17170.8
17244.5
17306.9
17359.4
17403.4
17439.8
17469.7
17494.3
17514
17529.9
17542.4
17551.9
17559
17564
17567.3
17569.2
17569.8
17569.4
17568.2
17566.2
17563.6
17560.5
17557.1
17553.3
17549.2
17544.8
17540.3
17535.6
17530.8
17525.8
17520.7
17515.4
17509.9
17504.1
17498.2
17491.8
17485.2
17478
17470.4
17462
17452.8
17442.8
17431.4
17419.2
17404.4
17391.4
17379.3
17366.9
17353.1
17339
17323
17307.1
17288.3
17270.3
17248.6
17227.1
17203.4
17175.8
17151
17115.8
17087
17047.3
17005.4
16968.3
16903
16863.1
16774.2
16724.3
16572.1
17043.9
23107
18189.8
15122.8
13682.8
12913
12492.2
12272.9
12184.7
12180.6
12227.5
12313.7
12418
12533.7
12651.2
12767.8
12878.2
12981.6
13076.7
13162.9
13240.3
13309.6
13371
13425.3
13473
13514.8
13551.4
13583.3
13611.2
13635.4
13656.3
13674.4
13690.1
13703.6
13715.2
13725
13733.5
13740.7
13746.7
13751.8
13756
13759.4
13762.1
13764.3
13765.9
13767
13767.7
13767.9
13767.7
13767.2
13766.2
13764.9
13763.1
13760.9
13758.1
13754.8
13751
13746.3
13740.9
13734.5
13727.4
13718.4
13708.9
13696.4
13685.8
13675.3
13665
13652.7
13640.7
13626.3
13612.8
13595.8
13580.7
13560.9
13543
13521.5
13498.5
13476.2
13446.8
13421.9
13388.5
13353.8
13322.1
13269.3
13236
13166.2
13123.9
13006.2
13346.2
19187.6
15396.7
12710.7
11371.9
10604.4
10142.8
9859.47
9695.73
9611.57
9581.31
9592.28
9628.9
9685.47
9752.38
9827.31
9903.79
9981.11
10056.4
10128.4
10196.3
10259.9
10318.6
10372.7
10422.1
10467.2
10508.1
10545.2
10578.7
10609
10636.4
10661
10683.2
10703.1
10721.1
10737.3
10751.9
10765
10776.9
10787.5
10797.1
10805.7
10813.4
10820.3
10826.5
10832
10836.9
10841.1
10844.8
10848
10850.6
10852.7
10854.2
10855.1
10855.4
10855
10854.1
10852.2
10849.5
10845.8
10841.3
10834.9
10828.3
10818.3
10810.3
10801.5
10793.5
10783
10773.6
10761.1
10750.3
10735.4
10723.3
10706
10691.7
10672.6
10654.5
10634.5
10611.5
10589.1
10563
10533.3
10507.8
10465.1
10438.1
10382.6
10348.8
10255.7
10503.1
15983.6
13107.8
10788
9568.59
8835
8368.52
8058.51
7854.83
7723.03
7642.23
7600.71
7587
7594.65
7616.87
7651.79
7692.58
7739.41
7788.69
7838.81
7889
7938.44
7985.95
8031.51
8074.7
8115.51
8153.74
8189.42
8222.63
8253.5
8282.08
8308.54
8332.99
8355.56
8376.4
8395.61
8413.34
8429.69
8444.77
8458.67
8471.5
8483.32
8494.23
8504.26
8513.51
8521.99
8529.79
8536.89
8543.38
8549.21
8554.46
8559.05
8563.07
8566.41
8569.13
8571.08
8572.45
8572.81
8572.44
8571.21
8568.95
8565.05
8560.92
8553.56
8548.02
8540.97
8535.23
8526.55
8519.54
8509.03
8500.91
8488.26
8479.05
8464.21
8453.33
8436.79
8423.14
8405.31
8388.28
8368.13
8348.78
8323.15
8303.44
8268.94
8247.4
8203.14
8177.19
8102.32
8283.76
13346.5
11205.9
9228.53
8133.66
7450.28
6999.52
6685.68
6465.61
6309.33
6199.32
6124.94
6077.08
6050.15
6038.87
6041.09
6051.13
6070.03
6093.65
6120.7
6150.58
6182.25
6214.23
6246.53
6278.46
6309.86
6340.25
6369.49
6397.51
6424.27
6449.67
6473.76
6496.52
6517.97
6538.17
6557.17
6575.03
6591.79
6607.52
6622.26
6636.09
6649.03
6661.16
6672.49
6683.12
6693
6702.25
6710.81
6718.8
6726.11
6732.89
6738.99
6744.57
6749.42
6753.75
6757.27
6760.25
6762.31
6763.71
6764.03
6763.58
6762.04
6759.66
6754.85
6751.28
6745.93
6742.04
6735.16
6730.25
6721.69
6715.84
6705.43
6698.63
6686.36
6678.24
6664.36
6654.29
6638.93
6626.6
6609.02
6594.93
6573.35
6558.27
6530.7
6513.72
6478.69
6459.02
6399.44
6531.81
11165.4
9607.99
7945.36
6973.06
6347.12
5923.21
5618.97
5397.19
5231.69
5107.5
5014.98
4946.65
4897.62
4863.55
4842.43
4830.1
4826.72
4829.12
4836.11
4847.48
4862
4878.13
4896.14
4915.14
4935.01
4955.05
4975.11
4995.05
5014.74
5033.93
5052.65
5070.76
5088.19
5104.96
5121.05
5136.45
5151.15
5165.17
5178.52
5191.23
5203.29
5214.75
5225.59
5235.89
5245.58
5254.78
5263.38
5271.53
5279.07
5286.19
5292.68
5298.75
5304.14
5309.12
5313.34
5317.11
5320.05
5322.45
5323.91
5324.63
5324.31
5323.27
5320.68
5318.33
5314.63
5311.98
5306.84
5303.41
5296.78
5292.54
5284.37
5279.29
5269.56
5263.5
5252.25
5244.85
5232.11
5223.18
5208.5
5198.18
5180.58
5169.06
5147.37
5134.1
5106.84
5091.72
5046.45
5141.37
9355.88
8253.54
6876.71
6021.23
5454.85
5063.2
4775.99
4561.21
4396.03
4267.48
4166.94
4088.04
4026.5
3978.66
3942.65
3915.34
3896.29
3883.39
3875.49
3872.12
3872.6
3875.21
3880.61
3887.72
3896.55
3906.21
3916.7
3927.87
3939.5
3951.29
3963.29
3975.25
3987.09
3998.81
4010.32
4021.58
4032.55
4043.22
4053.54
4063.54
4073.17
4082.46
4091.35
4099.92
4108.07
4115.91
4123.32
4130.42
4137.06
4143.41
4149.25
4154.81
4159.8
4164.49
4168.55
4172.28
4175.29
4177.91
4179.7
4181.05
4181.28
4180.91
4179.65
4178.11
4175.63
4173.76
4170.08
4167.56
4162.64
4159.46
4153.27
4149.4
4141.93
4137.3
4128.51
4122.96
4112.84
4106.2
4094.49
4086.77
4072.92
4064.09
4047.38
4037.05
4016.43
4004.68
3971.8
4038.37
7851.96
7097.42
5977.65
5231.22
4723.67
4366.37
4099.94
3897.02
3737.79
3610.99
3508.92
3426.1
3358.75
3303.74
3259.31
3223.05
3194.21
3171.32
3153.33
3139.66
3129.86
3122.69
3118.31
3115.96
3115.78
3116.67
3118.87
3122.22
3126.43
3131.21
3136.67
3142.42
3148.47
3154.79
3161.27
3167.84
3174.44
3181.05
3187.6
3194.1
3200.48
3206.75
3212.86
3218.85
3224.62
3230.27
3235.65
3240.89
3245.83
3250.62
3255.05
3259.33
3263.19
3266.88
3270.07
3273.07
3275.49
3277.68
3279.17
3280.39
3280.74
3280.53
3279.74
3278.63
3276.84
3275.45
3272.71
3270.81
3267.1
3264.67
3259.97
3256.98
3251.29
3247.66
3240.99
3236.64
3228.92
3223.78
3214.84
3208.86
3198.38
3191.5
3179
3171.03
3155.79
3146.88
3123.77
3169.29
6601.22
6105.33
5214.83
4568.57
4117.66
3794.88
3550.77
3362.19
3212.04
3090.57
2990.96
2908.43
2839.66
2781.92
2733.6
2692.76
2658.55
2629.83
2605.72
2585.6
2569.12
2555.37
2544.29
2535.3
2528.43
2523
2518.97
2516.19
2514.5
2513.6
2513.64
2514.1
2515.14
2516.71
2518.65
2520.89
2523.39
2526.1
2528.96
2531.98
2535.04
2538.19
2541.35
2544.57
2547.72
2550.9
2553.97
2557.03
2559.94
2562.82
2565.49
2568.13
2570.48
2572.78
2574.72
2576.59
2578.03
2579.36
2580.16
2580.79
2580.76
2580.45
2579.56
2578.58
2577.04
2575.89
2573.68
2572.13
2569.24
2567.21
2563.66
2561.14
2556.92
2553.89
2548.96
2545.39
2539.69
2535.54
2528.94
2524.19
2516.48
2511.09
2501.98
2495.88
2484.89
2478.32
2462.6
2492.79
5561.22
5250.7
4563.2
4007.48
3610.3
3321.19
3099.68
2926.47
2786.98
2672.79
2577.92
2498.21
2430.73
2373.11
2323.86
2281.39
2244.83
2213.27
2185.95
2162.27
2141.91
2124.21
2108.98
2095.8
2084.58
2074.91
2066.65
2059.63
2053.76
2048.78
2044.75
2041.38
2038.65
2036.52
2034.89
2033.7
2032.88
2032.39
2032.21
2032.27
2032.49
2032.94
2033.52
2034.25
2035.05
2035.97
2036.89
2037.91
2038.89
2039.94
2040.88
2041.88
2042.72
2043.59
2044.24
2044.89
2045.26
2045.58
2045.56
2045.39
2044.94
2044.25
2042.91
2041.84
2040.41
2039.24
2037.41
2035.9
2033.65
2031.78
2029.09
2026.84
2023.7
2021.08
2017.45
2014.45
2010.27
2006.87
2002.07
1998.26
1992.7
1988.49
1981.97
1977.37
1969.61
1964.86
1954.49
1973.82
4697.06
4514.43
4001.26
3528.26
3181.68
2924.9
2725.56
2567.91
2439.69
2333.71
2244.79
2169.31
2104.71
2048.91
2000.56
1958.34
1921.41
1888.97
1860.42
1835.17
1812.92
1793.18
1775.71
1760.16
1746.43
1734.21
1723.36
1713.7
1705.16
1697.55
1690.84
1684.88
1679.58
1674.91
1670.79
1667.16
1663.96
1661.16
1658.7
1656.57
1654.69
1653.08
1651.67
1650.48
1649.43
1648.56
1647.78
1647.15
1646.56
1646.1
1645.63
1645.25
1644.82
1644.46
1644
1643.58
1643.01
1642.44
1641.66
1640.85
1639.74
1638.62
1637.02
1635.68
1634.3
1633.03
1631.42
1629.91
1628.05
1626.3
1624.16
1622.16
1619.73
1617.47
1614.73
1612.21
1609.11
1606.33
1602.83
1599.79
1595.79
1592.52
1587.92
1584.48
1579.09
1575.7
1568.99
1580.9
3979.64
3881.54
3511.91
3115.67
2816.63
2590.61
2412.64
2270.27
2153.38
2055.93
1973.5
1902.96
1842.07
1789.06
1742.68
1701.83
1665.71
1633.66
1605.12
1579.6
1556.78
1536.28
1517.86
1501.24
1486.27
1472.73
1460.49
1449.39
1439.34
1430.19
1421.9
1414.37
1407.5
1401.25
1395.55
1390.37
1385.63
1381.31
1377.36
1373.76
1370.45
1367.44
1364.67
1362.14
1359.8
1357.67
1355.68
1353.87
1352.16
1350.59
1349.09
1347.7
1346.34
1345.06
1343.77
1342.55
1341.26
1340.01
1338.65
1337.3
1335.77
1334.23
1332.44
1330.89
1329.53
1328.18
1326.7
1325.22
1323.59
1321.97
1320.18
1318.4
1316.45
1314.51
1312.37
1310.26
1307.92
1305.65
1303.07
1300.65
1297.78
1295.24
1292.02
1289.43
1285.75
1283.28
1278.97
1286.04
3384.34
3339.13
3082.75
2757.96
2503.47
2306.58
2149.04
2021.41
1915.59
1826.63
1750.8
1685.47
1628.69
1578.93
1535.09
1496.22
1461.61
1430.67
1402.91
1377.89
1355.32
1334.88
1316.35
1299.48
1284.12
1270.1
1257.29
1245.54
1234.78
1224.89
1215.8
1207.43
1199.72
1192.6
1186.02
1179.94
1174.31
1169.1
1164.26
1159.78
1155.6
1151.73
1148.11
1144.74
1141.59
1138.66
1135.9
1133.32
1130.88
1128.6
1126.41
1124.36
1122.38
1120.5
1118.66
1116.9
1115.14
1113.43
1111.68
1109.96
1108.17
1106.36
1104.45
1102.8
1101.44
1100.08
1098.68
1097.26
1095.79
1094.31
1092.76
1091.19
1089.56
1087.91
1086.18
1084.44
1082.61
1080.78
1078.83
1076.91
1074.83
1072.85
1070.62
1068.61
1066.18
1064.27
1061.5
1065.52
2890.13
2875.96
2704.83
2446.14
2233.25
2063.84
1925.69
1812.14
1716.97
1636.24
1566.91
1506.78
1454.2
1407.86
1366.81
1330.22
1297.46
1268.01
1241.45
1217.38
1195.54
1175.65
1157.51
1140.9
1125.67
1111.69
1098.82
1086.96
1076.01
1065.88
1056.5
1047.8
1039.73
1032.23
1025.24
1018.73
1012.66
1007
1001.7
996.751
992.109
987.765
983.681
979.852
976.243
972.854
969.649
966.633
963.77
961.067
958.488
956.043
953.696
951.458
949.293
947.21
945.175
943.196
941.24
939.312
937.378
935.441
933.468
931.794
930.46
929.134
927.804
926.473
925.132
923.784
922.42
921.046
919.653
918.248
916.82
915.381
913.916
912.441
910.935
909.428
907.879
906.352
904.753
903.234
901.564
900.129
898.286
900.458
2478.81
2482.27
2371.75
2173.63
1999.2
1855.58
1735.75
1635.55
1550.49
1477.62
1414.53
1359.43
1310.96
1268.04
1229.81
1195.58
1164.81
1137.02
1111.85
1088.96
1068.1
1049.02
1031.53
1015.47
1000.68
987.033
974.426
962.752
951.928
941.874
932.523
923.815
915.693
908.111
901.021
894.389
888.172
882.346
876.872
871.733
866.896
862.345
858.054
854.01
850.187
846.579
843.16
839.926
836.854
833.94
831.162
828.518
825.987
823.567
821.239
818.998
816.829
814.724
812.669
810.656
808.67
806.701
804.734
803.092
801.803
800.535
799.283
798.046
796.82
795.602
794.39
793.184
791.981
790.782
789.584
788.389
787.195
786.005
784.814
783.629
782.443
781.271
780.089
778.945
777.757
776.689
775.405
776.49
2134.46
2149.34
2079.31
1936.02
1796.51
1676.87
1574.19
1486.51
1410.97
1345.48
1288.27
1237.94
1193.39
1153.73
1118.24
1086.33
1057.53
1031.43
1007.71
986.061
966.265
948.107
931.414
916.03
901.825
888.68
876.497
865.183
854.66
844.859
835.715
827.175
819.187
811.708
804.695
798.114
791.93
786.116
780.641
775.485
770.62
766.03
761.691
757.591
753.709
750.033
746.547
743.239
740.094
737.104
734.255
731.538
728.941
726.455
724.07
721.777
719.566
717.428
715.353
713.332
711.357
709.415
707.499
705.919
704.691
703.494
702.326
701.183
700.063
698.965
697.885
696.823
695.777
694.747
693.732
692.733
691.747
690.776
689.82
688.879
687.953
687.044
686.146
685.274
684.396
683.595
682.654
683.121
1843.41
1869.04
1826.59
1730.25
1622.24
1524.51
1437.62
1361.52
1294.76
1236.11
1184.33
1138.41
1097.49
1060.86
1027.92
998.195
971.265
946.779
924.451
904.025
885.293
868.068
852.193
837.529
823.956
811.37
799.677
788.796
778.654
769.187
760.338
752.056
744.294
737.012
730.17
723.738
717.683
711.979
706.599
701.522
696.724
692.189
687.897
683.832
679.98
676.326
672.856
669.56
666.425
663.44
660.595
657.881
655.288
652.806
650.429
648.146
645.95
643.832
641.787
639.803
637.876
635.994
634.155
632.652
631.492
630.371
629.286
628.234
627.213
626.221
625.256
624.317
623.403
622.512
621.645
620.8
619.977
619.176
618.395
617.634
616.894
616.174
615.473
614.795
614.126
613.514
612.788
612.918
1594.78
1636.26
1614.06
1555.56
1475.53
1397.21
1324.39
1258.65
1199.78
1147.25
1100.33
1058.36
1020.68
986.766
956.127
928.358
903.113
880.089
859.036
839.729
821.981
805.627
790.524
776.546
763.585
751.545
740.341
729.898
720.149
711.035
702.503
694.506
687.001
679.949
673.317
667.072
661.186
655.634
650.391
645.437
640.751
636.315
632.114
628.131
624.352
620.764
617.356
614.115
611.031
608.093
605.293
602.621
600.069
597.629
595.293
593.052
590.902
588.833
586.841
584.916
583.056
581.25
579.496
578.075
576.985
575.938
574.932
573.963
573.031
572.133
571.267
570.432
569.626
568.85
568.1
567.376
566.678
566.004
565.354
564.727
564.122
563.539
562.977
562.437
561.914
561.425
560.879
560.804
1387.16
1450.43
1444.65
1414.57
1358.37
1296.03
1234.95
1177.92
1125.69
1078.32
1035.51
996.853
961.911
930.272
901.56
875.436
851.609
829.818
809.842
791.484
774.575
758.965
744.525
731.141
718.714
707.153
696.381
686.328
676.933
668.139
659.899
652.167
644.903
638.071
631.64
625.578
619.861
614.462
609.36
604.535
599.968
595.642
591.542
587.652
583.959
580.451
577.117
573.945
570.926
568.05
565.308
562.693
560.195
557.809
555.526
553.34
551.245
549.234
547.303
545.443
543.653
541.922
540.253
538.909
537.883
536.903
535.967
535.072
534.215
533.396
532.612
531.862
531.143
530.455
529.796
529.165
528.56
527.982
527.428
526.897
526.39
525.905
525.44
524.996
524.571
524.167
523.761
523.554
1248.61
1332.79
1340.85
1325.08
1286.34
1233.55
1179.89
1128.45
1080.52
1036.48
996.327
959.812
926.633
896.462
868.99
843.926
821.012
800.015
780.733
762.987
746.62
731.492
717.484
704.486
692.407
681.16
670.673
660.878
651.717
643.138
635.093
627.54
620.44
613.758
607.465
601.53
595.93
590.639
585.637
580.904
576.423
572.176
568.149
564.328
560.699
557.251
553.973
550.854
547.886
545.058
542.362
539.792
537.339
534.996
532.757
530.616
528.568
526.605
524.724
522.919
521.187
519.521
517.922
516.641
515.668
514.743
513.864
513.028
512.233
511.476
510.757
510.072
509.421
508.801
508.212
507.651
507.118
506.611
506.128
505.67
505.233
504.819
504.424
504.049
503.692
503.352
503.025
502.774
1182.16
1277.92
1294.22
1283.68
1253.27
1204.97
1154.75
1105.92
1059.99
1017.53
978.616
943.107
910.753
881.272
854.381
829.812
807.325
786.699
767.742
750.282
734.168
719.267
705.46
692.645
680.728
669.629
659.276
649.603
640.554
632.076
624.123
616.655
609.633
603.024
596.796
590.923
585.378
580.14
575.186
570.499
566.059
561.851
557.86
554.073
550.476
547.059
543.81
540.719
537.778
534.977
532.309
529.766
527.341
525.028
522.82
520.712
518.699
516.776
514.938
513.18
511.5
509.892
508.357
507.135
506.211
505.337
504.51
503.727
502.987
502.287
501.625
500.998
500.405
499.844
499.314
498.812
498.337
497.888
497.464
497.062
496.681
496.321
495.98
495.656
495.35
495.059
494.783
494.531
1184.04
1278.63
1294.49
1283.8
1253.21
1204.9
1154.68
1105.86
1059.94
1017.49
978.583
943.081
910.733
881.256
854.369
829.803
807.319
786.695
767.74
750.281
734.169
719.268
705.462
692.647
680.732
669.633
659.28
649.608
640.559
632.081
624.129
616.66
609.639
603.029
596.802
590.929
585.385
580.146
575.193
570.505
566.066
561.859
557.868
554.082
550.486
547.07
543.823
540.735
537.796
534.999
532.335
529.797
527.378
525.072
522.874
520.777
518.777
516.869
515.049
513.312
511.657
510.076
508.572
507.379
506.48
505.632
504.832
504.077
503.365
502.693
502.06
501.463
500.9
500.37
499.869
499.398
498.953
498.533
498.137
497.764
497.412
497.079
496.764
496.467
496.186
495.92
495.669
495.416
1253.33
1334.54
1341.57
1325.31
1286.11
1233.31
1179.66
1128.27
1080.36
1036.36
996.23
959.737
926.575
896.419
868.958
843.903
820.996
800.005
780.728
762.986
746.622
731.497
717.491
704.496
692.417
681.172
670.686
660.892
651.732
643.154
635.109
627.556
620.457
613.776
607.483
601.549
595.948
590.658
585.657
580.925
576.444
572.199
568.174
564.355
560.729
557.286
554.014
550.903
547.944
545.128
542.449
539.897
537.468
535.155
532.951
530.852
528.854
526.951
525.139
523.415
521.777
520.217
518.739
517.572
516.695
515.87
515.095
514.366
513.681
513.037
512.432
511.864
511.33
510.828
510.357
509.915
509.499
509.108
508.741
508.395
508.07
507.765
507.476
507.205
506.949
506.707
506.481
506.235
1391.34
1450.78
1444.15
1413.15
1356.84
1294.63
1233.71
1176.84
1124.74
1077.48
1034.75
996.164
961.279
929.686
901.01
874.918
851.116
829.347
809.389
791.046
774.15
758.551
744.122
730.747
718.326
706.772
696.006
685.958
676.568
667.779
659.542
651.813
644.552
637.723
631.294
625.235
619.52
614.124
609.025
604.202
599.638
595.316
591.219
587.335
583.649
580.149
576.826
573.668
570.666
567.812
565.098
562.517
560.061
557.726
555.505
553.393
551.386
549.479
547.669
545.951
544.325
542.782
541.327
540.185
539.33
538.528
537.777
537.075
536.417
535.802
535.226
534.688
534.184
533.714
533.274
532.862
532.477
532.116
531.779
531.464
531.168
530.891
530.631
530.387
530.159
529.943
529.745
529.508
1590.6
1628.56
1606.12
1547.79
1468.72
1391.29
1319.18
1254.01
1195.58
1143.39
1096.75
1055
1017.5
983.729
953.211
925.544
900.384
877.435
856.444
837.192
819.492
803.18
788.113
774.168
761.236
749.222
738.041
727.618
717.887
708.79
700.273
692.289
684.796
677.756
671.133
664.897
659.02
653.476
648.241
643.294
638.616
634.189
629.997
626.024
622.258
618.686
615.296
612.077
609.021
606.118
603.361
600.742
598.254
595.892
593.65
591.523
589.506
587.596
585.789
584.081
582.47
580.95
579.524
578.412
577.584
576.811
576.091
575.421
574.797
574.217
573.677
573.175
572.708
572.275
571.872
571.498
571.15
570.827
570.527
570.247
569.987
569.745
569.52
569.31
569.115
568.93
568.773
568.526
1827.32
1849.76
1808.1
1713.92
1608.3
1512.46
1426.98
1351.96
1286.02
1228
1176.71
1131.19
1090.59
1054.22
1021.51
991.967
965.193
940.842
918.629
898.305
879.659
862.511
846.702
832.098
818.577
806.037
794.384
783.54
773.429
763.991
755.167
746.908
739.165
731.901
725.075
718.657
712.615
706.923
701.554
696.487
691.7
687.176
682.897
678.846
675.01
671.376
667.931
664.665
661.568
658.63
655.844
653.202
650.698
648.325
646.079
643.953
641.945
640.049
638.264
636.584
635.009
633.533
632.157
631.095
630.308
629.579
628.904
628.281
627.705
627.173
626.684
626.232
625.816
625.434
625.081
624.758
624.46
624.186
623.934
623.703
623.49
623.294
623.115
622.949
622.797
622.654
622.544
622.265
2102.8
2114.77
2047.32
1909.06
1773.66
1657.05
1556.58
1470.55
1396.22
1331.69
1275.21
1225.48
1181.4
1142.13
1106.97
1075.33
1046.77
1020.87
997.308
975.81
956.14
938.091
921.491
906.19
892.054
878.973
866.841
855.575
845.09
835.325
826.209
817.695
809.727
802.267
795.268
788.701
782.527
776.722
771.256
766.106
761.249
756.667
752.338
748.249
744.383
740.726
737.267
733.993
730.894
727.961
725.186
722.56
720.078
717.733
715.522
713.437
711.476
709.635
707.912
706.301
704.804
703.413
702.131
701.155
700.439
699.782
699.181
698.633
698.132
697.677
697.263
696.888
696.548
696.241
695.964
695.714
695.49
695.288
695.107
694.944
694.799
694.67
694.554
694.452
694.36
694.281
694.222
693.928
2426.13
2427.99
2323.27
2133.7
1965.37
1826.07
1709.31
1611.35
1527.95
1456.36
1394.25
1339.96
1292.12
1249.72
1211.93
1178.06
1147.59
1120.06
1095.1
1072.39
1051.68
1032.73
1015.35
999.384
984.67
971.093
958.533
946.905
936.111
926.086
916.752
908.059
899.943
892.367
885.276
878.642
872.419
866.586
861.104
855.956
851.11
846.552
842.256
838.209
834.391
830.791
827.394
824.188
821.163
818.307
815.617
813.079
810.692
808.445
806.34
804.365
802.523
800.805
799.214
797.743
796.394
795.161
794.045
793.216
792.62
792.082
791.602
791.173
790.793
790.456
790.162
789.905
789.682
789.491
789.327
789.189
789.074
788.98
788.904
788.844
788.8
788.767
788.746
788.738
788.735
788.732
788.706
788.465
2809.57
2796.52
2636.64
2390.48
2185.92
2022.2
1888.02
1777.35
1684.28
1605.18
1537.09
1477.97
1426.16
1380.49
1339.95
1303.79
1271.4
1242.24
1215.91
1192.05
1170.36
1150.6
1132.55
1116.02
1100.85
1086.9
1074.05
1062.21
1051.25
1041.11
1031.71
1023
1014.89
1007.35
1000.32
993.773
987.654
981.944
976.596
971.597
966.907
962.518
958.393
954.528
950.893
947.484
944.277
941.268
938.441
935.787
933.301
930.969
928.795
926.76
924.875
923.121
921.511
920.026
918.681
917.458
916.37
915.404
914.57
913.98
913.579
913.231
912.943
912.702
912.511
912.358
912.251
912.169
912.135
912.102
912.11
912.137
912.19
912.258
912.341
912.435
912.54
912.653
912.774
912.901
913.031
913.17