/*--------------------------------*- C++ -*----------------------------------*\
| =========                 |                                                 |
| \\      /  F ield         | OpenFOAM: The Open Source CFD Toolbox           |
|  \\    /   O peration     | Version:  2306                                  |
|   \\  /    A nd           | Website:  www.openfoam.com                      |
|    \\/     M anipulation  |                                                 |
\*---------------------------------------------------------------------------*/
FoamFile
{
    version     2.0;
    format      ascii;
    arch        "LSB;label=32;scalar=64";
    class       volScalarField;
    location    "1600";
    object      p;
}
// * * * * * * * * * * * * * * * * * * * * * * * * * * * * * * * * * * * * * //

dimensions      [0 2 -2 0 0 0 0];

internalField   nonuniform List<scalar> 
20540
(
1558.89
80.3422
1558.87
12.6876
1558.84
-26.2258
1558.8
-39.1624
1558.76
-44.1265
1558.69
-47.8464
1558.61
-51.073
1558.51
-53.7308
1558.38
-55.9313
1558.22
-57.8187
1558.02
-59.4809
1557.77
-60.9641
1557.46
-62.2947
1557.08
-63.4873
1556.61
-64.5473
1556.03
-65.4706
1555.32
-66.2434
1554.46
-66.8409
1553.4
-67.224
1552.13
-67.3362
1550.61
-67.0982
1548.81
-66.4022
1546.71
-65.1055
1544.32
-63.0264
1541.71
-59.9436
1539.01
-55.6006
1536.51
-49.7183
1534.74
-42.056
1534.55
-32.7024
1536.64
-22.7909
1540.16
-15.6414
1542.61
-12.0887
1542.46
-12.4848
1539.81
-16.7571
1536.38
-24.4236
1534.53
-34.3745
1534.87
-43.6926
1536.68
-51.3897
1539.19
-57.3797
1541.9
-61.8721
1544.53
-65.1207
1546.94
-67.3665
1549.08
-68.8222
1550.92
-69.6653
1552.49
-70.0378
1553.8
-70.049
1554.9
-69.7809
1555.8
-69.2932
1556.54
-68.6285
1557.16
-67.8155
1557.66
-66.8718
1558.06
-65.806
1558.4
-64.6187
1558.67
-63.3019
1558.89
-61.8393
1559.06
-60.2033
1559.21
-58.3467
1559.32
-56.181
1559.41
-53.563
1559.48
-50.3835
1559.54
-46.7075
1559.58
-41.7244
1559.62
-28.6405
1559.65
10.2254
1559.67
76.948
-28.0294
0.981904
-41.5466
-31.5713
-46.9823
-47.8968
-54.9569
-58.7261
-63.4097
-67.3808
-71.276
-74.916
-78.3786
-81.6624
-84.7868
-87.7596
-90.5941
-93.2968
-95.8785
-98.3435
-100.701
-102.956
-105.114
-107.179
-109.157
-111.052
-112.868
-114.608
-116.276
-117.876
-119.409
-120.88
-122.291
-123.644
-124.943
-126.189
-127.385
-128.534
-129.638
-130.699
-131.72
-132.704
-133.653
-134.572
-135.463
-136.331
-137.179
-138.014
-138.84
-139.663
-140.491
-141.332
-142.194
-143.087
-144.02
-145.006
-146.058
-147.187
-148.411
-149.749
-151.221
-152.853
-154.666
-156.36
-157.784
-159.258
-160.811
-162.438
-164.144
-165.926
-167.794
-169.744
-171.788
-173.925
-176.157
-178.49
-180.912
-183.452
-186.065
-188.855
-191.687
-194.856
-197.988
-201.793
-205.401
-210.3
-214.913
-222.801
-28.0738
0.981936
-41.5461
-31.5709
-46.982
-47.8966
-54.9567
-58.7259
-63.4095
-67.3806
-71.2759
-74.9159
-78.3785
-81.6623
-84.7867
-87.7595
-90.594
-93.2968
-95.8785
-98.3434
-100.701
-102.956
-105.114
-107.179
-109.157
-111.052
-112.868
-114.608
-116.276
-117.876
-119.409
-120.88
-122.291
-123.644
-124.943
-126.189
-127.385
-128.534
-129.638
-130.699
-131.72
-132.704
-133.653
-134.572
-135.463
-136.331
-137.179
-138.014
-138.84
-139.663
-140.491
-141.332
-142.194
-143.087
-144.02
-145.006
-146.058
-147.187
-148.411
-149.749
-151.221
-152.853
-154.666
-156.36
-157.784
-159.259
-160.811
-162.438
-164.145
-165.926
-167.794
-169.744
-171.789
-173.925
-176.157
-178.49
-180.912
-183.452
-186.066
-188.856
-191.688
-194.856
-197.989
-201.794
-205.404
-210.299
-214.932
-222.637
-28.1573
0.980463
-41.5455
-31.5702
-46.9815
-47.8961
-54.9563
-58.7256
-63.4092
-67.3804
-71.2757
-74.9157
-78.3784
-81.6621
-84.7866
-87.7593
-90.5939
-93.2966
-95.8783
-98.3433
-100.701
-102.955
-105.114
-107.179
-109.157
-111.052
-112.868
-114.608
-116.276
-117.875
-119.409
-120.88
-122.291
-123.644
-124.943
-126.189
-127.385
-128.534
-129.637
-130.699
-131.72
-132.703
-133.653
-134.572
-135.463
-136.331
-137.179
-138.014
-138.84
-139.663
-140.491
-141.332
-142.194
-143.087
-144.02
-145.006
-146.058
-147.187
-148.411
-149.749
-151.221
-152.853
-154.667
-156.36
-157.784
-159.259
-160.812
-162.438
-164.145
-165.927
-167.794
-169.745
-171.789
-173.926
-176.158
-178.491
-180.913
-183.453
-186.067
-188.857
-191.69
-194.858
-197.991
-201.796
-205.409
-210.295
-214.971
-222.423
-28.2813
0.975786
-41.5453
-31.5692
-46.9806
-47.8954
-54.9557
-58.725
-63.4087
-67.3799
-71.2753
-74.9153
-78.378
-81.6618
-84.7863
-87.7591
-90.5936
-93.2964
-95.8781
-98.3431
-100.701
-102.955
-105.113
-107.179
-109.157
-111.052
-112.868
-114.608
-116.276
-117.875
-119.409
-120.88
-122.291
-123.644
-124.943
-126.189
-127.385
-128.534
-129.637
-130.698
-131.719
-132.703
-133.653
-134.572
-135.463
-136.331
-137.179
-138.014
-138.839
-139.663
-140.491
-141.332
-142.194
-143.087
-144.02
-145.006
-146.058
-147.187
-148.411
-149.749
-151.221
-152.854
-154.667
-156.36
-157.785
-159.259
-160.812
-162.439
-164.145
-165.927
-167.795
-169.746
-171.79
-173.927
-176.159
-178.493
-180.915
-183.455
-186.069
-188.86
-191.692
-194.862
-197.995
-201.799
-205.42
-210.283
-215.046
-222.193
-28.4578
0.965059
-41.5465
-31.5683
-46.9795
-47.8942
-54.9547
-58.7241
-63.4079
-67.3792
-71.2746
-74.9147
-78.3774
-81.6613
-84.7858
-87.7586
-90.5932
-93.296
-95.8777
-98.3427
-100.701
-102.955
-105.113
-107.178
-109.157
-111.051
-112.867
-114.607
-116.276
-117.875
-119.409
-120.88
-122.29
-123.644
-124.942
-126.189
-127.385
-128.534
-129.637
-130.698
-131.719
-132.703
-133.653
-134.571
-135.463
-136.33
-137.179
-138.013
-138.839
-139.663
-140.491
-141.332
-142.194
-143.086
-144.02
-145.006
-146.058
-147.187
-148.412
-149.749
-151.221
-152.854
-154.667
-156.361
-157.785
-159.26
-160.813
-162.44
-164.146
-165.928
-167.796
-169.747
-171.792
-173.929
-176.161
-178.495
-180.917
-183.458
-186.072
-188.864
-191.697
-194.866
-198.002
-201.803
-205.436
-210.265
-215.142
-221.997
-28.6997
0.945055
-41.5503
-31.5679
-46.9784
-47.8929
-54.9534
-58.7229
-63.4068
-67.3782
-71.2737
-74.9139
-78.3766
-81.6605
-84.7851
-87.7579
-90.5926
-93.2954
-95.8772
-98.3422
-100.7
-102.954
-105.113
-107.178
-109.156
-111.051
-112.867
-114.607
-116.275
-117.875
-119.408
-120.879
-122.29
-123.643
-124.942
-126.188
-127.384
-128.533
-129.637
-130.698
-131.719
-132.703
-133.653
-134.571
-135.462
-136.33
-137.179
-138.013
-138.839
-139.663
-140.491
-141.331
-142.193
-143.086
-144.02
-145.006
-146.058
-147.187
-148.412
-149.75
-151.221
-152.854
-154.668
-156.361
-157.786
-159.261
-160.814
-162.441
-164.148
-165.93
-167.798
-169.749
-171.794
-173.931
-176.164
-178.498
-180.921
-183.462
-186.076
-188.869
-191.702
-194.872
-198.01
-201.807
-205.456
-210.243
-215.242
-221.821
-29.02
0.912899
-41.5583
-31.5688
-46.9777
-47.8915
-54.952
-58.7215
-63.4055
-67.377
-71.2725
-74.9128
-78.3756
-81.6596
-84.7842
-87.7571
-90.5918
-93.2946
-95.8765
-98.3415
-100.699
-102.954
-105.112
-107.177
-109.156
-111.05
-112.867
-114.607
-116.275
-117.874
-119.408
-120.879
-122.29
-123.643
-124.942
-126.188
-127.384
-128.533
-129.636
-130.698
-131.719
-132.703
-133.652
-134.571
-135.462
-136.33
-137.178
-138.013
-138.839
-139.662
-140.49
-141.331
-142.193
-143.086
-144.02
-145.006
-146.058
-147.187
-148.412
-149.75
-151.221
-152.855
-154.668
-156.362
-157.787
-159.262
-160.815
-162.442
-164.149
-165.932
-167.8
-169.751
-171.797
-173.934
-176.167
-178.502
-180.924
-183.467
-186.081
-188.874
-191.708
-194.879
-198.019
-201.81
-205.477
-210.217
-215.337
-221.653
-29.4353
0.865909
-41.5719
-31.5716
-46.9779
-47.8904
-54.9507
-58.72
-63.404
-67.3755
-71.2712
-74.9115
-78.3744
-81.6584
-84.7831
-87.7561
-90.5908
-93.2937
-95.8756
-98.3406
-100.699
-102.953
-105.111
-107.176
-109.155
-111.05
-112.866
-114.606
-116.274
-117.874
-119.407
-120.878
-122.289
-123.643
-124.941
-126.187
-127.384
-128.532
-129.636
-130.697
-131.718
-132.702
-133.652
-134.57
-135.462
-136.329
-137.178
-138.013
-138.838
-139.662
-140.49
-141.331
-142.193
-143.086
-144.02
-145.006
-146.057
-147.187
-148.412
-149.75
-151.222
-152.855
-154.669
-156.363
-157.788
-159.263
-160.816
-162.444
-164.151
-165.934
-167.802
-169.754
-171.799
-173.937
-176.17
-178.505
-180.928
-183.471
-186.085
-188.88
-191.713
-194.884
-198.028
-201.811
-205.499
-210.188
-215.414
-221.494
-29.9665
0.800937
-41.5928
-31.5771
-46.9795
-47.8899
-54.9495
-58.7185
-63.4024
-67.3739
-71.2696
-74.91
-78.373
-81.657
-84.7818
-87.7548
-90.5896
-93.2925
-95.8744
-98.3396
-100.698
-102.952
-105.11
-107.176
-109.154
-111.049
-112.865
-114.605
-116.274
-117.873
-119.407
-120.877
-122.288
-123.642
-124.94
-126.187
-127.383
-128.532
-129.635
-130.696
-131.718
-132.701
-133.651
-134.57
-135.461
-136.329
-137.178
-138.012
-138.838
-139.661
-140.49
-141.33
-142.193
-143.086
-144.02
-145.006
-146.057
-147.187
-148.412
-149.75
-151.222
-152.855
-154.669
-156.363
-157.789
-159.264
-160.817
-162.445
-164.152
-165.935
-167.804
-169.756
-171.802
-173.94
-176.173
-178.509
-180.932
-183.475
-186.089
-188.884
-191.718
-194.889
-198.036
-201.809
-205.519
-210.155
-215.457
-221.35
-30.6395
0.713928
-41.6227
-31.5863
-46.9831
-47.8903
-54.9489
-58.7172
-63.4009
-67.3723
-71.2679
-74.9083
-78.3713
-81.6554
-84.7802
-87.7533
-90.5882
-93.2912
-95.8731
-98.3383
-100.696
-102.951
-105.109
-107.174
-109.153
-111.048
-112.864
-114.604
-116.273
-117.872
-119.406
-120.877
-122.288
-123.641
-124.94
-126.186
-127.382
-128.531
-129.635
-130.696
-131.717
-132.701
-133.65
-134.569
-135.46
-136.328
-137.177
-138.011
-138.837
-139.661
-140.489
-141.33
-142.192
-143.085
-144.019
-145.005
-146.057
-147.187
-148.412
-149.75
-151.222
-152.856
-154.67
-156.364
-157.789
-159.265
-160.818
-162.446
-164.154
-165.937
-167.806
-169.758
-171.804
-173.942
-176.176
-178.511
-180.934
-183.478
-186.091
-188.887
-191.721
-194.89
-198.04
-201.8
-205.531
-210.119
-215.442
-221.214
-31.4852
0.599709
-41.6638
-31.6001
-46.9892
-47.8919
-54.949
-58.7163
-63.3996
-67.3707
-71.2662
-74.9065
-78.3695
-81.6537
-84.7785
-87.7516
-90.5865
-93.2896
-95.8716
-98.3368
-100.695
-102.949
-105.108
-107.173
-109.152
-111.047
-112.863
-114.603
-116.271
-117.871
-119.405
-120.876
-122.286
-123.64
-124.939
-126.185
-127.381
-128.53
-129.634
-130.695
-131.716
-132.7
-133.65
-134.568
-135.46
-136.327
-137.176
-138.011
-138.836
-139.66
-140.488
-141.329
-142.191
-143.084
-144.019
-145.005
-146.056
-147.186
-148.411
-149.75
-151.222
-152.856
-154.67
-156.364
-157.79
-159.265
-160.819
-162.447
-164.155
-165.938
-167.807
-169.759
-171.805
-173.943
-176.177
-178.512
-180.934
-183.478
-186.091
-188.886
-191.719
-194.885
-198.039
-201.783
-205.529
-210.076
-215.346
-221.065
-32.5404
0.451803
-41.7184
-31.6197
-46.9987
-47.8953
-54.9503
-58.7161
-63.3987
-67.3694
-71.2647
-74.9048
-78.3678
-81.6519
-84.7767
-87.7498
-90.5847
-93.2878
-95.8698
-98.3351
-100.693
-102.948
-105.106
-107.172
-109.15
-111.045
-112.861
-114.602
-116.27
-117.869
-119.403
-120.874
-122.285
-123.639
-124.937
-126.184
-127.38
-128.529
-129.632
-130.694
-131.715
-132.699
-133.648
-134.567
-135.458
-136.326
-137.175
-138.01
-138.835
-139.659
-140.487
-141.328
-142.19
-143.084
-144.018
-145.004
-146.056
-147.186
-148.411
-149.749
-151.222
-152.855
-154.67
-156.364
-157.789
-159.265
-160.819
-162.446
-164.154
-165.937
-167.806
-169.758
-171.804
-173.942
-176.175
-178.51
-180.931
-183.474
-186.085
-188.878
-191.711
-194.872
-198.026
-201.752
-205.5
-210.018
-215.149
-220.862
-33.8481
0.262186
-41.7898
-31.6463
-47.0124
-47.901
-54.9531
-58.7169
-63.3985
-67.3685
-71.2634
-74.9034
-78.3661
-81.6502
-84.7749
-87.748
-90.5829
-93.286
-95.868
-98.3333
-100.691
-102.946
-105.104
-107.17
-109.148
-111.043
-112.86
-114.6
-116.268
-117.868
-119.402
-120.873
-122.284
-123.637
-124.936
-126.182
-127.379
-128.527
-129.631
-130.692
-131.713
-132.697
-133.647
-134.566
-135.457
-136.325
-137.174
-138.008
-138.834
-139.658
-140.486
-141.327
-142.189
-143.082
-144.017
-145.003
-146.055
-147.185
-148.41
-149.748
-151.22
-152.854
-154.668
-156.362
-157.788
-159.263
-160.817
-162.444
-164.152
-165.935
-167.803
-169.755
-171.8
-173.937
-176.168
-178.502
-180.921
-183.462
-186.07
-188.861
-191.691
-194.843
-197.996
-201.7
-205.431
-209.929
-214.835
-220.542
-35.4572
0.0209988
-41.8814
-31.6817
-47.0312
-47.9095
-54.9579
-58.719
-63.3993
-67.3684
-71.2628
-74.9023
-78.3648
-81.6487
-84.7733
-87.7463
-90.5811
-93.2841
-95.8662
-98.3314
-100.69
-102.944
-105.103
-107.168
-109.147
-111.042
-112.858
-114.598
-116.267
-117.866
-119.4
-120.871
-122.282
-123.636
-124.934
-126.181
-127.377
-128.526
-129.63
-130.691
-131.712
-132.696
-133.646
-134.564
-135.456
-136.324
-137.172
-138.007
-138.833
-139.657
-140.485
-141.326
-142.188
-143.081
-144.015
-145.002
-146.053
-147.183
-148.408
-149.746
-151.219
-152.852
-154.666
-156.359
-157.784
-159.259
-160.812
-162.439
-164.146
-165.928
-167.796
-169.747
-171.79
-173.926
-176.154
-178.486
-180.901
-183.439
-186.042
-188.827
-191.652
-194.792
-197.938
-201.615
-205.305
-209.776
-214.39
-220.034
-37.4217
-0.283777
-41.9977
-31.7275
-47.056
-47.9215
-54.965
-58.7227
-63.4012
-67.3692
-71.2628
-74.9018
-78.364
-81.6476
-84.772
-87.7448
-90.5796
-93.2825
-95.8645
-98.3297
-100.688
-102.942
-105.101
-107.166
-109.145
-111.04
-112.856
-114.596
-116.265
-117.864
-119.398
-120.869
-122.28
-123.634
-124.933
-126.179
-127.375
-128.524
-129.628
-130.689
-131.71
-132.694
-133.644
-134.563
-135.454
-136.322
-137.171
-138.005
-138.831
-139.655
-140.483
-141.324
-142.186
-143.079
-144.013
-145
-146.051
-147.181
-148.405
-149.743
-151.215
-152.848
-154.661
-156.353
-157.778
-159.253
-160.804
-162.43
-164.136
-165.917
-167.782
-169.731
-171.772
-173.905
-176.13
-178.457
-180.866
-183.398
-185.994
-188.77
-191.586
-194.707
-197.837
-201.478
-205.102
-209.514
-213.803
-219.264
-39.7986
-0.666633
-42.1436
-31.7861
-47.0882
-47.9376
-54.975
-58.7284
-63.4048
-67.3712
-71.2639
-74.9023
-78.3639
-81.6472
-84.7713
-87.7439
-90.5785
-93.2813
-95.8632
-98.3283
-100.686
-102.941
-105.099
-107.165
-109.143
-111.038
-112.854
-114.595
-116.263
-117.863
-119.396
-120.867
-122.278
-123.632
-124.931
-126.177
-127.373
-128.522
-129.626
-130.687
-131.709
-132.693
-133.642
-134.561
-135.452
-136.32
-137.169
-138.003
-138.829
-139.653
-140.481
-141.322
-142.184
-143.077
-144.011
-144.997
-146.048
-147.177
-148.401
-149.739
-151.21
-152.842
-154.654
-156.344
-157.767
-159.241
-160.791
-162.415
-164.118
-165.897
-167.76
-169.706
-171.742
-173.871
-176.089
-178.409
-180.809
-183.331
-185.916
-188.676
-191.479
-194.57
-197.675
-201.258
-204.794
-209.086
-213.047
-218.177
-42.6437
-1.14481
-42.325
-31.8599
-47.129
-47.9588
-54.9884
-58.7366
-63.4102
-67.3748
-71.2663
-74.9038
-78.3649
-81.6476
-84.7714
-87.7438
-90.5781
-93.2807
-95.8624
-98.3274
-100.685
-102.94
-105.098
-107.163
-109.142
-111.037
-112.853
-114.593
-116.262
-117.861
-119.395
-120.866
-122.277
-123.63
-124.929
-126.175
-127.372
-128.521
-129.624
-130.686
-131.707
-132.691
-133.641
-134.559
-135.451
-136.318
-137.167
-138.001
-138.827
-139.651
-140.479
-141.32
-142.181
-143.074
-144.007
-144.993
-146.044
-147.172
-148.396
-149.732
-151.202
-152.832
-154.642
-156.329
-157.75
-159.222
-160.769
-162.39
-164.09
-165.865
-167.723
-169.664
-171.693
-173.815
-176.023
-178.333
-180.72
-183.225
-185.795
-188.529
-191.311
-194.358
-197.423
-200.917
-204.342
-208.434
-212.08
-216.745
-46.0046
-1.73844
-42.5484
-31.9517
-47.1798
-47.9859
-55.0059
-58.7478
-63.4179
-67.3802
-71.2702
-74.9067
-78.367
-81.6493
-84.7726
-87.7446
-90.5787
-93.281
-95.8625
-98.3273
-100.685
-102.939
-105.097
-107.163
-109.141
-111.036
-112.852
-114.592
-116.261
-117.86
-119.394
-120.865
-122.276
-123.629
-124.928
-126.174
-127.37
-128.519
-129.623
-130.684
-131.705
-132.689
-133.639
-134.558
-135.449
-136.317
-137.165
-138
-138.825
-139.648
-140.476
-141.317
-142.178
-143.07
-144.003
-144.988
-146.038
-147.165
-148.387
-149.722
-151.19
-152.818
-154.624
-156.307
-157.724
-159.193
-160.735
-162.352
-164.046
-165.815
-167.666
-169.599
-171.619
-173.728
-175.923
-178.215
-180.583
-183.064
-185.609
-188.307
-191.056
-194.036
-197.042
-200.404
-203.692
-207.503
-210.844
-214.964
-49.9099
-2.47046
-42.8209
-32.0644
-47.2418
-48.0199
-55.0279
-58.7624
-63.4282
-67.3879
-71.2761
-74.9113
-78.3707
-81.6523
-84.7751
-87.7466
-90.5804
-93.2824
-95.8636
-98.3282
-100.686
-102.94
-105.098
-107.163
-109.141
-111.036
-112.852
-114.592
-116.26
-117.86
-119.393
-120.864
-122.275
-123.628
-124.927
-126.173
-127.37
-128.518
-129.622
-130.683
-131.704
-132.688
-133.638
-134.556
-135.447
-136.315
-137.164
-137.998
-138.823
-139.646
-140.474
-141.313
-142.174
-143.066
-143.998
-144.981
-146.03
-147.155
-148.375
-149.708
-151.172
-152.796
-154.597
-156.273
-157.685
-159.149
-160.685
-162.294
-163.98
-165.74
-167.58
-169.501
-171.505
-173.598
-175.771
-178.038
-180.378
-182.823
-185.332
-187.975
-190.673
-193.56
-196.478
-199.663
-202.776
-206.242
-209.274
-212.835
-54.3535
-3.36593
-43.1497
-32.2013
-47.3164
-48.0617
-55.055
-58.7809
-63.4416
-67.3982
-71.2842
-74.918
-78.3763
-81.657
-84.7792
-87.7502
-90.5835
-93.2852
-95.8661
-98.3305
-100.688
-102.942
-105.099
-107.164
-109.142
-111.037
-112.853
-114.593
-116.261
-117.86
-119.394
-120.865
-122.275
-123.629
-124.927
-126.173
-127.37
-128.518
-129.622
-130.683
-131.704
-132.688
-133.637
-134.556
-135.447
-136.314
-137.162
-137.996
-138.821
-139.644
-140.471
-141.31
-142.17
-143.06
-143.991
-144.973
-146.019
-147.142
-148.358
-149.687
-151.146
-152.764
-154.557
-156.223
-157.627
-159.084
-160.61
-162.208
-163.881
-165.628
-167.452
-169.354
-171.337
-173.403
-175.546
-177.775
-180.076
-182.468
-184.924
-187.49
-190.111
-192.871
-195.663
-198.625
-201.518
-204.604
-207.316
-210.352
-59.2744
-4.45002
-43.5422
-32.3655
-47.4043
-48.1122
-55.0876
-58.8039
-63.4584
-67.4115
-71.2948
-74.927
-78.384
-81.6638
-84.7852
-87.7556
-90.5885
-93.2897
-95.8702
-98.3343
-100.691
-102.945
-105.102
-107.167
-109.145
-111.04
-112.855
-114.595
-116.263
-117.862
-119.396
-120.866
-122.277
-123.63
-124.929
-126.175
-127.371
-128.519
-129.623
-130.684
-131.705
-132.688
-133.638
-134.556
-135.447
-136.314
-137.162
-137.995
-138.82
-139.641
-140.468
-141.306
-142.164
-143.053
-143.981
-144.96
-146.003
-147.122
-148.334
-149.656
-151.108
-152.716
-154.497
-156.15
-157.542
-158.988
-160.499
-162.082
-163.736
-165.463
-167.262
-169.138
-171.088
-173.116
-175.215
-177.392
-179.634
-181.954
-184.331
-186.791
-189.299
-191.896
-194.514
-197.214
-199.843
-202.538
-204.924
-207.489
-64.5329
-5.74385
-44.0051
-32.5596
-47.5058
-48.1722
-55.1259
-58.8318
-63.4789
-67.4281
-71.3084
-74.9386
-78.3941
-81.6728
-84.7934
-87.7631
-90.5954
-93.2962
-95.8763
-98.34
-100.697
-102.95
-105.107
-107.172
-109.15
-111.044
-112.859
-114.599
-116.267
-117.866
-119.399
-120.869
-122.28
-123.633
-124.931
-126.177
-127.373
-128.522
-129.625
-130.686
-131.707
-132.69
-133.639
-134.557
-135.448
-136.314
-137.162
-137.995
-138.818
-139.639
-140.464
-141.3
-142.157
-143.042
-143.968
-144.943
-145.981
-147.094
-148.298
-149.612
-151.053
-152.647
-154.41
-156.043
-157.418
-158.847
-160.337
-161.896
-163.524
-165.22
-166.985
-168.82
-170.724
-172.697
-174.734
-176.837
-178.996
-181.215
-183.481
-185.8
-188.152
-190.546
-192.939
-195.346
-197.674
-199.985
-202.046
-204.194
-69.8872
-7.25831
-44.5431
-32.7857
-47.6202
-48.2422
-55.1697
-58.865
-63.5032
-67.4484
-71.3252
-74.9533
-78.4071
-81.6846
-84.8041
-87.7731
-90.6047
-93.3049
-95.8845
-98.3479
-100.704
-102.957
-105.114
-107.178
-109.156
-111.05
-112.865
-114.605
-116.272
-117.871
-119.404
-120.875
-122.285
-123.638
-124.936
-126.182
-127.378
-128.526
-129.629
-130.69
-131.71
-132.693
-133.642
-134.56
-135.45
-136.316
-137.163
-137.994
-138.817
-139.636
-140.459
-141.293
-142.146
-143.028
-143.948
-144.918
-145.948
-147.053
-148.246
-149.546
-150.971
-152.544
-154.281
-155.886
-157.237
-158.64
-160.1
-161.625
-163.214
-164.866
-166.58
-168.357
-170.195
-172.09
-174.04
-176.04
-178.084
-180.168
-182.281
-184.42
-186.568
-188.718
-190.842
-192.932
-194.936
-196.876
-198.62
-200.389
-74.9802
-8.98561
-45.1559
-33.0444
-47.7454
-48.3223
-55.2185
-58.9035
-63.5315
-67.4725
-71.3453
-74.9712
-78.4231
-81.6992
-84.8177
-87.7857
-90.6166
-93.3162
-95.8953
-98.3581
-100.714
-102.967
-105.123
-107.187
-109.164
-111.058
-112.873
-114.612
-116.28
-117.878
-119.411
-120.882
-122.292
-123.645
-124.943
-126.188
-127.384
-128.532
-129.635
-130.695
-131.716
-132.698
-133.647
-134.564
-135.453
-136.318
-137.164
-137.994
-138.815
-139.632
-140.452
-141.282
-142.131
-143.007
-143.92
-144.881
-145.9
-146.992
-148.169
-149.449
-150.85
-152.393
-154.092
-155.657
-156.972
-158.338
-159.755
-161.23
-162.763
-164.351
-165.994
-167.689
-169.433
-171.222
-173.05
-174.913
-176.801
-178.708
-180.623
-182.537
-184.434
-186.303
-188.123
-189.882
-191.55
-193.134
-194.565
-195.98
-79.3478
-10.8883
-45.8333
-33.3337
-47.877
-48.4117
-55.2708
-58.9472
-63.5633
-67.5005
-71.3689
-74.9924
-78.4423
-81.7169
-84.8342
-87.8012
-90.6313
-93.3302
-95.9087
-98.371
-100.727
-102.979
-105.135
-107.198
-109.175
-111.069
-112.884
-114.623
-116.29
-117.888
-119.421
-120.891
-122.301
-123.654
-124.951
-126.197
-127.392
-128.54
-129.643
-130.703
-131.723
-132.705
-133.653
-134.569
-135.457
-136.321
-137.165
-137.993
-138.811
-139.625
-140.44
-141.265
-142.107
-142.975
-143.877
-144.825
-145.829
-146.901
-148.055
-149.306
-150.671
-152.17
-153.815
-155.324
-156.589
-157.899
-159.254
-160.659
-162.112
-163.612
-165.154
-166.735
-168.35
-169.995
-171.662
-173.343
-175.031
-176.715
-178.385
-180.03
-181.637
-183.194
-184.687
-186.107
-187.436
-188.671
-189.789
-190.868
-82.4623
-12.8865
-46.5486
-33.6486
-48.0078
-48.5091
-55.3244
-58.9956
-63.5981
-67.5322
-71.3958
-75.017
-78.4647
-81.7378
-84.8537
-87.8197
-90.6489
-93.347
-95.9249
-98.3866
-100.742
-102.993
-105.149
-107.212
-109.189
-111.082
-112.896
-114.635
-116.302
-117.9
-119.433
-120.902
-122.312
-123.665
-124.962
-126.207
-127.403
-128.55
-129.653
-130.712
-131.731
-132.713
-133.66
-134.575
-135.462
-136.324
-137.166
-137.991
-138.805
-139.613
-140.422
-141.239
-142.071
-142.926
-143.813
-144.742
-145.723
-146.767
-147.886
-149.096
-150.41
-151.846
-153.412
-154.843
-156.037
-157.268
-158.536
-159.842
-161.185
-162.561
-163.966
-165.394
-166.839
-168.295
-169.754
-171.207
-172.647
-174.062
-175.443
-176.78
-178.062
-179.276
-180.418
-181.484
-182.464
-183.359
-184.164
-184.926
-83.8315
-14.846
-47.248
-33.9791
-48.1272
-48.6118
-55.3762
-59.0475
-63.6347
-67.567
-71.4254
-75.0445
-78.49
-81.7615
-84.8761
-87.841
-90.6693
-93.3665
-95.9436
-98.4048
-100.759
-103.01
-105.166
-107.228
-109.205
-111.097
-112.912
-114.65
-116.317
-117.914
-119.447
-120.916
-122.326
-123.678
-124.975
-126.22
-127.415
-128.562
-129.664
-130.723
-131.742
-132.722
-133.668
-134.582
-135.466
-136.326
-137.164
-137.984
-138.793
-139.594
-140.394
-141.199
-142.016
-142.853
-143.718
-144.619
-145.567
-146.57
-147.64
-148.79
-150.031
-151.377
-152.835
-154.156
-155.251
-156.374
-157.521
-158.693
-159.887
-161.099
-162.322
-163.551
-164.778
-165.997
-167.2
-168.379
-169.524
-170.623
-171.673
-172.669
-173.604
-174.471
-175.263
-175.981
-176.628
-177.21
-177.727
-178.204
-83.1618
-16.5712
-47.8429
-34.3095
-48.2203
-48.716
-55.4218
-59.101
-63.6713
-67.6036
-71.4568
-75.0741
-78.5174
-81.7874
-84.9007
-87.8644
-90.6918
-93.3882
-95.9646
-98.425
-100.779
-103.029
-105.184
-107.247
-109.222
-111.115
-112.929
-114.667
-116.333
-117.93
-119.462
-120.932
-122.341
-123.693
-124.99
-126.234
-127.429
-128.576
-129.677
-130.735
-131.753
-132.732
-133.676
-134.588
-135.469
-136.325
-137.158
-137.972
-138.772
-139.562
-140.349
-141.137
-141.933
-142.744
-143.577
-144.44
-145.34
-146.285
-147.286
-148.351
-149.49
-150.713
-152.02
-153.191
-154.153
-155.13
-156.116
-157.112
-158.112
-159.113
-160.107
-161.089
-162.051
-162.986
-163.886
-164.747
-165.566
-166.335
-167.042
-167.688
-168.272
-168.797
-169.261
-169.668
-170.019
-170.319
-170.572
-170.784
-80.5467
-17.8183
-48.2271
-34.6131
-48.2736
-48.815
-55.4569
-59.1528
-63.7055
-67.6399
-71.4881
-75.1042
-78.5455
-81.8141
-84.9262
-87.8889
-90.7153
-93.4108
-95.9865
-98.4463
-100.8
-103.05
-105.204
-107.266
-109.241
-111.133
-112.947
-114.684
-116.35
-117.947
-119.479
-120.948
-122.357
-123.709
-125.005
-126.249
-127.443
-128.589
-129.69
-130.747
-131.764
-132.741
-133.683
-134.591
-135.469
-136.319
-137.144
-137.949
-138.737
-139.513
-140.28
-141.045
-141.812
-142.586
-143.374
-144.182
-145.016
-145.881
-146.785
-147.735
-148.734
-149.789
-150.896
-151.87
-152.658
-153.445
-154.226
-155
-155.761
-156.506
-157.227
-157.919
-158.577
-159.201
-159.779
-160.306
-160.78
-161.202
-161.571
-161.887
-162.152
-162.367
-162.536
-162.66
-162.741
-162.784
-162.791
-162.758
-76.5026
-18.3976
-48.3659
-34.8423
-48.2935
-48.8953
-55.4815
-59.1974
-63.7351
-67.6726
-71.5168
-75.132
-78.5718
-81.8392
-84.9503
-87.912
-90.7377
-93.4324
-96.0075
-98.4666
-100.819
-103.069
-105.223
-107.284
-109.259
-111.151
-112.964
-114.701
-116.367
-117.964
-119.495
-120.964
-122.373
-123.724
-125.02
-126.264
-127.457
-128.602
-129.702
-130.758
-131.772
-132.748
-133.686
-134.59
-135.462
-136.304
-137.12
-137.912
-138.683
-139.438
-140.179
-140.911
-141.637
-142.361
-143.088
-143.821
-144.564
-145.322
-146.097
-146.891
-147.707
-148.544
-149.394
-150.119
-150.689
-151.243
-151.776
-152.286
-152.769
-153.222
-153.642
-154.023
-154.358
-154.647
-154.888
-155.082
-155.228
-155.328
-155.384
-155.398
-155.373
-155.312
-155.215
-155.085
-154.925
-154.735
-154.52
-154.271
-72.386
-18.3684
-48.3817
-34.9255
-48.3165
-48.932
-55.5004
-59.2238
-63.7556
-67.6944
-71.5366
-75.1513
-78.5902
-81.8568
-84.9673
-87.9283
-90.7535
-93.4476
-96.0223
-98.4809
-100.833
-103.082
-105.236
-107.297
-109.272
-111.163
-112.976
-114.713
-116.379
-117.975
-119.507
-120.975
-122.383
-123.734
-125.03
-126.273
-127.466
-128.611
-129.709
-130.764
-131.776
-132.749
-133.683
-134.582
-135.447
-136.28
-137.084
-137.861
-138.613
-139.342
-140.052
-140.745
-141.423
-142.088
-142.743
-143.389
-144.028
-144.662
-145.289
-145.911
-146.522
-147.122
-147.698
-148.16
-148.507
-148.824
-149.111
-149.366
-149.587
-149.77
-149.91
-150.007
-150.059
-150.067
-150.03
-149.952
-149.834
-149.679
-149.49
-149.269
-149.02
-148.743
-148.442
-148.118
-147.774
-147.411
-147.032
-146.629
-69.7636
-18.1984
-48.3164
-34.9235
-48.3208
-48.9376
-55.5064
-59.2323
-63.7636
-67.7031
-71.5451
-75.1596
-78.5984
-81.8647
-84.9751
-87.9357
-90.7609
-93.4546
-96.0293
-98.4876
-100.84
-103.089
-105.243
-107.303
-109.278
-111.169
-112.982
-114.719
-116.384
-117.981
-119.512
-120.98
-122.389
-123.739
-125.035
-126.278
-127.47
-128.614
-129.711
-130.764
-131.775
-132.744
-133.675
-134.568
-135.426
-136.25
-137.041
-137.802
-138.534
-139.238
-139.916
-140.569
-141.197
-141.803
-142.385
-142.944
-143.479
-143.989
-144.473
-144.925
-145.342
-145.718
-146.039
-146.263
-146.408
-146.515
-146.587
-146.622
-146.62
-146.575
-146.488
-146.358
-146.187
-145.974
-145.724
-145.439
-145.122
-144.776
-144.404
-144.01
-143.597
-143.165
-142.719
-142.259
-141.787
-141.307
-140.82
-140.319
-69.8604
-18.1448
-48.2909
-34.8879
-48.307
-48.9234
-55.5002
-59.226
-63.76
-67.6997
-71.5427
-75.1575
-78.5968
-81.8632
-84.9739
-87.9345
-90.76
-93.4537
-96.0286
-98.4868
-100.84
-103.088
-105.242
-107.303
-109.278
-111.169
-112.982
-114.718
-116.384
-117.981
-119.512
-120.98
-122.388
-123.739
-125.034
-126.277
-127.469
-128.612
-129.708
-130.76
-131.768
-132.735
-133.661
-134.549
-135.4
-136.214
-136.994
-137.739
-138.45
-139.128
-139.774
-140.387
-140.966
-141.511
-142.021
-142.494
-142.928
-143.319
-143.663
-143.956
-144.189
-144.357
-144.446
-144.454
-144.42
-144.343
-144.228
-144.074
-143.882
-143.65
-143.378
-143.066
-142.717
-142.334
-141.919
-141.476
-141.009
-140.52
-140.014
-139.493
-138.961
-138.419
-137.87
-137.316
-136.758
-136.199
-135.64
-135.075
-72.6253
-18.1967
-48.3028
-34.8152
-48.2762
-48.8884
-55.4819
-59.2046
-63.7446
-67.6843
-71.5295
-75.1449
-78.5853
-81.8522
-84.9638
-87.9247
-90.7509
-93.4447
-96.0202
-98.4785
-100.832
-103.08
-105.235
-107.295
-109.271
-111.162
-112.975
-114.712
-116.378
-117.974
-119.506
-120.974
-122.382
-123.733
-125.028
-126.271
-127.462
-128.605
-129.7
-130.75
-131.756
-132.72
-133.643
-134.526
-135.37
-136.175
-136.942
-137.672
-138.364
-139.017
-139.631
-140.205
-140.738
-141.226
-141.667
-142.059
-142.397
-142.677
-142.892
-143.038
-143.105
-143.087
-142.972
-142.793
-142.603
-142.369
-142.095
-141.783
-141.434
-141.049
-140.628
-140.173
-139.687
-139.172
-138.632
-138.071
-137.491
-136.897
-136.293
-135.68
-135.063
-134.443
-133.822
-133.203
-132.587
-131.976
-131.371
-130.766
-76.7843
-18.089
-48.2314
-34.6535
-48.2287
-48.821
-55.4509
-59.165
-63.7168
-67.6556
-71.5048
-75.1213
-78.5636
-81.8316
-84.9444
-87.9061
-90.7334
-93.4277
-96.0041
-98.4627
-100.817
-103.065
-105.221
-107.281
-109.257
-111.148
-112.962
-114.699
-116.366
-117.962
-119.494
-120.962
-122.371
-123.721
-125.017
-126.259
-127.45
-128.592
-129.687
-130.736
-131.74
-132.702
-133.621
-134.499
-135.337
-136.134
-136.89
-137.605
-138.278
-138.908
-139.493
-140.032
-140.52
-140.956
-141.335
-141.652
-141.903
-142.082
-142.183
-142.198
-142.12
-141.941
-141.651
-141.313
-140.992
-140.628
-140.224
-139.782
-139.305
-138.795
-138.255
-137.688
-137.096
-136.481
-135.847
-135.198
-134.537
-133.868
-133.192
-132.515
-131.837
-131.163
-130.493
-129.83
-129.175
-128.53
-127.895
-127.266
-80.8161
-17.3993
-48.0162
-34.3633
-48.1784
-48.7156
-55.4129
-59.1089
-63.6801
-67.6169
-71.4719
-75.0898
-78.5346
-81.8041
-84.9185
-87.8812
-90.7098
-93.4048
-95.9823
-98.4414
-100.796
-103.045
-105.201
-107.262
-109.239
-111.13
-112.945
-114.682
-116.349
-117.946
-119.478
-120.946
-122.355
-123.706
-125.001
-126.244
-127.435
-128.576
-129.67
-130.719
-131.722
-132.681
-133.598
-134.472
-135.304
-136.094
-136.841
-137.545
-138.203
-138.814
-139.376
-139.886
-140.339
-140.732
-141.061
-141.319
-141.501
-141.601
-141.612
-141.526
-141.336
-141.035
-140.615
-140.159
-139.743
-139.283
-138.785
-138.251
-137.682
-137.083
-136.458