/*--------------------------------*- C++ -*----------------------------------*\
| =========                 |                                                 |
| \\      /  F ield         | OpenFOAM: The Open Source CFD Toolbox           |
|  \\    /   O peration     | Version:  2306                                  |
|   \\  /    A nd           | Website:  www.openfoam.com                      |
|    \\/     M anipulation  |                                                 |
\*---------------------------------------------------------------------------*/
FoamFile
{
    version     2.0;
    format      ascii;
    arch        "LSB;label=32;scalar=64";
    class       surfaceScalarField;
    location    "1600";
    object      phi;
}
// * * * * * * * * * * * * * * * * * * * * * * * * * * * * * * * * * * * * * //

dimensions      [0 3 -1 0 0 0 0];

oriented        oriented;

internalField   nonuniform List<scalar> 
40747
(
8.68347e-06
6.19703e-06
2.93616e-06
5.74731e-06
1.05128e-05
1.36856e-05
3.62787e-06
9.82105e-06
1.27305e-05
2.27318e-05
3.13023e-06
1.32281e-05
1.54207e-05
3.3655e-05
1.86606e-06
1.66849e-05
1.86862e-05
4.68378e-05
-9.71077e-08
2.06493e-05
2.26531e-05
6.27374e-05
-2.81256e-06
2.53686e-05
2.74769e-05
8.18989e-05
-6.39435e-06
3.10587e-05
3.3349e-05
0.00010497
-1.10018e-05
3.79565e-05
4.05069e-05
0.000132715
-1.68372e-05
4.63423e-05
4.92458e-05
0.000166036
-2.41481e-05
5.65566e-05
5.99346e-05
0.000205985
-3.3231e-05
6.90175e-05
7.30367e-05
0.00025378
-4.44361e-05
8.42419e-05
8.91373e-05
0.000310816
-5.81709e-05
0.000102872
0.00010898
0.000378666
-7.4901e-05
0.00012571
0.000133515
0.000459067
-9.51475e-05
0.000153761
0.000163965
0.000553883
-0.000119477
0.000188294
0.000201913
0.000665024
-0.000148478
0.000230914
0.00024942
0.000794313
-0.000182726
0.000283668
0.000309187
0.000943262
-0.000222716
0.000349177
0.000384764
0.00111272
-0.000268765
0.000430813
0.000480842
0.00130233
-0.000320862
0.00053294
0.000603624
0.00150977
-0.000378462
0.000661224
0.00076132
0.00172962
-0.000440186
0.000823044
0.000964775
0.0019518
-0.000503431
0.00102802
0.00122825
0.00215943
-0.000563853
0.00128867
0.00157036
0.00232609
-0.000614693
0.0016212
0.00201514
0.00241229
-0.000645865
0.00204631
0.00259306
0.00236127
-0.000642552
0.00258975
0.00334185
0.00209459
-0.000582517
0.00328182
0.00430382
0.00151088
-0.000432338
0.00415365
0.00432646
0.000748927
-0.000226606
0.00412073
0.00444528
-0.000131849
2.27132e-05
0.00419596
0.00443855
-0.00100589
0.000269904
0.00419135
0.00430949
-0.00175087
0.000471429
0.00410796
0.00415131
-0.00229492
0.000612342
0.0040104
0.00324584
-0.00253989
0.000669597
0.00318858
0.0025358
-0.00257928
0.00067312
0.00253227
0.00198358
-0.00248611
0.00064318
0.00201352
0.00155543
-0.0023139
0.000593578
0.00160503
0.00122374
-0.00210043
0.000533898
0.00128342
0.000966575
-0.00187139
0.000470709
0.00102976
0.000766749
-0.00164352
0.00040835
0.000829108
0.000610971
-0.00142707
0.000349519
0.000669801
0.000489039
-0.00122778
0.000295733
0.000542825
0.000393161
-0.00104832
0.000247686
0.000441208
0.000317398
-0.000889358
0.000205518
0.000359565
0.000257229
-0.000750307
0.000169026
0.000293721
0.000209205
-0.000629848
0.000137801
0.000240431
0.000170692
-0.000526295
0.000111331
0.000197162
0.000139665
-0.000437816
8.90703e-05
0.000161926
0.000114564
-0.000362588
7.0477e-05
0.000133157
9.41793e-05
-0.00029888
5.50431e-05
0.000109613
7.75686e-05
-0.000245103
4.23055e-05
9.03061e-05
6.39917e-05
-0.00019983
3.18527e-05
7.44445e-05
5.28649e-05
-0.000161797
2.33253e-05
6.13923e-05
4.37246e-05
-0.000129904
1.64139e-05
5.06359e-05
3.62012e-05
-0.0001032
1.08563e-05
4.17588e-05
2.99978e-05
-8.08671e-05
6.43301e-06
3.44211e-05
2.48754e-05
-6.22086e-05
2.96412e-06
2.83443e-05
2.06401e-05
-4.66332e-05
3.08053e-07
2.32961e-05
1.71346e-05
-3.36402e-05
-1.63558e-06
1.90783e-05
1.42305e-05
-2.28079e-05
-2.90977e-06
1.55047e-05
1.18229e-05
-1.3781e-05
-3.43955e-06
1.23527e-05
9.82545e-06
-6.26163e-06
-2.79932e-06
9.18522e-06
8.16744e-06
5.36812e-06
2.59532e-06
3.15198e-06
2.02492e-06
5.70407e-07
1.83632e-06
1.88594e-07
1.71649e-06
1.19824e-07
1.63091e-06
8.55791e-08
1.56402e-06
6.68852e-08
1.51047e-06
5.35469e-08
1.46558e-06
4.48903e-08
1.42758e-06
3.79898e-08
1.39471e-06
3.28736e-08
1.36601e-06
2.86961e-08
1.34069e-06
2.53226e-08
1.31821e-06
2.24763e-08
1.2981e-06
2.01104e-08
1.28002e-06
1.80903e-08
1.2637e-06
1.63216e-08
1.24888e-06
1.48199e-08
1.23539e-06
1.35046e-08
1.22306e-06
1.23292e-08
1.21177e-06
1.13029e-08
1.20138e-06
1.03968e-08
1.19181e-06
9.58445e-09
1.18296e-06
8.85448e-09
1.17478e-06
8.19686e-09
1.16718e-06
7.61006e-09
1.16011e-06
7.07702e-09
1.15353e-06
6.5914e-09
1.1474e-06
6.15063e-09
1.14166e-06
5.74868e-09
1.13629e-06
5.37898e-09
1.13127e-06
5.04162e-09
1.12655e-06
4.73153e-09
1.12211e-06
4.44551e-09
1.11794e-06
4.18034e-09
1.11402e-06
3.93465e-09
1.11032e-06
3.70711e-09
1.10684e-06
3.49554e-09
1.10355e-06
3.29702e-09
1.10044e-06
3.11091e-09
1.09751e-06
2.93565e-09
1.09475e-06
2.76962e-09
1.09214e-06
2.61142e-09
1.08968e-06
2.45917e-09
1.08737e-06
2.31174e-09
1.0852e-06
2.16685e-09
1.08317e-06
2.02378e-09
1.08129e-06
1.87908e-09
1.07955e-06
1.73248e-09
1.07796e-06
1.58046e-09
1.07652e-06
1.42207e-09
1.07525e-06
1.2529e-09
1.07416e-06
1.07201e-09
1.07326e-06
8.7505e-10
1.07257e-06
6.59427e-10
1.07211e-06
4.18941e-10
1.0719e-06
1.53366e-10
1.07197e-06
-1.47361e-10
1.07235e-06
-4.7905e-10
1.07309e-06
-8.68869e-10
1.07422e-06
-1.28168e-09
1.07581e-06
-1.78217e-09
1.07792e-06
-2.30657e-09
1.08062e-06
-2.97016e-09
1.08275e-06
-2.44735e-09
1.08511e-06
-2.82949e-09
1.08778e-06
-3.13671e-09
1.09073e-06
-3.53596e-09
1.09398e-06
-3.85978e-09
1.09751e-06
-4.2625e-09
1.10138e-06
-4.60204e-09
1.10556e-06
-5.02299e-09
1.11013e-06
-5.33569e-09
1.11506e-06
-5.77145e-09
1.1204e-06
-6.11738e-09
1.12614e-06
-6.62182e-09
1.13234e-06
-7.14053e-09
1.13901e-06
-7.76984e-09
1.14625e-06
-8.55718e-09
1.1541e-06
-9.34399e-09
1.16275e-06
-1.03918e-08
1.17246e-06
-1.14733e-08
1.18293e-06
-1.23057e-08
1.19657e-06
-1.50866e-08
1.2084e-06
-1.28265e-08
1.23195e-06
-2.38983e-08
1.23848e-06
-4.16163e-09
1.29078e-06
-5.03799e-08
-4.71318e-07
1.75888e-06
8.46837e-06
4.50465e-06
7.39744e-06
1.64134e-06
6.8139e-06
7.7212e-07
6.41032e-06
5.23402e-07
6.11871e-06
3.77179e-07
5.88526e-06
3.00326e-07
5.69757e-06
2.41225e-07
5.53861e-06
2.03857e-07
5.40346e-06
1.73124e-07
5.28591e-06
1.50424e-07
5.1829e-06
1.31705e-07
5.0917e-06
1.16527e-07
5.0105e-06
1.03672e-07
4.93768e-06
9.29366e-08
4.87202e-06
8.37536e-08
4.81268e-06
7.5676e-08
4.7587e-06
6.88125e-08
4.70944e-06
6.27775e-08
4.6644e-06
5.73804e-08
4.62307e-06
5.26528e-08
4.58501e-06
4.84775e-08
4.5499e-06
4.47241e-08
4.51743e-06
4.13492e-08
4.48735e-06
3.83033e-08
4.4594e-06
3.55831e-08
4.4334e-06
3.31092e-08
4.40916e-06
3.08528e-08
4.38654e-06
2.88037e-08
4.36539e-06
2.69326e-08
4.34558e-06
2.52113e-08
4.32702e-06
2.36386e-08
4.30958e-06
2.21931e-08
4.2932e-06
2.08582e-08
4.27778e-06
1.96211e-08
4.26327e-06
1.84737e-08
4.24959e-06
1.74114e-08
4.23668e-06
1.64231e-08
4.2245e-06
1.54961e-08
4.213e-06
1.46269e-08
4.20214e-06
1.38089e-08
4.19188e-06
1.3034e-08
4.1822e-06
1.22965e-08
4.17307e-06
1.15872e-08
4.16448e-06
1.09014e-08
4.15642e-06
1.02285e-08
4.14887e-06
9.56543e-09
4.14183e-06
8.89647e-09
4.13533e-06
8.2207e-09
4.12936e-06
7.5222e-09
4.12396e-06
6.79706e-09
4.11915e-06
6.02575e-09
4.11497e-06
5.20479e-09
4.11147e-06
4.31396e-09
4.10871e-06
3.34643e-09
4.10676e-06
2.26636e-09
4.1057e-06
1.08657e-09
4.10562e-06
-2.49974e-10
4.10664e-06
-1.71822e-09
4.1089e-06
-3.4305e-09
4.11255e-06
-5.25678e-09
4.11776e-06
-7.42958e-09
4.12478e-06
-9.77091e-09
4.1338e-06
-1.25894e-08
4.14092e-06
-1.0237e-08
4.14898e-06
-1.18678e-08
4.15805e-06
-1.31785e-08
4.16809e-06
-1.47761e-08
4.17909e-06
-1.61169e-08
4.19114e-06
-1.77816e-08
4.20424e-06
-1.91747e-08
4.21849e-06
-2.09178e-08
4.23395e-06
-2.22878e-08
4.25064e-06
-2.40897e-08
4.26867e-06
-2.56507e-08
4.28806e-06
-2.77055e-08
4.30901e-06
-2.9911e-08
4.3315e-06
-3.23719e-08
4.35612e-06
-3.56845e-08
4.3825e-06
-3.85323e-08
4.4122e-06
-4.32988e-08
4.44433e-06
-4.67913e-08
4.48071e-06
-5.18945e-08
4.52473e-06
-6.15413e-08
4.56607e-06
-5.56871e-08
4.64389e-06
-1.02131e-07
4.66376e-06
-1.9215e-08
4.877e-06
-2.59956e-07
-6.49159e-07
5.04608e-06
1.35199e-05
4.21293e-06
1.2969e-05
2.19216e-06
1.23164e-05
1.42478e-06
1.17615e-05
1.07827e-06
1.13399e-05
7.98759e-07
1.09908e-05
6.49384e-07
1.07067e-05
5.25384e-07
1.04628e-05
4.47679e-07
1.0254e-05
3.81963e-07
1.0071e-05
3.33419e-07
9.90972e-06
2.92985e-07
9.76618e-06
2.60071e-07
9.6378e-06
2.3205e-07
9.52218e-06
2.08559e-07
9.41755e-06
1.88395e-07
9.32264e-06
1.70591e-07
9.23604e-06
1.55422e-07
9.15679e-06
1.42048e-07
9.08413e-06
1.30054e-07
9.01729e-06
1.19521e-07
8.95558e-06
1.10199e-07
8.89853e-06
1.01802e-07
8.84567e-06
9.42361e-08
8.79661e-06
8.73943e-08
8.75094e-06
8.1274e-08
8.70838e-06
7.56993e-08
8.66866e-06
7.06062e-08
8.63152e-06
6.59747e-08
8.59675e-06
6.17394e-08
8.56415e-06
5.78388e-08
8.53355e-06
5.427e-08
8.50478e-06
5.09869e-08
8.47772e-06
4.79517e-08
8.45223e-06
4.51363e-08
8.42821e-06
4.25224e-08
8.40554e-06
4.01007e-08
8.38414e-06
3.78459e-08
8.36393e-06
3.57298e-08
8.34482e-06
3.3744e-08
8.32677e-06
3.18741e-08
8.30971e-06
3.0102e-08
8.2936e-06
2.84143e-08
8.2784e-06
2.67908e-08
8.26407e-06
2.52203e-08
8.25062e-06
2.3679e-08
8.23801e-06
2.21601e-08
8.22627e-06
2.06279e-08
8.21539e-06
1.90801e-08
8.20541e-06
1.7481e-08
8.19635e-06
1.58213e-08
8.18828e-06
1.4057e-08
8.18126e-06
1.21796e-08
8.17537e-06
1.0145e-08
8.1707e-06
7.93729e-09
8.16738e-06
5.48244e-09
8.16553e-06
2.79972e-09
8.1653e-06
-2.17815e-10
8.1669e-06
-3.54064e-09
8.17055e-06
-7.38381e-09
8.1765e-06
-1.15422e-08
8.18501e-06
-1.63879e-08
8.19651e-06
-2.17141e-08
8.21135e-06
-2.80271e-08
8.22312e-06
-2.26786e-08
8.23638e-06
-2.60777e-08
8.25121e-06
-2.8956e-08
8.26763e-06
-3.23479e-08
8.28563e-06
-3.53308e-08
8.30529e-06
-3.88494e-08
8.32668e-06
-4.19546e-08
8.34986e-06
-4.56529e-08
8.375e-06
-4.88258e-08
8.40208e-06
-5.26917e-08
8.43133e-06
-5.63068e-08
8.46269e-06
-6.06406e-08
8.4966e-06
-6.55285e-08
8.53267e-06
-7.0418e-08
8.57228e-06
-7.76252e-08
8.6139e-06
-8.27478e-08
8.66108e-06
-9.34204e-08
8.71065e-06
-9.92425e-08
8.76715e-06
-1.11279e-07
8.83338e-06
-1.29915e-07
8.89422e-06
-1.17789e-07
9.00883e-06
-2.17037e-07
9.03445e-06
-4.01693e-08
9.30857e-06
-5.30599e-07
-7.12996e-07
9.36292e-06
1.81889e-05
2.70886e-06
1.82585e-05
2.12263e-06
1.77383e-05
1.94489e-06
1.71285e-05
1.6881e-06
1.6626e-05
1.30126e-06
1.61912e-05
1.08412e-06
1.58315e-05
8.85136e-07
1.5519e-05
7.60138e-07
1.52497e-05
6.51246e-07
1.50126e-05
5.70514e-07
1.4803e-05
5.02613e-07
1.4616e-05
4.47117e-07
1.44483e-05
3.99662e-07
1.42972e-05
3.59753e-07
1.41601e-05
3.25412e-07
1.40357e-05
2.9502e-07
1.39221e-05
2.69069e-07
1.3818e-05
2.46155e-07
1.37225e-05
2.25573e-07
1.36346e-05
2.07469e-07
1.35534e-05
1.91428e-07
1.34782e-05
1.76962e-07
1.34086e-05
1.63915e-07
1.33439e-05
1.52103e-07
1.32837e-05
1.41526e-07
1.32275e-05
1.31885e-07
1.31751e-05
1.2307e-07
1.3126e-05
1.15048e-07
1.30801e-05
1.07706e-07
1.3037e-05
1.00941e-07
1.29966e-05
9.47472e-08
1.29586e-05
8.90461e-08
1.29228e-05
8.3773e-08
1.28891e-05
7.88797e-08
1.28573e-05
7.43342e-08
1.28273e-05
7.01211e-08
1.2799e-05
6.61969e-08
1.27722e-05
6.25132e-08
1.27469e-05
5.90549e-08
1.2723e-05
5.57973e-08
1.27004e-05
5.27092e-08
1.2679e-05
4.97673e-08
1.26589e-05
4.69364e-08
1.26399e-05
4.41972e-08
1.26221e-05
4.15082e-08
1.26054e-05
3.88578e-08
1.25898e-05
3.61842e-08
1.25754e-05
3.34825e-08
1.25621e-05
3.06912e-08
1.25501e-05
2.77938e-08
1.25394e-05
2.47147e-08
1.25301e-05
2.14365e-08
1.25223e-05
1.78858e-08
1.25161e-05
1.40335e-08
1.25118e-05
9.76052e-09
1.25093e-05
5.08703e-09
1.25091e-05
-1.53651e-10
1.25112e-05
-5.92661e-09
1.25161e-05
-1.2563e-08
1.2524e-05
-1.98321e-08
1.25354e-05
-2.81897e-08
1.25507e-05
-3.74574e-08
1.25704e-05
-4.83852e-08
1.25861e-05
-3.90666e-08
1.26037e-05
-4.47006e-08
1.26234e-05
-4.95866e-08
1.26451e-05
-5.52651e-08
1.2669e-05
-6.04064e-08
1.2695e-05
-6.62867e-08
1.27232e-05
-7.16468e-08
1.27538e-05
-7.78318e-08
1.2787e-05
-8.34123e-08
1.28227e-05
-8.99068e-08
1.28612e-05
-9.62699e-08
1.29024e-05
-1.03427e-07
1.2947e-05
-1.11868e-07
1.29941e-05
-1.19573e-07
1.3046e-05
-1.31877e-07
1.30999e-05
-1.39374e-07
1.31612e-05
-1.57649e-07
1.32248e-05
-1.65854e-07
1.3297e-05
-1.8639e-07
1.33806e-05
-2.1567e-07
1.34568e-05
-1.95212e-07
1.35964e-05
-3.56939e-07
1.36395e-05
-7.83733e-08
1.39269e-05
-8.14488e-07
-8.47454e-07
1.40513e-05
2.32274e-05
1.30817e-07
2.39037e-05
1.44633e-06
2.36224e-05
2.22616e-06
2.30261e-05
2.28441e-06
2.24708e-05
1.85656e-06
2.19577e-05
1.59718e-06
2.15211e-05
1.32172e-06
2.11349e-05
1.14636e-06
2.07986e-05
9.87548e-07
2.05004e-05
8.68712e-07
2.02354e-05
7.67526e-07
1.99983e-05
6.84295e-07
1.97852e-05
6.12742e-07
1.95926e-05
5.5232e-07
1.94179e-05
5.00178e-07
1.9259e-05
4.53921e-07
1.91137e-05
4.14327e-07
1.89806e-05
3.7932e-07
1.88583e-05
3.47832e-07
1.87457e-05
3.20093e-07
1.86417e-05
2.9549e-07
1.85454e-05
2.73286e-07
1.84561e-05
2.53241e-07
1.83732e-05
2.3508e-07
1.82959e-05
2.18803e-07
1.82239e-05
2.03963e-07
1.81566e-05
1.90385e-07
1.80937e-05
1.7802e-07
1.80347e-05
1.66701e-07
1.79794e-05
1.56267e-07
1.79275e-05
1.46708e-07
1.78787e-05
1.37907e-07
1.78327e-05
1.29765e-07
1.77894e-05
1.22207e-07
1.77486e-05
1.15185e-07
1.77101e-05
1.08674e-07
1.76737e-05
1.02608e-07
1.76393e-05
9.69135e-08
1.76068e-05
9.15662e-08
1.75761e-05
8.65284e-08
1.7547e-05
8.1752e-08
1.75196e-05
7.7201e-08
1.74937e-05
7.28216e-08
1.74693e-05
6.85834e-08
1.74464e-05
6.44228e-08
1.74249e-05
6.03216e-08
1.74049e-05
5.61858e-08
1.73864e-05
5.20055e-08
1.73694e-05
4.76878e-08
1.73539e-05
4.32057e-08
1.73401e-05
3.84448e-08
1.73281e-05
3.33747e-08
1.73181e-05
2.78857e-08
1.73101e-05
2.1931e-08
1.73044e-05
1.53383e-08
1.73012e-05
8.12448e-09
1.73008e-05
4.92467e-11
1.73034e-05
-8.85147e-09
1.73096e-05
-1.90206e-08
1.73196e-05
-3.02532e-08
1.7334e-05
-4.30799e-08
1.73534e-05
-5.73563e-08
1.73784e-05
-7.41279e-08
1.73984e-05
-5.97908e-08
1.74209e-05
-6.82229e-08
1.74458e-05
-7.56127e-08
1.74734e-05
-8.41211e-08
1.75036e-05
-9.19846e-08
1.75365e-05
-1.008e-07
1.75724e-05
-1.0901e-07
1.76111e-05
-1.18269e-07
1.7653e-05
-1.26905e-07
1.7698e-05
-1.36628e-07
1.77467e-05
-1.46489e-07
1.77985e-05
-1.5703e-07
1.78547e-05
-1.69973e-07
1.79139e-05
-1.80919e-07
1.7979e-05
-1.99607e-07
1.80464e-05
-2.09693e-07
1.81228e-05
-2.37278e-07
1.82018e-05
-2.47999e-07
1.8291e-05
-2.78824e-07
1.83923e-05
-3.19304e-07
1.84886e-05
-2.92836e-07
1.86455e-05
-5.14086e-07
1.87308e-05
-1.58557e-07
1.89928e-05
-1.07263e-06
-1.05745e-06
1.9192e-05
2.90433e-05
-3.54388e-06
3.03224e-05
1.67211e-07
3.03459e-05
2.20261e-06
2.98348e-05
2.79556e-06
2.92712e-05
2.42011e-06
2.86998e-05
2.16859e-06
2.81929e-05
1.82862e-06
2.77319e-05
1.60737e-06
2.73239e-05
1.39554e-06
2.69581e-05
1.23455e-06
2.66305e-05
1.09506e-06
2.63357e-05
9.79162e-07
2.60696e-05
8.78765e-07
2.58285e-05
7.93473e-07
2.56091e-05
7.19567e-07
2.54092e-05
6.53792e-07
2.52263e-05
5.97309e-07
2.50583e-05
5.47276e-07
2.4904e-05
5.02197e-07
2.47617e-05
4.62413e-07
2.46301e-05
4.27081e-07
2.45083e-05
3.95165e-07
2.43953e-05
3.66325e-07
2.42902e-05
3.40173e-07
2.41923e-05
3.16712e-07
2.4101e-05
2.95312e-07
2.40157e-05
2.75724e-07
2.39359e-05
2.57873e-07
2.38611e-05
2.41525e-07
2.3791e-05
2.26452e-07
2.37251e-05
2.12635e-07
2.36631e-05
1.99911e-07
2.36048e-05
1.88136e-07
2.35498e-05
1.77204e-07
2.3498e-05
1.67044e-07
2.34491e-05
1.57621e-07
2.34029e-05
1.4884e-07
2.33592e-05
1.40597e-07
2.3318e-05
1.32856e-07
2.3279e-05
1.25561e-07
2.32421e-05
1.18644e-07
2.32072e-05
1.12053e-07
2.31743e-05
1.05711e-07
2.31433e-05
9.95739e-08
2.31142e-05
9.35496e-08
2.30869e-05
8.76115e-08
2.30614e-05
8.16261e-08
2.30379e-05
7.55762e-08
2.30162e-05
6.93305e-08
2.29965e-05
6.28475e-08
2.29789e-05
5.59662e-08
2.29636e-05
4.86379e-08
2.29507e-05
4.07087e-08
2.29404e-05
3.21084e-08
2.2933e-05
2.26013e-08
2.29288e-05
1.2197e-08
2.2928e-05
5.66794e-10
2.29311e-05
-1.2263e-08
2.29385e-05
-2.68418e-08
2.29508e-05
-4.30243e-08
2.29686e-05
-6.14335e-08
2.29927e-05
-8.19745e-08
2.30238e-05
-1.06019e-07
2.30486e-05
-8.54713e-08
2.30765e-05
-9.73798e-08
2.31075e-05
-1.07867e-07
2.31418e-05
-1.19836e-07
2.31793e-05
-1.31067e-07
2.32202e-05
-1.43479e-07
2.32646e-05
-1.5522e-07
2.33126e-05
-1.68219e-07
2.33645e-05
-1.80641e-07
2.34202e-05
-1.94255e-07
2.34804e-05
-2.0845e-07
2.35444e-05
-2.23001e-07
2.36137e-05
-2.41471e-07
2.36865e-05
-2.56193e-07
2.37666e-05
-2.82622e-07
2.38493e-05
-2.95647e-07
2.39426e-05
-3.34288e-07
2.40387e-05
-3.47686e-07
2.41474e-05
-3.91037e-07
2.42674e-05
-4.41977e-07
2.43894e-05
-4.16294e-07
2.45587e-05
-6.83768e-07
2.47007e-05
-2.94958e-07
2.49352e-05
-1.30285e-06
-1.28408e-06
2.51501e-05
3.5951e-05
-8.43618e-06
3.78564e-05
-1.73822e-06
3.8224e-05
1.83495e-06
3.78556e-05
3.16398e-06
3.73354e-05
2.94032e-06
3.6738e-05
2.76595e-06
3.61782e-05
2.38843e-06
3.56492e-05
2.13637e-06
3.517e-05
1.87472e-06
3.47332e-05
1.67136e-06
3.43375e-05
1.4907e-06
3.39784e-05
1.33834e-06
3.36522e-05
1.20492e-06
3.33551e-05
1.09056e-06
3.30838e-05
9.90862e-07
3.28359e-05
9.01726e-07
3.26084e-05
8.24834e-07
3.23992e-05
7.56524e-07
3.22066e-05
6.94838e-07
3.20288e-05
6.40267e-07
3.18642e-05
5.91711e-07
3.17116e-05
5.4779e-07
3.15699e-05
5.08056e-07
3.14381e-05
4.71986e-07
3.13153e-05
4.39588e-07
3.12007e-05
4.10017e-07
3.10935e-05
3.82932e-07
3.09932e-05
3.58231e-07
3.08992e-05
3.35597e-07
3.0811e-05
3.14721e-07
3.07281e-05
2.95573e-07
3.06501e-05
2.77931e-07
3.05767e-05
2.61602e-07
3.05075e-05
2.46439e-07
3.04422e-05
2.32343e-07
3.03806e-05
2.19262e-07
3.03224e-05
2.07072e-07
3.02674e-05
1.95628e-07
3.02154e-05
1.84878e-07
3.01663e-05
1.74747e-07
3.01198e-05
1.65141e-07
3.00759e-05
1.55987e-07
3.00344e-05
1.4718e-07
2.99953e-05
1.38657e-07
2.99585e-05
1.30293e-07
2.99241e-05
1.2205e-07
2.98919e-05
1.13746e-07
2.98621e-05
1.05354e-07
2.98347e-05
9.66962e-08
2.98098e-05
8.77112e-08
2.97875e-05
7.81832e-08
2.97681e-05
6.80381e-08
2.97516e-05
5.70689e-08
2.97384e-05
4.5175e-08
2.97288e-05
3.20454e-08
2.97231e-05
1.76782e-08
2.97217e-05
1.6397e-09
2.97252e-05
-1.60667e-08
2.97339e-05
-3.60976e-08
2.97488e-05
-5.83934e-08
2.97703e-05
-8.3685e-08
2.97996e-05
-1.11956e-07
2.98376e-05
-1.44959e-07
2.9868e-05
-1.16846e-07
2.99022e-05
-1.33025e-07
2.99402e-05
-1.47318e-07
2.99821e-05
-1.63492e-07
3.0028e-05
-1.78839e-07
3.00781e-05
-1.95609e-07
3.01324e-05
-2.11662e-07
3.01911e-05
-2.29165e-07
3.02545e-05
-2.46194e-07
3.03225e-05
-2.64459e-07
3.03959e-05
-2.83915e-07
3.04738e-05
-3.03204e-07
3.05581e-05
-3.28285e-07
3.06465e-05
-3.47484e-07
3.07435e-05
-3.82999e-07
3.08436e-05
-3.99533e-07
3.09561e-05
-4.50957e-07
3.10716e-05
-4.67331e-07
3.12024e-05
-5.25879e-07
3.13429e-05
-5.85524e-07
3.14954e-05
-5.70511e-07
3.16774e-05
-8.66112e-07
3.18781e-05
-4.89682e-07
3.21059e-05
-1.52591e-06
-1.51026e-06
3.23193e-05
4.42591e-05
-1.47388e-05
4.68465e-05
-4.32561e-06
4.75902e-05
1.09125e-06
4.74045e-05
3.34969e-06
4.69748e-05
3.36997e-06
4.63903e-05
3.35041e-06
4.58052e-05
2.97359e-06
4.52246e-05
2.71696e-06
4.46824e-05
2.41683e-06
4.41771e-05
2.17671e-06
4.3712e-05
1.95581e-06
4.32846e-05
1.7657e-06
4.28929e-05
1.59662e-06
4.25336e-05
1.44986e-06
4.22037e-05
1.32083e-06
4.19007e-05
1.20469e-06
4.16217e-05
1.10386e-06
4.13644e-05
1.0139e-06
4.11269e-05
9.32397e-07
4.09071e-05
8.60052e-07
4.07034e-05
7.95509e-07
4.05142e-05
7.37006e-07
4.03383e-05
6.83995e-07
4.01746e-05
6.35801e-07
4.00218e-05
5.9244e-07
3.9879e-05
5.52824e-07
3.97455e-05
5.16506e-07
3.96205e-05
4.83349e-07
3.95032e-05
4.52945e-07
3.93931e-05
4.24889e-07
3.92896e-05
3.99135e-07
3.91922e-05
3.75393e-07
3.91004e-05
3.53408e-07
3.90139e-05
3.32987e-07
3.89323e-05
3.13995e-07
3.88553e-05
2.96363e-07
3.87825e-05
2.79926e-07
3.87137e-05
2.64494e-07
3.86486e-05
2.49996e-07
3.8587e-05
2.36329e-07
3.85288e-05
2.2337e-07
3.84738e-05
2.11019e-07
3.84218e-05
1.99137e-07
3.83728e-05
1.87641e-07
3.83268e-05
1.76362e-07
3.82835e-05
1.65248e-07
3.82432e-05
1.5406e-07
3.82058e-05
1.42757e-07
3.81713e-05
1.31103e-07
3.81399e-05
1.19013e-07
3.81118e-05
1.06207e-07
3.80872e-05
9.25765e-08
3.80663e-05
7.78511e-08
3.80494e-05
6.18911e-08
3.8037e-05
4.42966e-08
3.80293e-05
2.50484e-08
3.8027e-05
3.58985e-09
3.80306e-05
-2.01137e-08
3.80408e-05
-4.68308e-08
3.80583e-05
-7.66158e-08
3.80841e-05
-1.10321e-07
3.81193e-05
-1.4803e-07
3.81652e-05
-1.9197e-07
3.82019e-05
-1.54761e-07
3.82433e-05
-1.76141e-07
3.82893e-05
-1.95077e-07
3.834e-05
-2.16338e-07
3.83957e-05
-2.3667e-07
3.84563e-05
-2.58676e-07
3.8522e-05
-2.79932e-07
3.8593e-05
-3.02822e-07
3.86697e-05
-3.25389e-07
3.87518e-05
-3.49185e-07
3.88403e-05
-3.74923e-07
3.89342e-05
-3.99829e-07
3.90357e-05
-4.32651e-07
3.91421e-05
-4.57244e-07
3.92583e-05
-5.03151e-07
3.93785e-05
-5.24091e-07
3.95125e-05
-5.89914e-07
3.96503e-05
-6.09881e-07
3.98064e-05
-6.86607e-07
3.99704e-05
-7.52954e-07
4.0157e-05
-7.59159e-07
4.03568e-05
-1.06623e-06
4.06125e-05
-7.39166e-07
4.08559e-05
-1.76401e-06
-1.75312e-06
4.10849e-05
5.4311e-05
-2.27075e-05
5.76676e-05
-7.68222e-06
5.88247e-05
-6.59069e-08
5.88503e-05
3.32412e-06
5.85483e-05
3.67189e-06
5.80139e-05
3.88487e-06
5.74362e-05
3.55119e-06
5.68288e-05
3.32435e-06
5.62408e-05
3.00482e-06
5.56772e-05
2.74035e-06
5.51476e-05
2.48537e-06
5.46532e-05
2.2601e-06
5.41943e-05
2.05551e-06
5.37693e-05
1.87495e-06
5.33758e-05
1.71429e-06
5.30122e-05
1.56836e-06
5.26755e-05
1.44054e-06
5.23637e-05
1.32578e-06
5.20748e-05
1.22135e-06
5.18067e-05
1.12822e-06
5.15574e-05
1.04481e-06
5.13255e-05
9.68979e-07
5.11095e-05
9.00109e-07
5.0908e-05
8.3737e-07
5.07197e-05
7.80788e-07
5.05436e-05
7.29015e-07
5.03787e-05
6.8149e-07
5.02241e-05
6.38039e-07
5.0079e-05
5.98157e-07
4.99426e-05
5.61325e-07
4.98144e-05
5.2748e-07
4.96936e-05
4.96252e-07
4.95798e-05
4.67318e-07
4.94724e-05
4.40427e-07
4.9371e-05
4.15409e-07
4.92753e-05
3.92166e-07
4.91848e-05
3.70484e-07
4.90992e-05
3.50128e-07
4.90182e-05
3.30997e-07
4.89417e-05
3.12958e-07
4.88692e-05
2.95851e-07
4.88007e-05
2.79544e-07
4.8736e-05
2.63858e-07
4.86749e-05
2.48682e-07
4.86175e-05
2.33797e-07
4.85636e-05
2.19131e-07
4.85132e-05
2.04382e-07
4.84664e-05
1.89482e-07
4.84233e-05
1.74134e-07
4.83841e-05
1.58218e-07
4.83488e-05
1.41379e-07
4.83178e-05
1.23466e-07
4.82913e-05
1.04131e-07
4.82699e-05
8.31863e-08
4.82538e-05
6.01274e-08
4.82436e-05
3.491e-08
4.82399e-05
6.83352e-09
4.82434e-05
-2.41903e-08
4.82549e-05
-5.90502e-08
4.82754e-05
-9.79488e-08
4.83059e-05
-1.41869e-07
4.83478e-05
-1.91024e-07
4.84027e-05
-2.48208e-07
4.84466e-05
-2.00187e-07
4.84962e-05
-2.2785e-07
4.85514e-05
-2.52411e-07
4.86124e-05
-2.79797e-07
4.86792e-05
-3.06113e-07
4.87519e-05
-3.34386e-07
4.88308e-05
-3.61861e-07
4.89159e-05
-3.91174e-07
4.90079e-05
-4.20335e-07
4.91063e-05
-4.50687e-07
4.92123e-05
-4.83837e-07
4.93247e-05
-5.15415e-07
4.94458e-05
-5.57195e-07
4.95729e-05
-5.88339e-07
4.97111e-05
-6.45952e-07
4.98545e-05
-6.72585e-07
5.00133e-05
-7.54281e-07
5.01768e-05
-7.78941e-07
5.03617e-05
-8.76815e-07
5.05532e-05
-9.48343e-07
5.07771e-05
-9.85371e-07
5.10025e-05
-1.29203e-06
5.1311e-05
-1.04142e-06
5.15809e-05
-2.02816e-06
-2.04184e-06
5.18549e-05
6.65094e-05
-3.26603e-05
7.07529e-05
-1.19257e-05
7.23729e-05
-1.68588e-06
7.26348e-05
3.06221e-06
7.24888e-05
3.81788e-06
7.20345e-05
4.33918e-06
7.14963e-05
4.0893e-06
7.08909e-05
3.92977e-06
7.02809e-05
3.61479e-06
6.96771e-05
3.34414e-06
6.90958e-05
3.06663e-06
6.85424e-05
2.81351e-06
6.80206e-05
2.57736e-06
6.7531e-05
2.36458e-06
6.7073e-05
2.17224e-06
6.66461e-05
1.99539e-06
6.62479e-05
1.83873e-06
6.58769e-05
1.69685e-06
6.55314e-05
1.56694e-06
6.52093e-05
1.45037e-06
6.49088e-05
1.3454e-06
6.46283e-05
1.24954e-06
6.43663e-05
1.16223e-06
6.41213e-05
1.08245e-06
6.38919e-05
1.01027e-06
6.36769e-05
9.44084e-07
6.34753e-05
8.83212e-07
6.3286e-05
8.27445e-07
6.31081e-05
7.76188e-07
6.29408e-05
7.28794e-07
6.27832e-05
6.85183e-07
6.26346e-05
6.44895e-07
6.24945e-05
6.07529e-07
6.23623e-05
5.72778e-07
6.22373e-05
5.40425e-07
6.21192e-05
5.10339e-07
6.20075e-05
4.82254e-07
6.19019e-05
4.55877e-07
6.18018e-05
4.31078e-07
6.17071e-05
4.07684e-07
6.16175e-05
3.8549e-07
6.15328e-05
3.64331e-07
6.14526e-05
3.43977e-07
6.1377e-05
3.24282e-07
6.13058e-05
3.04973e-07
6.1239e-05
2.85947e-07
6.11765e-05
2.66829e-07
6.11184e-05
2.47521e-07
6.10648e-05
2.27649e-07
6.10159e-05
2.07047e-07
6.09719e-05
1.85281e-07
6.0933e-05
1.62139e-07
6.08998e-05
1.37185e-07
6.08726e-05
1.10168e-07
6.08519e-05
8.04641e-08
6.08384e-05
4.79927e-08
6.08328e-05
1.18839e-08
6.08359e-05
-2.80179e-08
6.08486e-05
-7.27328e-08
6.08723e-05
-1.22657e-07
6.09081e-05
-1.78907e-07
6.09576e-05
-2.41861e-07
6.10226e-05
-3.14993e-07
6.10748e-05
-2.54241e-07
6.11339e-05
-2.89427e-07
6.11997e-05
-3.20769e-07
6.12723e-05
-3.55482e-07
6.1352e-05
-3.88943e-07
6.14387e-05
-4.24691e-07
6.15328e-05
-4.59556e-07
6.16343e-05
-4.96495e-07
6.17439e-05
-5.33455e-07
6.1861e-05
-5.71566e-07
6.19872e-05
-6.13405e-07
6.21209e-05
-6.52901e-07
6.22646e-05
-7.05002e-07
6.24158e-05
-7.44096e-07
6.25792e-05
-8.14764e-07
6.27496e-05
-8.48813e-07
6.29365e-05
-9.47731e-07
6.31301e-05
-9.78838e-07
6.33477e-05
-1.10048e-06
6.35717e-05
-1.17674e-06
6.38364e-05
-1.2527e-06
6.40956e-05
-1.55169e-06
6.44584e-05
-1.39823e-06
6.47595e-05
-2.32316e-06
-2.40111e-06
6.51037e-05
8.13386e-05
-4.49815e-05
8.6617e-05
-1.72042e-05
8.8764e-05
-3.83284e-06
8.92896e-05
2.53655e-06
8.9323e-05
3.78442e-06
8.89715e-05
4.69067e-06
8.84995e-05
4.56134e-06
8.79234e-05
4.50586e-06
8.73179e-05
4.22027e-06
8.66974e-05
3.96459e-06
8.6084e-05
3.67999e-06
8.5487e-05
3.41054e-06
8.49136e-05
3.15079e-06
8.43672e-05
2.91097e-06
8.38495e-05
2.68994e-06
8.33615e-05
2.48352e-06
8.29021e-05
2.29816e-06
8.24706e-05
2.12837e-06
8.20661e-05
1.9716e-06
8.16867e-05
1.82983e-06
8.13309e-05
1.70125e-06
8.09975e-05
1.58313e-06
8.06847e-05
1.4751e-06
8.03913e-05
1.37601e-06
8.01158e-05
1.28596e-06
7.98569e-05
1.20312e-06
7.96135e-05
1.12673e-06
7.93845e-05
1.05656e-06
7.91689e-05
9.91953e-07
7.89657e-05
9.32103e-07
7.87741e-05
8.76923e-07
7.85933e-05
8.2586e-07
7.84225e-05
7.78436e-07
7.82611e-05
7.34282e-07
7.81086e-05
6.93137e-07
7.79642e-05
6.54826e-07
7.78275e-05
6.19025e-07
7.76981e-05
5.85385e-07
7.75755e-05
5.53735e-07
7.74594e-05
5.23857e-07
7.73494e-05
4.955e-07
7.72453e-05
4.68451e-07
7.71468e-05
4.42426e-07
7.70539e-05
4.17239e-07
7.69663e-05
3.92551e-07
7.6884e-05
3.6822e-07
7.68069e-05
3.4379e-07
7.67353e-05
3.19121e-07
7.66691e-05
2.93753e-07
7.66085e-05
2.67457e-07
7.65539e-05
2.39712e-07
7.65057e-05
2.1023e-07
7.64641e-05
1.78469e-07
7.64299e-05
1.44101e-07
7.64036e-05
1.06368e-07
7.63859e-05
6.51342e-08
7.63777e-05
1.93307e-08
7.63801e-05
-3.12728e-08
7.6394e-05
-8.7848e-08
7.64211e-05
-1.5104e-07
7.64627e-05
-2.2209e-07
7.65208e-05
-3.01599e-07
7.65975e-05
-3.93846e-07
7.66592e-05
-3.18212e-07
7.6729e-05
-3.62333e-07
7.6807e-05
-4.01814e-07
7.68931e-05
-4.45236e-07
7.69875e-05
-4.87202e-07
7.70903e-05
-5.31819e-07
7.7202e-05
-5.75441e-07
7.73223e-05
-6.21382e-07
7.74522e-05
-6.67542e-07
7.75911e-05
-7.14803e-07
7.77404e-05
-7.66804e-07
7.78988e-05
-8.15682e-07
7.80687e-05
-8.79644e-07
7.82476e-05
-9.28351e-07
7.84401e-05
-1.01352e-06
7.86417e-05
-1.05711e-06
7.88611e-05
-1.17453e-06
7.90897e-05
-1.21457e-06
7.93446e-05
-1.36209e-06
7.96071e-05
-1.4442e-06
7.9917e-05
-1.56558e-06
8.02176e-05
-1.85284e-06
8.06386e-05
-1.81391e-06
8.09762e-05
-2.6547e-06
-2.84382e-06
8.14045e-05
9.93862e-05
-6.01258e-05
0.000105879
-2.36965e-05
0.000108633
-6.58705e-06
0.000109455
1.71408e-06
0.000109691
3.54848e-06
0.00010946
4.92159e-06
0.000109075
4.9468e-06
0.00010855
5.03009e-06
0.000107974
4.79686e-06
0.000107361
4.57722e-06
0.000106739
4.30218e-06
0.000106119
4.03031e-06
0.000105512
3.7579e-06
0.000104924
3.49943e-06
0.000104358
3.25576e-06
0.000103817
3.02403e-06
0.000103303
2.81265e-06
0.000102815
2.61633e-06
0.000102354
2.43315e-06
0.000101918
2.26595e-06
0.000101506
2.11292e-06
0.000101118
1.97128e-06
0.000100752
1.841e-06
0.000100408
1.7209e-06
0.000100083
1.61115e-06
9.97762e-05
1.50977e-06
9.94872e-05
1.41594e-06
9.92145e-05
1.32943e-06
9.8957e-05
1.24959e-06
9.87139e-05
1.17543e-06
9.84841e-05
1.10689e-06
9.82668e-05
1.04331e-06
9.80613e-05
9.84152e-07
9.78668e-05
9.28987e-07
9.76825e-05
8.77513e-07
9.7508e-05
8.29495e-07
9.73426e-05
7.84564e-07
9.71858e-05
7.42311e-07
9.70371e-05
7.02514e-07
9.68961e-05
6.64907e-07
9.67624e-05
6.29189e-07
9.66358e-05
5.95091e-07
9.6516e-05
5.62271e-07
9.64027e-05
5.30491e-07
9.62959e-05
4.99342e-07
9.61955e-05
4.68628e-07
9.61014e-05
4.3781e-07
9.60137e-05
4.06685e-07
9.59326e-05
3.74698e-07
9.58584e-05
3.41543e-07
9.57913e-05
3.06603e-07
9.57318e-05
2.69491e-07
9.56804e-05
2.29546e-07
9.56378e-05
1.86341e-07
9.56046e-05
1.38967e-07
9.55819e-05
8.72139e-08
9.55705e-05
2.97754e-08
9.55718e-05
-3.36492e-08
9.55869e-05
-1.04424e-07
9.56178e-05
-1.83494e-07
9.56658e-05
-2.72222e-07
9.57337e-05
-3.71501e-07
9.58238e-05
-4.8656e-07
9.58964e-05
-3.93612e-07
9.59786e-05
-4.48269e-07
9.60706e-05
-4.97474e-07
9.61722e-05
-5.51191e-07
9.62837e-05
-6.03248e-07
9.64051e-05
-6.58332e-07
9.6537e-05
-7.12306e-07
9.6679e-05
-7.68833e-07
9.68325e-05
-8.2582e-07
9.69964e-05
-8.83841e-07
9.71726e-05
-9.47704e-07
9.73594e-05
-1.00767e-06
9.75596e-05
-1.08524e-06
9.77706e-05
-1.14552e-06
9.79968e-05
-1.24677e-06
9.82344e-05
-1.30243e-06
9.84913e-05
-1.43963e-06
9.87606e-05
-1.49179e-06
9.90578e-05
-1.66678e-06
9.93657e-05
-1.75751e-06
9.97261e-05
-1.92935e-06
0.000100076
-2.20335e-06
0.000100559
-2.29231e-06
0.000100944
-3.03428e-06
-3.36913e-06
0.000101457
0.000121369
-7.8623e-05
0.000129287
-3.16141e-05
0.000132745
-1.00455e-05
0.000133905
5.54392e-07
0.000134369
3.08462e-06
0.000134274
5.01623e-06
0.000133991
5.22956e-06
0.000133536
5.48529e-06
0.000133008
5.3248e-06
0.000132425
5.16035e-06
0.000131817
4.91038e-06
0.000131197
4.65011e-06
0.000130578
4.37701e-06
0.000129967
4.11005e-06
0.000129371
3.85202e-06
0.000128794
3.60168e-06
0.000128237
3.36945e-06
0.000127703
3.15032e-06
0.000127193
2.94338e-06
0.000126707