/*--------------------------------*- C++ -*----------------------------------*\
| =========                 |                                                 |
| \\      /  F ield         | OpenFOAM: The Open Source CFD Toolbox           |
|  \\    /   O peration     | Version:  2306                                  |
|   \\  /    A nd           | Website:  www.openfoam.com                      |
|    \\/     M anipulation  |                                                 |
\*---------------------------------------------------------------------------*/
FoamFile
{
    version     2.0;
    format      ascii;
    arch        "LSB;label=32;scalar=64";
    class       volSymmTensorField;
    location    "1600";
    object      turbulenceProperties:devReff;
}
// * * * * * * * * * * * * * * * * * * * * * * * * * * * * * * * * * * * * * //

dimensions      [0 2 -2 0 0 0 0];

internalField   nonuniform List<symmTensor> 
20540
(
(52.2549 -95.0455 -0 -52.2542 -0 -0.000742246)
(90.1442 -109.885 -0 -84.0583 -0 -6.08584)
(52.1992 -198.261 -0 -52.1997 -0 0.000473605)
(24.4158 -229.345 -0 -30.0658 -0 5.65009)
(52.1249 -213.625 -0 -52.1252 -0 0.000208043)
(-9.93476 -247.349 -0 8.73493 -0 1.19983)
(52.0288 -227.144 -0 -52.0288 -0 -2.52505e-05)
(-24.2256 -263.313 -0 25.0435 -0 -0.817894)
(51.9059 -238.744 -0 -51.9059 -0 -5.79892e-05)
(-30.5102 -277.155 -0 30.9519 -0 -0.441649)
(51.7503 -248.309 -0 -51.7503 -0 -4.52958e-05)
(-34.4657 -288.749 -0 34.526 -0 -0.0603245)
(51.555 -256.014 -0 -51.555 -0 -5.61243e-05)
(-37.5306 -298.315 -0 37.5151 -0 0.0154733)
(51.3117 -262.071 -0 -51.3116 -0 -8.36507e-05)
(-39.9609 -306.12 -0 39.957 -0 0.00390985)
(51.0103 -266.678 -0 -51.0101 -0 -0.000124661)
(-41.8942 -312.419 -0 41.897 -0 -0.00281828)
(50.6387 -270.001 -0 -50.6385 -0 -0.000184176)
(-43.4487 -317.435 -0 43.4503 -0 -0.00159106)
(50.1824 -272.168 -0 -50.1821 -0 -0.000271921)
(-44.6977 -321.353 -0 44.6973 -0 0.000401185)
(49.6237 -273.269 -0 -49.6233 -0 -0.000401837)
(-45.6766 -324.322 -0 45.6749 -0 0.00166118)
(48.9417 -273.359 -0 -48.9411 -0 -0.0005943)
(-46.3983 -326.453 -0 46.3955 -0 0.00279623)
(48.1108 -272.46 -0 -48.1099 -0 -0.0008795)
(-46.8607 -327.83 -0 46.8564 -0 0.00428881)
(47.1009 -270.564 -0 -47.0996 -0 -0.00130214)
(-47.0495 -328.503 -0 47.0431 -0 0.00640705)
(45.8759 -267.631 -0 -45.874 -0 -0.00192815)
(-46.9395 -328.494 -0 46.9301 -0 0.00944975)
(44.3936 -263.597 -0 -44.3908 -0 -0.00285435)
(-46.4947 -327.792 -0 46.4809 -0 0.0138597)
(42.6048 -258.367 -0 -42.6006 -0 -0.00422225)
(-45.6682 -326.351 -0 45.648 -0 0.0202881)
(40.4532 -251.823 -0 -40.447 -0 -0.00623817)
(-44.4018 -324.084 -0 44.3722 -0 0.0296864)
(37.8764 -243.826 -0 -37.8672 -0 -0.00920048)
(-42.6261 -320.854 -0 42.5826 -0 0.043454)
(34.8081 -234.219 -0 -34.7945 -0 -0.0135277)
(-40.2608 -316.464 -0 40.1971 -0 0.0636655)
(31.183 -222.832 -0 -31.1632 -0 -0.0197728)
(-37.2175 -310.639 -0 37.1242 -0 0.0933937)
(26.9461 -209.499 -0 -26.9174 -0 -0.028664)
(-33.4047 -303.008 -0 33.2676 -0 0.137091)
(22.0683 -194.064 -0 -22.0268 -0 -0.0414292)
(-28.7372 -293.085 -0 28.536 -0 0.201201)
(16.571 -176.408 -0 -16.5103 -0 -0.0606635)
(-23.1519 -280.241 -0 22.8566 -0 0.295284)
(10.5674 -156.476 -0 -10.4775 -0 -0.0898526)
(-16.6285 -263.674 -0 16.1919 -0 0.4366)
(4.33088 -134.308 -0 -4.20673 -0 -0.124158)
(-9.21713 -242.364 -0 8.55676 -0 0.660376)
(-1.60207 -110.07 -0 1.73215 -0 -0.130078)
(-1.09055 -214.958 -0 0.0736762 -0 1.01687)
(-6.37505 -84.0302 -0 6.46045 -0 -0.0853989)
(7.29753 -179.496 -0 -8.78372 -0 1.48619)
(-8.84056 -55.5854 -0 8.882 -0 -0.0414382)
(15.0147 -133.32 -0 -16.9152 -0 1.90044)
(-8.81326 -29.8205 -0 8.95977 -0 -0.146501)
(19.7986 -78.4227 -0 -21.8955 -0 2.09697)
(-7.55156 -7.95102 -0 7.82247 -0 -0.270909)
(21.5753 -24.0407 -0 -23.6472 -0 2.07191)
(-7.67913 9.96808 -0 7.94123 -0 -0.262101)
(21.4926 28.948 -0 -23.5642 -0 2.07166)
(-8.90476 32.2449 -0 9.02716 -0 -0.122401)
(19.5663 83.4746 -0 -21.6269 -0 2.06064)
(-8.73278 57.9074 -0 8.77261 -0 -0.0398325)
(14.6919 137.235 -0 -16.5133 -0 1.82135)
(-6.05631 85.5147 -0 6.14821 -0 -0.091897)
(7.18212 182.037 -0 -8.59422 -0 1.4121)
(-1.22049 111.077 -0 1.35089 -0 -0.130403)
(-0.986179 216.816 -0 0.0101073 -0 0.976071)
(4.70804 134.985 -0 -4.58837 -0 -0.119665)
(-8.9645 243.967 -0 8.31862 -0 0.645874)
(10.9268 156.974 -0 -10.84 -0 -0.0867746)
(-16.316 265.251 -0 15.8815 -0 0.434488)
(16.9318 176.868 -0 -16.8721 -0 -0.0596772)
(-22.856 281.94 -0 22.5579 -0 0.29812)
(22.4588 194.612 -0 -22.4173 -0 -0.0415359)
(-28.5172 294.989 -0 28.3113 -0 0.205874)
(27.3923 210.24 -0 -27.3631 -0 -0.0291776)
(-33.3036 305.158 -0 33.1614 -0 0.142212)
(31.7042 223.849 -0 -31.6838 -0 -0.0204049)
(-37.2643 313.049 -0 37.166 -0 0.0982679)
(35.4167 235.572 -0 -35.4025 -0 -0.0141567)
(-40.4733 319.134 -0 40.4053 -0 0.0679588)
(38.5788 245.559 -0 -38.569 -0 -0.00976681)
(-43.0141 323.776 -0 42.967 -0 0.047062)
(41.251 253.964 -0 -41.2443 -0 -0.00671636)
(-44.9697 327.252 -0 44.9371 -0 0.032631)
(43.4961 260.935 -0 -43.4915 -0 -0.0046088)
(-46.4172 329.763 -0 46.3945 -0 0.0226465)
(45.3743 266.606 -0 -45.3711 -0 -0.00315756)
(-47.4244 331.453 -0 47.4087 -0 0.0157272)
(46.9403 271.093 -0 -46.9382 -0 -0.00216097)
(-48.0497 332.417 -0 48.0387 -0 0.0109224)
(48.2428 274.491 -0 -48.2413 -0 -0.00147812)
(-48.341 332.714 -0 48.3335 -0 0.00757319)
(49.3236 276.871 -0 -49.3226 -0 -0.00101095)
(-48.3368 332.366 -0 48.3316 -0 0.00522145)
(50.2189 278.283 -0 -50.2182 -0 -0.00069161)
(-48.0659 331.366 -0 48.0623 -0 0.00355152)
(50.959 278.748 -0 -50.9586 -0 -0.000473375)
(-47.5474 329.683 -0 47.545 -0 0.00234748)
(51.5698 278.262 -0 -51.5695 -0 -0.000324218)
(-46.7907 327.255 -0 46.7893 -0 0.00139299)
(52.0727 276.791 -0 -52.0725 -0 -0.000222246)
(-45.7941 323.996 -0 45.7938 -0 0.000241173)
(52.4858 274.272 -0 -52.4856 -0 -0.000152493)
(-44.5417 319.789 -0 44.5433 -0 -0.00166573)
(52.824 270.609 -0 -52.8239 -0 -0.00010458)
(-42.9953 314.484 -0 42.9981 -0 -0.00276349)
(53.1001 265.669 -0 -53.1 -0 -7.12077e-05)
(-41.0801 307.899 -0 41.0761 -0 0.00397491)
(53.3243 259.284 -0 -53.3242 -0 -4.86006e-05)
(-38.6767 299.81 -0 38.6622 -0 0.0144793)
(53.5054 251.246 -0 -53.5053 -0 -3.87095e-05)
(-35.6457 289.958 -0 35.7098 -0 -0.0640059)
(53.6506 241.329 -0 -53.6506 -0 -4.56984e-05)
(-31.7188 278.062 -0 32.1611 -0 -0.442245)
(53.7661 229.313 -0 -53.7661 -0 -1.70931e-05)
(-25.422 263.856 -0 26.2124 -0 -0.790445)
(53.857 215.073 -0 -53.8572 -0 0.00017701)
(-11.0753 247.19 -0 9.85226 -0 1.22302)
(53.9277 198.871 -0 -53.9281 -0 0.000440803)
(23.3754 228.357 -0 -28.8472 -0 5.47185)
(53.9804 95.175 -0 -53.9798 -0 -0.000686708)
(88.0409 109.227 -0 -82.114 -0 -5.92695)
(0.00433587 -9.39348 -0 -0.00307332 -0 -0.00126255)
(0.00110618 -7.18699 -0 -0.00117561 -0 6.94233e-05)
(0.000375293 -6.53749 -0 -0.000408397 -0 3.31039e-05)
(0.000244681 -6.0345 -0 -0.000253409 -0 8.72808e-06)
(0.000174508 -5.73982 -0 -0.000181064 -0 6.55531e-06)
(0.000142946 -5.48037 -0 -0.00014587 -0 2.92393e-06)
(0.000117084 -5.29099 -0 -0.00011993 -0 2.84631e-06)
(0.000102244 -5.12571 -0 -0.000104139 -0 1.89565e-06)
(8.938e-05 -4.98968 -0 -9.11014e-05 -0 1.72148e-06)
(8.02753e-05 -4.87127 -0 -8.16713e-05 -0 1.39598e-06)
(7.26103e-05 -4.76855 -0 -7.38442e-05 -0 1.23392e-06)
(6.64476e-05 -4.67803 -0 -6.75251e-05 -0 1.07747e-06)
(6.11606e-05 -4.59772 -0 -6.21199e-05 -0 9.59279e-07)
(5.67506e-05 -4.5262 -0 -5.76138e-05 -0 8.63177e-07)
(5.29495e-05 -4.46172 -0 -5.37313e-05 -0 7.81739e-07)
(4.95468e-05 -4.40372 -0 -5.02595e-05 -0 7.12632e-07)
(4.66678e-05 -4.35114 -0 -4.73236e-05 -0 6.55781e-07)
(4.4109e-05 -4.30323 -0 -4.47156e-05 -0 6.06557e-07)
(4.17745e-05 -4.25951 -0 -4.23369e-05 -0 5.62447e-07)
(3.97265e-05 -4.21953 -0 -4.02526e-05 -0 5.26108e-07)
(3.79092e-05 -4.18274 -0 -3.84033e-05 -0 4.94117e-07)
(3.6253e-05 -4.14888 -0 -3.67186e-05 -0 4.65627e-07)
(3.47455e-05 -4.11759 -0 -3.51859e-05 -0 4.40453e-07)
(3.33691e-05 -4.08867 -0 -3.37873e-05 -0 4.18239e-07)
(3.2141e-05 -4.06184 -0 -3.25402e-05 -0 3.99229e-07)
(3.101e-05 -4.0369 -0 -3.13915e-05 -0 3.81487e-07)
(2.99645e-05 -4.01369 -0 -3.03304e-05 -0 3.65847e-07)
(2.90105e-05 -3.99204 -0 -2.9362e-05 -0 3.51563e-07)
(2.81316e-05 -3.97182 -0 -2.84706e-05 -0 3.38933e-07)
(2.73117e-05 -3.95291 -0 -2.76385e-05 -0 3.2678e-07)
(2.65604e-05 -3.9352 -0 -2.68766e-05 -0 3.16275e-07)
(2.58649e-05 -3.91858 -0 -2.61709e-05 -0 3.06025e-07)
(2.52155e-05 -3.90298 -0 -2.55121e-05 -0 2.96592e-07)
(2.46053e-05 -3.88831 -0 -2.48925e-05 -0 2.87141e-07)
(2.40324e-05 -3.8745 -0 -2.43107e-05 -0 2.78398e-07)
(2.34982e-05 -3.8615 -0 -2.37679e-05 -0 2.6968e-07)
(2.29947e-05 -3.84924 -0 -2.32559e-05 -0 2.61221e-07)
(2.25101e-05 -3.83767 -0 -2.27626e-05 -0 2.52491e-07)
(2.20446e-05 -3.82675 -0 -2.22886e-05 -0 2.44011e-07)
(2.15927e-05 -3.81644 -0 -2.18282e-05 -0 2.35468e-07)
(2.11461e-05 -3.80671 -0 -2.13731e-05 -0 2.26935e-07)
(2.06979e-05 -3.79752 -0 -2.09162e-05 -0 2.18322e-07)
(2.02351e-05 -3.78885 -0 -2.04446e-05 -0 2.09525e-07)
(1.97496e-05 -3.78069 -0 -1.99503e-05 -0 2.00628e-07)
(1.92221e-05 -3.77301 -0 -1.94134e-05 -0 1.91247e-07)
(1.86444e-05 -3.76582 -0 -1.88258e-05 -0 1.81489e-07)
(1.79816e-05 -3.7591 -0 -1.81521e-05 -0 1.705e-07)
(1.72255e-05 -3.75287 -0 -1.73842e-05 -0 1.58767e-07)
(1.63336e-05 -3.74713 -0 -1.64787e-05 -0 1.45054e-07)
(1.52847e-05 -3.7419 -0 -1.54148e-05 -0 1.30016e-07)
(1.40191e-05 -3.7372 -0 -1.4131e-05 -0 1.11861e-07)
(1.25082e-05 -3.73308 -0 -1.2599e-05 -0 9.08375e-08)
(1.06834e-05 -3.72956 -0 -1.0745e-05 -0 6.1596e-08)
(8.49023e-06 -3.72671 -0 -8.51252e-06 -0 2.22878e-08)
(5.82692e-06 -3.72456 -0 -5.7801e-06 -0 -4.68197e-08)
(2.63247e-06 -3.72322 -0 -2.51183e-06 -0 -1.20632e-07)
(-1.20869e-06 -3.72275 -0 1.47486e-06 -0 -2.66171e-07)
(-5.86102e-06 -3.72323 -0 6.23899e-06 -0 -3.77976e-07)
(-1.15203e-05 -3.72483 -0 1.21539e-05 -0 -6.33597e-07)
(-1.81584e-05 -3.72762 -0 1.88836e-05 -0 -7.25106e-07)
(-2.63324e-05 -3.73184 -0 2.74314e-05 -0 -1.09896e-06)
(-3.59837e-05 -3.73755 -0 3.71624e-05 -0 -1.17872e-06)
(-4.78158e-05 -3.74515 -0 4.95311e-05 -0 -1.71529e-06)
(-6.00273e-05 -3.75307 -0 6.32352e-05 -0 -3.20796e-06)
(-7.19085e-05 -3.76027 -0 7.70066e-05 -0 -5.09814e-06)
(-8.43479e-05 -3.76831 -0 9.01069e-05 -0 -5.75897e-06)
(-9.92051e-05 -3.77735 -0 0.000106513 -0 -7.30804e-06)
(-0.000114144 -3.78728 -0 0.00012225 -0 -8.10615e-06)
(-0.000131764 -3.79817 -0 0.000141886 -0 -1.01211e-05)
(-0.000150402 -3.81002 -0 0.00016127 -0 -1.08682e-05)
(-0.000172275 -3.82297 -0 0.000185195 -0 -1.29201e-05)
(-0.000195001 -3.83694 -0 0.0002077 -0 -1.26992e-05)
(-0.000221759 -3.85223 -0 0.000236465 -0 -1.47058e-05)
(-0.000250333 -3.86852 -0 0.000264753 -0 -1.44193e-05)
(-0.000283999 -3.88641 -0 0.000301595 -0 -1.75958e-05)
(-0.000323378 -3.90523 -0 0.000342536 -0 -1.91584e-05)
(-0.000365805 -3.92626 -0 0.000391673 -0 -2.58682e-05)
(-0.000425777 -3.94765 -0 0.000454615 -0 -2.88376e-05)
(-0.000477492 -3.97336 -0 0.000519417 -0 -4.19257e-05)
(-0.000576718 -3.99697 -0 0.000616557 -0 -3.9839e-05)
(-0.000639058 -4.03087 -0 0.000702331 -0 -6.32739e-05)
(-0.000793623 -4.05605 -0 0.000833911 -0 -4.02886e-05)
(-0.000935769 -4.1032 -0 0.00102168 -0 -8.5911e-05)
(-0.0010481 -4.13478 -0 0.00106374 -0 -1.56407e-05)
(-0.00164415 -4.19219 -0 0.00173146 -0 -8.73141e-05)
(-0.00112995 -4.26403 -0 0.0011306 -0 -6.52401e-07)
(-0.00327612 -4.29138 -0 0.00319136 -0 8.47656e-05)
(-0.036382 -4.4788 3.05726e-21 0.0316753 -0 0.00470665)
(0.0047423 -9.62542 -0 -0.00564682 -0 0.000904518)
(0.00184563 -6.27363 -0 -0.0017545 -0 -9.11252e-05)
(0.00100188 -5.73069 -0 -0.000990904 -0 -1.09737e-05)
(0.000720479 -5.3084 -0 -0.00071383 -0 -6.64885e-06)
(0.000524845 -5.05861 -0 -0.000523845 -0 -9.99946e-07)
(0.000436012 -4.84153 -0 -0.000432798 -0 -3.21363e-06)
(0.000358327 -4.68265 -0 -0.000356578 -0 -1.74901e-06)
(0.000314187 -4.54542 -0 -0.000311986 -0 -2.20132e-06)
(0.000275162 -4.4326 -0 -0.000273387 -0 -1.77511e-06)
(0.000247566 -4.3349 -0 -0.000245816 -0 -1.74946e-06)
(0.000224225 -4.25032 -0 -0.000222637 -0 -1.58736e-06)
(0.000205422 -4.17599 -0 -0.00020393 -0 -1.49171e-06)
(0.000189266 -4.11015 -0 -0.000187877 -0 -1.3889e-06)
(0.000175765 -4.05161 -0 -0.000174462 -0 -1.30303e-06)
(0.000164121 -3.9989 -0 -0.000162897 -0 -1.22397e-06)
(0.00015368 -3.95153 -0 -0.000152528 -0 -1.15156e-06)
(0.000144839 -3.90861 -0 -0.000143751 -0 -1.08777e-06)
(0.000136974 -3.86953 -0 -0.000135944 -0 -1.03008e-06)
(0.000129795 -3.83388 -0 -0.000128819 -0 -9.75266e-07)
(0.000123487 -3.80129 -0 -0.000122559 -0 -9.27609e-07)
(0.000117889 -3.77131 -0 -0.000117006 -0 -8.83136e-07)
(0.000112783 -3.74372 -0 -0.00011194 -0 -8.43066e-07)
(0.000108133 -3.71823 -0 -0.000107328 -0 -8.05148e-07)
(0.000103884 -3.69467 -0 -0.000103113 -0 -7.71183e-07)
(0.000100091 -3.67281 -0 -9.93509e-05 -0 -7.39628e-07)
(9.65962e-05 -3.6525 -0 -9.58852e-05 -0 -7.11065e-07)
(9.33637e-05 -3.63358 -0 -9.26799e-05 -0 -6.83815e-07)
(9.0413e-05 -3.61595 -0 -8.97533e-05 -0 -6.5968e-07)
(8.76932e-05 -3.59948 -0 -8.70566e-05 -0 -6.36634e-07)
(8.51557e-05 -3.58407 -0 -8.45398e-05 -0 -6.15913e-07)
(8.28285e-05 -3.56963 -0 -8.22319e-05 -0 -5.96673e-07)
(8.0675e-05 -3.55609 -0 -8.00956e-05 -0 -5.79426e-07)
(7.86637e-05 -3.54337 -0 -7.81002e-05 -0 -5.63453e-07)
(7.67748e-05 -3.53141 -0 -7.62255e-05 -0 -5.49281e-07)
(7.50004e-05 -3.52016 -0 -7.44641e-05 -0 -5.36329e-07)
(7.33475e-05 -3.50955 -0 -7.28224e-05 -0 -5.25119e-07)
(7.17903e-05 -3.49956 -0 -7.12752e-05 -0 -5.15086e-07)
(7.02937e-05 -3.49012 -0 -6.97874e-05 -0 -5.06289e-07)
(6.88573e-05 -3.48121 -0 -6.83587e-05 -0 -4.98614e-07)
(6.74659e-05 -3.4728 -0 -6.69739e-05 -0 -4.91933e-07)
(6.60936e-05 -3.46486 -0 -6.56075e-05 -0 -4.86141e-07)
(6.47206e-05 -3.45735 -0 -6.42395e-05 -0 -4.81072e-07)
(6.33075e-05 -3.45028 -0 -6.28308e-05 -0 -4.7666e-07)
(6.18312e-05 -3.4436 -0 -6.13584e-05 -0 -4.72736e-07)
(6.02332e-05 -3.43732 -0 -5.9764e-05 -0 -4.69243e-07)
(5.84908e-05 -3.43143 -0 -5.80246e-05 -0 -4.66257e-07)
(5.65001e-05 -3.42592 -0 -5.60363e-05 -0 -4.63763e-07)
(5.42379e-05 -3.4208 -0 -5.37761e-05 -0 -4.61801e-07)
(5.15797e-05 -3.41607 -0 -5.11192e-05 -0 -4.60531e-07)
(4.8465e-05 -3.41174 -0 -4.80052e-05 -0 -4.59772e-07)
(4.47191e-05 -3.40783 -0 -4.42575e-05 -0 -4.61661e-07)
(4.0261e-05 -3.40438 -0 -3.97957e-05 -0 -4.65344e-07)
(3.48955e-05 -3.40138 -0 -3.44136e-05 -0 -4.81836e-07)
(2.84668e-05 -3.39892 -0 -2.7967e-05 -0 -4.9979e-07)
(2.06878e-05 -3.39699 -0 -2.01253e-05 -0 -5.62471e-07)
(1.13638e-05 -3.39569 -0 -1.07629e-05 -0 -6.00871e-07)
(2.20712e-07 -3.39505 -0 5.30761e-07 -0 -7.51473e-07)
(-1.3307e-05 -3.39515 -0 1.40941e-05 -0 -7.8716e-07)
(-2.96172e-05 -3.39609 -0 3.06727e-05 -0 -1.0555e-06)
(-4.902e-05 -3.39794 -0 5.01178e-05 -0 -1.09776e-06)
(-7.23808e-05 -3.40086 -0 7.38316e-05 -0 -1.45083e-06)
(-0.000100567 -3.40491 -0 0.000102035 -0 -1.46793e-06)
(-0.000134311 -3.41037 -0 0.000136531 -0 -2.22087e-06)
(-0.000167576 -3.41613 -0 0.000171342 -0 -3.76565e-06)
(-0.000200054 -3.42142 -0 0.000205803 -0 -5.74836e-06)
(-0.000235142 -3.42732 -0 0.00024117 -0 -6.02764e-06)
(-0.000275167 -3.43391 -0 0.000282937 -0 -7.76961e-06)
(-0.000317207 -3.44117 -0 0.000325659 -0 -8.45145e-06)
(-0.000365233 -3.44913 -0 0.000375975 -0 -1.07413e-05)
(-0.000417579 -3.45779 -0 0.000428569 -0 -1.09905e-05)
(-0.0004772 -3.46724 -0 0.000490406 -0 -1.32059e-05)
(-0.000542351 -3.4774 -0 0.000554677 -0 -1.2326e-05)
(-0.000615501 -3.48851 -0 0.000629886 -0 -1.43844e-05)
(-0.000697588 -3.50032 -0 0.000711079 -0 -1.34903e-05)
(-0.000788659 -3.51327 -0 0.000805264 -0 -1.6605e-05)
(-0.000899615 -3.52686 -0 0.000916953 -0 -1.73384e-05)
(-0.00101061 -3.54206 -0 0.00103448 -0 -2.3869e-05)
(-0.0011793 -3.55739 -0 0.00120336 -0 -2.40585e-05)
(-0.00130585 -3.57587 -0 0.00134353 -0 -3.76815e-05)
(-0.00159025 -3.59248 -0 0.0016162 -0 -2.5951e-05)
(-0.00173161 -3.61644 -0 0.00178758 -0 -5.59688e-05)
(-0.00217847 -3.63365 -0 0.00218067 -0 -2.20082e-06)
(-0.00254167 -3.66561 -0 0.00261892 -0 -7.72503e-05)
(-0.00282488 -3.68732 -0 0.00269941 -0 0.000125474)
(-0.0047332 -3.72167 -0 0.00496079 -0 -0.000227591)
(-0.00255817 -3.77373 -0 0.00138181 -0 0.00117636)
(-0.0112932 -3.77484 -0 0.0144495 -0 -0.00315632)
(-0.0211295 -3.89031 -7.43203e-21 0.0228045 -0 -0.001675)
(0.000147403 -12.1096 -0 -0.00297545 -0 0.00282805)
(0.00212621 -7.89916 -0 -0.00210026 -0 -2.59473e-05)
(0.00212597 -7.05648 -0 -0.00212106 -0 -4.91469e-06)
(0.00175562 -6.45757 -0 -0.00175833 -0 2.7015e-06)
(0.00130688 -6.0917 -0 -0.00131891 -0 1.20306e-05)
(0.00108791 -5.77601 -0 -0.00109488 -0 6.97225e-06)
(0.000888281 -5.54012 -0 -0.000896103 -0 7.82262e-06)
(0.000773014 -5.33729 -0 -0.000778878 -0 5.8637e-06)
(0.000671605 -5.16934 -0 -0.000677134 -0 5.52902e-06)
(0.000599679 -5.02419 -0 -0.000604427 -0 4.74829e-06)
(0.000539308 -4.89842 -0 -0.000543634 -0 4.32524e-06)
(0.000490872 -4.78805 -0 -0.000494774 -0 3.90221e-06)
(0.00044957 -4.69041 -0 -0.000453141 -0 3.57071e-06)
(0.000415219 -4.60375 -0 -0.000418502 -0 3.28258e-06)
(0.000385766 -4.52586 -0 -0.00038881 -0 3.04386e-06)
(0.000359578 -4.456 -0 -0.000362405 -0 2.82671e-06)
(0.000337456 -4.39284 -0 -0.000340103 -0 2.64731e-06)
(0.000317896 -4.33545 -0 -0.000320382 -0 2.4863e-06)
(0.000300165 -4.28321 -0 -0.00030251 -0 2.34553e-06)
(0.000284633 -4.23554 -0 -0.000286851 -0 2.21774e-06)
(0.000270898 -4.19179 -0 -0.000273008 -0 2.10936e-06)
(0.000258437 -4.1516 -0 -0.000260446 -0 2.00895e-06)
(0.000247134 -4.11454 -0 -0.000249055 -0 1.9209e-06)
(0.000236845 -4.08035 -0 -0.000238683 -0 1.83868e-06)
(0.000227675 -4.04869 -0 -0.000229442 -0 1.76727e-06)
(0.000219262 -4.01931 -0 -0.000220963 -0 1.70112e-06)
(0.000211507 -3.99202 -0 -0.000213148 -0 1.64121e-06)
(0.000204443 -3.9666 -0 -0.000206029 -0 1.58554e-06)
(0.000197949 -3.94289 -0 -0.000199485 -0 1.53505e-06)
(0.000191911 -3.92075 -0 -0.000193398 -0 1.48745e-06)
(0.000186381 -3.90005 -0 -0.000187824 -0 1.44334e-06)
(0.000181274 -3.88064 -0 -0.000182677 -0 1.40208e-06)
(0.000176517 -3.86244 -0 -0.00017788 -0 1.36289e-06)
(0.000172062 -3.84535 -0 -0.000173387 -0 1.32516e-06)
(0.000167885 -3.82929 -0 -0.000169173 -0 1.28849e-06)
(0.000163999 -3.81417 -0 -0.000165252 -0 1.25276e-06)
(0.000160347 -3.79993 -0 -0.000161565 -0 1.21779e-06)
(0.00015685 -3.7865 -0 -0.000158033 -0 1.1831e-06)
(0.000153502 -3.77384 -0 -0.00015465 -0 1.14803e-06)
(0.000150268 -3.76189 -0 -0.000151381 -0 1.11284e-06)
(0.000147093 -3.75061 -0 -0.000148169 -0 1.07677e-06)
(0.000143928 -3.73997 -0 -0.000144968 -0 1.03954e-06)
(0.00014069 -3.72992 -0 -0.00014169 -0 1.00018e-06)
(0.000137325 -3.72045 -0 -0.000138283 -0 9.5837e-07)
(0.000133704 -3.71154 -0 -0.000134616 -0 9.1211e-07)
(0.00012978 -3.70317 -0 -0.000130641 -0 8.61105e-07)
(0.000125325 -3.69532 -0 -0.000126128 -0 8.02499e-07)
(0.000120287 -3.68801 -0 -0.000121021 -0 7.3465e-07)
(0.000114395 -3.68122 -0 -0.000115048 -0 6.5395e-07)
(0.000107516 -3.67499 -0 -0.000108076 -0 5.59313e-07)
(9.92759e-05 -3.6693 -0 -9.9721e-05 -0 4.45119e-07)
(8.9483e-05 -3.66421 -0 -8.97904e-05 -0 3.07343e-07)
(7.77227e-05 -3.65972 -0 -7.78489e-05 -0 1.26211e-07)
(6.36562e-05 -3.65591 -0 -6.35715e-05 -0 -8.47409e-08)
(4.66767e-05 -3.65279 -0 -4.62596e-05 -0 -4.17099e-07)
(2.63551e-05 -3.65047 -0 -2.56162e-05 -0 -7.38967e-07)
(2.07793e-06 -3.64897 -0 -7.34227e-07 -0 -1.34371e-06)
(-2.71781e-05 -3.64837 -0 2.89661e-05 -0 -1.78791e-06)
(-6.25376e-05 -3.64884 -0 6.52378e-05 -0 -2.7003e-06)
(-0.000104839 -3.65036 -0 0.000108143 -0 -3.30389e-06)
(-0.000155242 -3.65318 -0 0.000159845 -0 -4.60267e-06)
(-0.000216366 -3.65736 -0 0.000221631 -0 -5.26443e-06)
(-0.000289839 -3.66324 -0 0.000296845 -0 -7.00602e-06)
(-0.00036205 -3.66961 -0 0.000372093 -0 -1.00431e-05)
(-0.000430994 -3.67557 -0 0.00044552 -0 -1.45256e-05)
(-0.000505058 -3.68223 -0 0.000521197 -0 -1.61388e-05)
(-0.00059031 -3.68961 -0 0.000610218 -0 -1.99085e-05)
(-0.000680974 -3.6978 -0 0.0007027 -0 -2.17267e-05)
(-0.000783225 -3.70679 -0 0.000809779 -0 -2.65534e-05)
(-0.000895347 -3.71659 -0 0.000923067 -0 -2.77201e-05)
(-0.00102199 -3.72725 -0 0.00105459 -0 -3.25953e-05)
(-0.00116222 -3.73873 -0 0.00119428 -0 -3.20616e-05)
(-0.00131828 -3.7512 -0 0.00135494 -0 -3.66533e-05)
(-0.00149573 -3.76451 -0 0.00153227 -0 -3.65395e-05)
(-0.00168842 -3.77897 -0 0.00173132 -0 -4.28982e-05)
(-0.00192789 -3.79431 -0 0.00197423 -0 -4.63434e-05)
(-0.00215532 -3.81113 -0 0.00221411 -0 -5.87896e-05)
(-0.00251451 -3.82835 -0 0.00257777 -0 -6.32621e-05)
(-0.0027593 -3.84839 -0 0.00284815 -0 -8.88514e-05)
(-0.00335089 -3.86657 -0 0.003427 -0 -7.61169e-05)
(-0.00362114 -3.89197 -0 0.00375261 -0 -0.000131469)
(-0.00448928 -3.90929 -0 0.00454145 -0 -5.21673e-05)
(-0.00527137 -3.94308 -0 0.0054531 -0 -0.000181738)
(-0.00549064 -3.96143 -0 0.00539052 -0 0.000100122)
(-0.00983578 -4.00217 -0 0.0101794 -0 -0.00034361)
(-0.00392608 -4.02302 -0 0.00286982 -0 0.00105626)
(-0.0228375 -4.08548 -0 0.0259474 -0 -0.0031099)
(-0.00600003 -3.91643 -0 0.00108467 -0 0.00491536)
(-0.0291171 -11.9044 -0 0.0282781 -0 0.000839067)
(-0.000526324 -7.90531 -0 0.000564821 -0 -3.84976e-05)
(0.00290517 -7.01057 -0 -0.00288714 -0 -1.80281e-05)
(0.00314537 -6.47725 -0 -0.00312573 -0 -1.96337e-05)
(0.00249981 -6.15987 -0 -0.00250193 -0 2.12188e-06)
(0.00215842 -5.89018 -0 -0.00215736 -0 -1.06063e-06)
(0.00178915 -5.68525 -0 -0.00179259 -0 3.4348e-06)
(0.0015741 -5.50883 -0 -0.00157623 -0 2.12576e-06)
(0.00137655 -5.36108 -0 -0.00137953 -0 2.98078e-06)
(0.00123526 -5.23286 -0 -0.00123793 -0 2.66757e-06)
(0.00111503 -5.12099 -0 -0.00111778 -0 2.74694e-06)
(0.00101788 -5.02235 -0 -0.00102053 -0 2.64727e-06)
(0.000934502 -4.93467 -0 -0.00093709 -0 2.58867e-06)
(0.000864802 -4.85651 -0 -0.000867313 -0 2.51097e-06)
(0.000804815 -4.78597 -0 -0.000807259 -0 2.44381e-06)
(0.000751298 -4.72249 -0 -0.000753662 -0 2.36421e-06)
(0.000705923 -4.66487 -0 -0.000708223 -0 2.29943e-06)
(0.000665739 -4.61235 -0 -0.000667971 -0 2.23196e-06)
(0.000629226 -4.56441 -0 -0.000631396 -0 2.17039e-06)
(0.00059716 -4.52054 -0 -0.000599268 -0 2.10775e-06)
(0.00056876 -4.48016 -0 -0.000570816 -0 2.05589e-06)
(0.000542965 -4.44297 -0 -0.000544966 -0 2.00192e-06)
(0.000519532 -4.40861 -0 -0.000521487 -0 1.95473e-06)
(0.000498169 -4.37684 -0 -0.000500075 -0 1.90637e-06)
(0.000479101 -4.34735 -0 -0.000480966 -0 1.86507e-06)
(0.000461601 -4.31993 -0 -0.000463425 -0 1.8239e-06)
(0.000445453 -4.29441 -0 -0.000447239 -0 1.78629e-06)
(0.000430726 -4.27061 -0 -0.000432475 -0 1.74911e-06)
(0.000417181 -4.24837 -0 -0.000418896 -0 1.71534e-06)
(0.000404578 -4.22757 -0 -0.000406259 -0 1.68129e-06)
(0.000393023 -4.20809 -0 -0.000394672 -0 1.6493e-06)
(0.000382349 -4.1898 -0 -0.000383967 -0 1.61793e-06)
(0.000372404 -4.17263 -0 -0.000373991 -0 1.5871e-06)
(0.000363085 -4.15648 -0 -0.000364641 -0 1.55587e-06)
(0.000354343 -4.14129 -0 -0.000355868 -0 1.52449e-06)
(0.000346205 -4.12697 -0 -0.000347697 -0 1.49269e-06)
(0.000338555 -4.11347 -0 -0.000340015 -0 1.46061e-06)
(0.00033123 -4.10073 -0 -0.000332657 -0 1.42758e-06)
(0.000324212 -4.0887 -0 -0.000325606 -0 1.39343e-06)
(0.000317433 -4.07733 -0 -0.000318791 -0 1.35849e-06)
(0.000310771 -4.06659 -0 -0.000312093 -0 1.32201e-06)
(0.00030413 -4.05644 -0 -0.000305414 -0 1.28411e-06)
(0.00029733 -4.04685 -0 -0.000298574 -0 1.24361e-06)
(0.000290259 -4.0378 -0 -0.00029146 -0 1.20061e-06)
(0.000282647 -4.02926 -0 -0.0002838 -0 1.15306e-06)
(0.000274389 -4.02122 -0 -0.00027549 -0 1.10056e-06)
(0.000265017 -4.01366 -0 -0.000266057 -0 1.04001e-06)
(0.000254402 -4.0066 -0 -0.000255372 -0 9.70679e-07)
(0.000241988 -4 -0 -0.000242877 -0 8.88426e-07)
(0.000227486 -3.99391 -0 -0.000228279 -0 7.92884e-07)
(0.000210113 -3.9883 -0 -0.000210788 -0 6.75113e-07)
(0.000189441 -3.98323 -0 -0.000189974 -0 5.33533e-07)
(0.000164609 -3.97868 -0 -0.000164944 -0 3.35349e-07)
(0.000134899 -3.97473 -0 -0.000135004 -0 1.04884e-07)
(9.90988e-05 -3.97138 -0 -9.88079e-05 -0 -2.90947e-07)
(5.62411e-05 -3.96871 -0 -5.55924e-05 -0 -6.48659e-07)
(5.03138e-06 -3.96673 -0 -3.65423e-06 -0 -1.37715e-06)
(-5.64981e-05 -3.96553 -0 5.83827e-05 -0 -1.88466e-06)
(-0.000130457 -3.96519 -0 0.000133448 -0 -2.99145e-06)
(-0.000219947 -3.96578 -0 0.00022347 -0 -3.52372e-06)
(-0.000325641 -3.96735 -0 0.000330806 -0 -5.16462e-06)
(-0.000453913 -3.97007 -0 0.000459734 -0 -5.82114e-06)
(-0.000608854 -3.97414 -0 0.000616995 -0 -8.14175e-06)
(-0.000761037 -3.97868 -0 0.000773629 -0 -1.25919e-05)
(-0.000902758 -3.98305 -0 0.00092137 -0 -1.86128e-05)
(-0.00105453 -3.98802 -0 0.0010749 -0 -2.03767e-05)
(-0.00122944 -3.99348 -0 0.00125464 -0 -2.51965e-05)
(-0.0014186 -3.99957 -0 0.00144611 -0 -2.75052e-05)
(-0.00162893 -4.00624 -0 0.0016629 -0 -3.39693e-05)
(-0.00186225 -4.01355 -0 0.00189744 -0 -3.51954e-05)
(-0.0021215 -4.02147 -0 0.00216292 -0 -4.14198e-05)
(-0.00241395 -4.03 -0 0.00245404 -0 -4.00889e-05)
(-0.00273298 -4.03915 -0 0.00277881 -0 -4.5826e-05)
(-0.00310356 -4.04899 -0 0.00314886 -0 -4.53017e-05)
(-0.00349169 -4.05941 -0 0.00354564 -0 -5.39518e-05)
(-0.00399016 -4.07073 -0 0.00404847 -0 -5.83063e-05)
(-0.00443335 -4.08258 -0 0.00450954 -0 -7.61882e-05)
(-0.00517175 -4.09528 -0 0.0052526 -0 -8.08429e-05)
(-0.0056277 -4.10901 -0 0.00574487 -0 -0.000117172)
(-0.00681446 -4.12222 -0 0.00691014 -0 -9.56868e-05)
(-0.0073164 -4.13949 -0 0.00748518 -0 -0.00016878)
(-0.00897528 -4.15101 -0 0.00903387 -0 -5.85838e-05)
(-0.0105051 -4.17535 -0 0.0107334 -0 -0.000228235)
(-0.010719 -4.18153 -0 0.0105607 -0 0.000158316)
(-0.0191059 -4.2248 -0 0.0195764 -0 -0.000470495)
(-0.00863392 -4.17773 -0 0.00718119 -0 0.00145274)
(-0.0376245 -4.39203 -0 0.0405938 -0 -0.00296934)
(-0.0298099 -3.8688 -0 0.0328516 -0 -0.00304172)
(-0.084841 -11.6961 -0 0.0842482 -0 0.000592804)
(-0.00887357 -7.87977 -0 0.00889121 -0 -1.76448e-05)
(0.00245689 -6.90291 -0 -0.00244609 -0 -1.0805e-05)
(0.00451409 -6.33148 -0 -0.00447425 -0 -3.98405e-05)
(0.00390927 -6.00556 -0 -0.00389598 -0 -1.32931e-05)
(0.00354134 -5.74315 -0 -0.0035242 -0 -1.71467e-05)
(0.00299192 -5.54434 -0 -0.00298332 -0 -8.59403e-06)
(0.00266714 -5.37491 -0 -0.00265779 -0 -9.3423e-06)
(0.00235021 -5.23288 -0 -0.00234317 -0 -7.04429e-06)
(0.00212041 -5.10984 -0 -0.0021137 -0 -6.70328e-06)
(0.00192161 -5.00238 -0 -0.00191574 -0 -5.86727e-06)
(0.0017594 -4.90767 -0 -0.00175398 -0 -5.42429e-06)
(0.00161921 -4.82348 -0 -0.00161425 -0 -4.96088e-06)
(0.0015013 -4.74843 -0 -0.0014967 -0 -4.59631e-06)
(0.00139941 -4.68069 -0 -0.00139514 -0 -4.2679e-06)
(0.00130823 -4.61977 -0 -0.00130425 -0 -3.98227e-06)
(0.00123062 -4.56446 -0 -0.0012269 -0 -3.72682e-06)
(0.00116177 -4.51406 -0 -0.00115827 -0 -3.50573e-06)
(0.0010991 -4.46807 -0 -0.0010958 -0 -3.2962e-06)
(0.00104392 -4.426 -0 -0.0010408 -0 -3.11727e-06)
(0.000994974 -4.38727 -0 -0.000992024 -0 -2.94981e-06)
(0.000950476 -4.35162 -0 -0.000947674 -0 -2.8023e-06)
(0.000910005 -4.31868 -0 -0.000907343 -0 -2.66222e-06)
(0.000873061 -4.28824 -0 -0.000870523 -0 -2.53834e-06)
(0.000840037 -4.25999 -0 -0.000837614 -0 -2.42313e-06)
(0.00080972 -4.23372 -0 -0.0008074 -0 -2.32e-06)
(0.000781725 -4.20929 -0 -0.000779503 -0 -2.22209e-06)
(0.000756163 -4.1865 -0 -0.000754028 -0 -2.13539e-06)
(0.000732642 -4.16521 -0 -0.000730588 -0 -2.05383e-06)
(0.00071075 -4.1453 -0 -0.000708769 -0 -1.9804e-06)
(0.000690655 -4.12666 -0 -0.000688742 -0 -1.91313e-06)
(0.000672086 -4.10916 -0 -0.000670233 -0 -1.85299e-06)
(0.00065478 -4.09274 -0 -0.000652981 -0 -1.79846e-06)
(0.000638559 -4.07729 -0 -0.000636809 -0 -1.75018e-06)
(0.000623336 -4.06276 -0 -0.000621629 -0 -1.70715e-06)
(0.00060915 -4.04907 -0 -0.000607479 -0 -1.67047e-06)
(0.000595812 -4.03617 -0 -0.000594173 -0 -1.6388e-06)
(0.000583043 -4.02398 -0 -0.000581432 -0 -1.61146e-06)
(0.000570804 -4.01248 -0 -0.000569216 -0 -1.58836e-06)
(0.000558974 -4.00162 -0 -0.000557405 -0 -1.56855e-06)
(0.000547345 -3.99135 -0 -0.000545793 -0 -1.55177e-06)
(0.000535748 -3.98164 -0 -0.000534211 -0 -1.53692e-06)
(0.000523869 -3.97246 -0 -0.000522345 -0 -1.52374e-06)
(0.00051151 -3.96379 -0 -0.000509999 -0 -1.51096e-06)
(0.000498201 -3.9556 -0 -0.000496702 -0 -1.49864e-06)
(0.000483755 -3.94789 -0 -0.000482269 -0 -1.48629e-06)
(0.000467366 -3.94062 -0 -0.000465893 -0 -1.47356e-06)
(0.000448782 -3.93381 -0 -0.000447322 -0 -1.45988e-06)
(0.000427054 -3.92743 -0 -0.000425608 -0 -1.44569e-06)
(0.000401651 -3.92151 -0 -0.000400223 -0 -1.42811e-06)
(0.000371239 -3.91601 -0 -0.000369827 -0 -1.41215e-06)
(0.000335018 -3.911 -0 -0.000333622 -0 -1.39621e-06)
(0.000291504 -3.90645 -0 -0.000290085 -0 -1.41916e-06)
(0.000239428 -3.90241 -0 -0.000237987 -0 -1.44143e-06)
(0.000176729 -3.89888 -0 -0.000175084 -0 -1.64514e-06)
(0.000101688 -3.89595 -0 -9.9965e-05 -0 -1.72281e-06)
(1.19377e-05 -3.89358 -0 -9.67799e-06 -0 -2.25976e-06)
(-9.58299e-05 -3.89187 -0 9.81685e-05 -0 -2.33869e-06)
(-0.00022455 -3.89086 -0 0.000227821 -0 -3.27166e-06)
(-0.000380955 -3.89063 -0 0.000384075 -0 -3.11978e-06)
(-0.000565732 -3.8912 -0 0.000570059 -0 -4.32681e-06)
(-0.000789244 -3.89264 -0 0.00079323 -0 -3.98628e-06)
(-0.00105906 -3.89515 -0 0.00106495 -0 -5.88997e-06)
(-0.00132476 -3.89814 -0 0.00133593 -0 -1.11633e-05)
(-0.00157106 -3.90111 -0 0.0015899 -0 -1.88405e-05)
(-0.00183208 -3.90461 -0 0.00185216 -0 -2.00812e-05)
(-0.00213208 -3.90845 -0 0.00215775 -0 -2.5676e-05)
(-0.00245916 -3.91279 -0 0.00248649 -0 -2.7326e-05)
(-0.0028208 -3.91752 -0 0.00285576 -0 -3.49536e-05)
(-0.0032236 -3.92278 -0 0.00325824 -0 -3.46409e-05)
(-0.0036668 -3.92843 -0 0.00370829 -0 -4.14891e-05)
(-0.00417087 -3.93457 -0 0.00420766 -0 -3.67865e-05)
(-0.0047128 -3.94104 -0 0.00475528 -0 -4.24797e-05)
(-0.00535211 -3.94813 -0 0.00539037 -0 -3.82555e-05)
(-0.00600211 -3.95529 -0 0.00605008 -0 -4.79748e-05)
(-0.00686068 -3.96353 -0 0.00691052 -0 -4.98334e-05)
(-0.00758821 -3.97139 -0 0.00766154 -0 -7.33244e-05)
(-0.00884813 -3.98076 -0 0.0089219 -0 -7.37776e-05)
(-0.00958272 -3.98949 -0 0.00970604 -0 -0.000123321)
(-0.0115614 -3.99934 -0 0.0116448 -0 -8.3346e-05)
(-0.0123657 -4.01031 -0 0.0125499 -0 -0.000184212)
(-0.0150712 -4.01779 -0 0.0150872 -0 -1.59591e-05)
(-0.0173684 -4.03635 -0 0.0176063 -0 -0.000237823)
(-0.018324 -4.03229 -0 0.0180355 -0 0.000288438)