/*--------------------------------*- C++ -*----------------------------------*\
| =========                 |                                                 |
| \\      /  F ield         | OpenFOAM: The Open Source CFD Toolbox           |
|  \\    /   O peration     | Version:  2306                                  |
|   \\  /    A nd           | Website:  www.openfoam.com                      |
|    \\/     M anipulation  |                                                 |
\*---------------------------------------------------------------------------*/
FoamFile
{
    version     2.0;
    format      ascii;
    arch        "LSB;label=32;scalar=64";
    class       volVectorField;
    location    "1600";
    object      U;
}
// * * * * * * * * * * * * * * * * * * * * * * * * * * * * * * * * * * * * * //

dimensions      [0 1 -1 0 0 0 0];

internalField   nonuniform List<vector> 
20540
(
(26.4799 0.00124914 0)
(25.5866 0.00187544 0)
(26.5 0.00400724 0)
(25.6066 0.00479958 0)
(26.5263 0.00733962 0)
(25.6328 0.00517775 0)
(26.5605 0.0113643 0)
(25.6667 0.00372134 0)
(26.6041 0.0162229 0)
(25.7101 0.00133777 0)
(26.6593 0.0220849 0)
(25.765 -0.00186277 0)
(26.7284 0.0291524 0)
(25.8338 -0.00609385 0)
(26.8143 0.0376663 0)
(25.9195 -0.0115945 0)
(26.9203 0.0479118 0)
(26.0255 -0.0186133 0)
(27.0504 0.0602255 0)
(26.1558 -0.0274485 0)
(27.2094 0.0750024 0)
(26.3154 -0.0384656 0)
(27.403 0.0927017 0)
(26.5102 -0.0521015 0)
(27.6376 0.113853 0)
(26.7473 -0.0688682 0)
(27.9212 0.139058 0)
(27.0349 -0.0893562 0)
(28.2627 0.168989 0)
(27.3829 -0.114234 0)
(28.6724 0.204379 0)
(27.8027 -0.14424 0)
(29.1623 0.246001 0)
(28.308 -0.180161 0)
(29.7457 0.294622 0)
(28.9143 -0.222797 0)
(30.4374 0.350937 0)
(29.6396 -0.272886 0)
(31.2537 0.415448 0)
(30.5039 -0.331005 0)
(32.2116 0.488298 0)
(31.5297 -0.397398 0)
(33.3292 0.568998 0)
(32.7411 -0.471742 0)
(34.6239 0.656053 0)
(34.1634 -0.552802 0)
(36.1122 0.746419 0)
(35.8211 -0.637974 0)
(37.8086 0.83475 0)
(37.7363 -0.722671 0)
(39.7235 0.912363 0)
(39.9244 -0.799528 0)
(41.8628 0.965903 0)
(42.3888 -0.857274 0)
(44.2265 0.976112 0)
(45.1118 -0.878949 0)
(46.8092 0.91792 0)
(48.0368 -0.839313 0)
(49.5947 0.759181 0)
(51.026 -0.703907 0)
(52.0838 0.491821 0)
(53.4328 -0.460425 0)
(53.6541 0.144162 0)
(54.7654 -0.144346 0)
(53.5525 -0.253062 0)
(54.6952 0.204905 0)
(51.8601 -0.591389 0)
(53.2436 0.515942 0)
(49.3565 -0.845367 0)
(50.7814 0.748792 0)
(46.6213 -0.993252 0)
(47.818 0.876828 0)
(44.0713 -1.04547 0)
(44.9193 0.91492 0)
(41.7242 -1.0317 0)
(42.2126 0.894431 0)
(39.5874 -0.975725 0)
(39.7514 0.838536 0)
(37.6626 -0.895888 0)
(37.5539 0.763132 0)
(35.9459 -0.805039 0)
(35.6182 0.679037 0)
(34.4288 -0.711689 0)
(33.9313 0.593504 0)
(33.0994 -0.6212 0)
(32.4738 0.511196 0)
(31.9431 -0.536724 0)
(31.2234 0.434884 0)
(30.9441 -0.459895 0)
(30.1567 0.365998 0)
(30.0862 -0.391334 0)
(29.2512 0.305057 0)
(29.3533 -0.331021 0)
(28.4858 0.25198 0)
(28.7303 -0.278542 0)
(27.841 0.206329 0)
(28.2029 -0.233271 0)
(27.2996 0.167463 0)
(27.7582 -0.194483 0)
(26.8463 0.134656 0)
(27.3846 -0.16143 0)
(26.4677 0.107165 0)
(27.0717 -0.133389 0)
(26.1523 0.0842785 0)
(26.8106 -0.109684 0)
(25.8903 0.0653367 0)
(26.5934 -0.0897033 0)
(25.6732 0.0497485 0)
(26.4134 -0.0729016 0)
(25.4937 0.0369928 0)
(26.2646 -0.058801 0)
(25.3459 0.026618 0)
(26.1423 -0.0469864 0)
(25.2245 0.0182381 0)
(26.0421 -0.0371003 0)
(25.1253 0.0115297 0)
(25.9605 -0.028837 0)
(25.0446 0.00622814 0)
(25.8944 -0.0219365 0)
(24.9794 0.00211159 0)
(25.8414 -0.0161783 0)
(24.9271 -0.0010353 0)
(25.7992 -0.0113764 0)
(24.8856 -0.00340314 0)
(25.7661 -0.00737404 0)
(24.853 -0.00487051 0)
(25.7404 -0.00403941 0)
(24.8277 -0.00456403 0)
(25.7208 -0.00126214 0)
(24.8085 -0.00179307 0)
(9.16645 -0.000275768 0)
(6.3282 0.000351465 0)
(5.69668 4.91203e-05 0)
(5.23141 9.78313e-06 0)
(4.96499 5.5912e-06 0)
(4.73103 1.97036e-06 0)
(4.56199 1.97054e-06 0)
(4.41459 1.22882e-06 0)
(4.29388 1.18935e-06 0)
(4.18896 1.00008e-06 0)
(4.09818 9.4165e-07 0)
(4.01832 8.74536e-07 0)
(3.94757 8.28578e-07 0)
(3.88465 7.93032e-07 0)
(3.828 7.61096e-07 0)
(3.77709 7.33797e-07 0)
(3.73098 7.12893e-07 0)
(3.689 6.92608e-07 0)
(3.65072 6.73177e-07 0)
(3.61573 6.58769e-07 0)
(3.58357 6.44639e-07 0)
(3.55397 6.31724e-07 0)
(3.52665 6.19559e-07 0)
(3.5014 6.09058e-07 0)
(3.47798 5.99997e-07 0)
(3.45623 5.9091e-07 0)
(3.43599 5.82283e-07 0)
(3.41712 5.74717e-07 0)
(3.3995 5.66997e-07 0)
(3.38302 5.59626e-07 0)
(3.3676 5.52875e-07 0)
(3.35313 5.45845e-07 0)
(3.33955 5.38717e-07 0)
(3.32678 5.31054e-07 0)
(3.31477 5.2324e-07 0)
(3.30346 5.14654e-07 0)
(3.2928 5.05343e-07 0)
(3.28273 4.9506e-07 0)
(3.27324 4.83981e-07 0)
(3.26428 4.7181e-07 0)
(3.25583 4.58522e-07 0)
(3.24785 4.43551e-07 0)
(3.24032 4.26773e-07 0)
(3.23323 4.07953e-07 0)
(3.22658 3.85498e-07 0)
(3.22034 3.5998e-07 0)
(3.21453 3.29064e-07 0)
(3.20914 2.91907e-07 0)
(3.20418 2.45104e-07 0)
(3.19968 1.88832e-07 0)
(3.19565 1.21938e-07 0)
(3.19214 3.80535e-08 0)
(3.18916 -6.35165e-08 0)
(3.18678 -1.98007e-07 0)
(3.18504 -3.86571e-07 0)
(3.18403 -6.09943e-07 0)
(3.18379 -9.68395e-07 0)
(3.18442 -1.29965e-06 0)
(3.18606 -1.87737e-06 0)
(3.18878 -2.24527e-06 0)
(3.1928 -3.08299e-06 0)
(3.19819 -3.42158e-06 0)
(3.2053 -4.09959e-06 0)
(3.21269 -6.31872e-06 0)
(3.21938 -9.48365e-06 0)
(3.22679 -1.10884e-05 0)
(3.23515 -1.38137e-05 0)
(3.24434 -1.50815e-05 0)
(3.2544 -1.80899e-05 0)
(3.26534 -1.93737e-05 0)
(3.27732 -2.26019e-05 0)
(3.29024 -2.24734e-05 0)
(3.30439 -2.56353e-05 0)
(3.3195 -2.52753e-05 0)
(3.33609 -2.9753e-05 0)
(3.35355 -3.21731e-05 0)
(3.37305 -4.09756e-05 0)
(3.39287 -4.64222e-05 0)
(3.41662 -6.31615e-05 0)
(3.4385 -6.46578e-05 0)
(3.46982 -9.37361e-05 0)
(3.49319 -7.34279e-05 0)
(3.53711 -0.000112361 0)
(3.5663 -0.000109081 0)
(3.62052 0.000187721 0)
(3.68652 -0.00122429 0)
(3.70484 0.00379085 0)
(3.91694 0.00509704 0)
(22.7252 0.00359276 0)
(18.9503 0.00187933 0)
(17.3823 0.000760223 0)
(16.1188 0.000475718 0)
(15.3657 0.000342532 0)
(14.699 0.000274852 0)
(14.2087 0.000226503 0)
(13.7797 0.000196281 0)
(13.4251 0.000171751 0)
(13.1158 0.000153826 0)
(12.8469 0.000139022 0)
(12.6095 0.000127043 0)
(12.3985 0.000116808 0)
(12.2103 0.000108274 0)
(12.0405 0.000100924 0)
(11.8876 9.43544e-05 0)
(11.7488 8.87985e-05 0)
(11.6223 8.38665e-05 0)
(11.5067 7.93698e-05 0)
(11.401 7.54302e-05 0)
(11.3036 7.19363e-05 0)
(11.2139 6.87544e-05 0)
(11.131 6.5861e-05 0)
(11.0543 6.32212e-05 0)
(10.9832 6.08682e-05 0)
(10.917 5.87011e-05 0)
(10.8554 5.67006e-05 0)
(10.7979 5.48747e-05 0)
(10.7442 5.31954e-05 0)
(10.694 5.16274e-05 0)
(10.6469 5.01928e-05 0)
(10.6028 4.88638e-05 0)
(10.5613 4.7624e-05 0)
(10.5223 4.6458e-05 0)
(10.4855 4.53642e-05 0)
(10.4509 4.4344e-05 0)
(10.4183 4.33827e-05 0)
(10.3875 4.2457e-05 0)
(10.3585 4.15686e-05 0)
(10.331 4.07069e-05 0)
(10.3051 3.98563e-05 0)
(10.2806 3.90043e-05 0)
(10.2575 3.81263e-05 0)
(10.2358 3.72082e-05 0)
(10.2153 3.62138e-05 0)
(10.1961 3.51277e-05 0)
(10.1782 3.38844e-05 0)
(10.1616 3.24711e-05 0)
(10.1462 3.0808e-05 0)
(10.1323 2.88576e-05 0)
(10.1197 2.65026e-05 0)
(10.1086 2.36985e-05 0)
(10.0991 2.02976e-05 0)
(10.0914 1.62095e-05 0)
(10.0856 1.11956e-05 0)
(10.0818 5.21223e-06 0)
(10.0803 -2.08628e-06 0)
(10.0814 -1.08093e-05 0)
(10.0853 -2.16565e-05 0)
(10.0924 -3.39748e-05 0)
(10.1032 -4.96548e-05 0)
(10.1179 -6.76017e-05 0)
(10.1375 -9.09275e-05 0)
(10.158 -0.000116676 0)
(10.1767 -0.000142149 0)
(10.1976 -0.000165952 0)
(10.221 -0.000196246 0)
(10.2468 -0.000225645 0)
(10.2751 -0.000262506 0)
(10.3058 -0.000298609 0)
(10.3395 -0.000343293 0)
(10.3757 -0.000385127 0)
(10.4153 -0.000438854 0)
(10.4575 -0.000491654 0)
(10.5038 -0.000561075 0)
(10.5526 -0.000637629 0)
(10.607 -0.000731407 0)
(10.6624 -0.000848059 0)
(10.729 -0.000973435 0)
(10.7901 -0.00114933 0)
(10.878 -0.00131829 0)
(10.9431 -0.00154585 0)
(11.0647 -0.00193495 0)
(11.1465 -0.00188605 0)
(11.2935 -0.003627 0)
(11.4797 -0.000633317 0)
(11.5595 -0.0103923 0)
(12.0143 -0.0565374 0)
(27.9746 0.0062813 0)
(26.937 0.00311405 0)
(25.7156 0.0018211 0)
(24.3195 0.00133561 0)
(23.4341 0.00100211 0)
(22.618 0.000831034 0)
(22.0074 0.000692498 0)
(21.4661 0.000608306 0)
(21.0146 0.00053638 0)
(20.6178 0.000484148 0)
(20.2706 0.000440242 0)
(19.9625 0.000404547 0)
(19.6873 0.000373789 0)
(19.4408 0.000347986 0)
(19.2175 0.000325665 0)
(19.0157 0.000305563 0)
(18.8319 0.000288517 0)
(18.6638 0.000273308 0)
(18.5099 0.000259385 0)
(18.3687 0.000247128 0)
(18.2383 0.000236237 0)
(18.118 0.000226279 0)
(18.0066 0.000217198 0)
(17.9033 0.000208882 0)
(17.8073 0.000201454 0)
(17.7178 0.000194599 0)
(17.6344 0.000188251 0)
(17.5565 0.000182447 0)
(17.4835 0.000177093 0)
(17.4152 0.000172089 0)
(17.3511 0.000167496 0)
(17.2909 0.000163239 0)
(17.2343 0.000159259 0)
(17.181 0.000155512 0)
(17.1308 0.000151988 0)
(17.0834 0.000148697 0)
(17.0387 0.000145591 0)
(16.9965 0.000142597 0)
(16.9566 0.000139717 0)
(16.9189 0.000136919 0)
(16.8833 0.000134152 0)
(16.8496 0.000131374 0)
(16.8178 0.000128507 0)
(16.7879 0.000125502 0)
(16.7597 0.000122238 0)
(16.7332 0.00011867 0)
(16.7085 0.000114581 0)
(16.6855 0.000109922 0)
(16.6643 0.000104434 0)
(16.645 9.79926e-05 0)
(16.6275 9.02302e-05 0)
(16.6122 8.09748e-05 0)
(16.599 6.9782e-05 0)
(16.5882 5.63616e-05 0)
(16.58 3.99214e-05 0)
(16.5746 2.03702e-05 0)
(16.5724 -3.53537e-06 0)
(16.5737 -3.18185e-05 0)
(16.5789 -6.705e-05 0)
(16.5884 -0.000107485 0)
(16.603 -0.000157782 0)
(16.6228 -0.000216062 0)
(16.6495 -0.000288956 0)
(16.6774 -0.0003656 0)
(16.7029 -0.000443622 0)
(16.7312 -0.000518339 0)
(16.7629 -0.000610182 0)
(16.7977 -0.00070018 0)
(16.836 -0.000810754 0)
(16.8774 -0.000919859 0)
(16.9227 -0.0010539 0)
(16.9714 -0.00118295 0)
(17.0247 -0.00134364 0)
(17.0812 -0.00150675 0)
(17.1433 -0.00170914 0)
(17.2083 -0.00194029 0)
(17.2812 -0.00220066 0)
(17.3543 -0.00254989 0)
(17.4427 -0.00287728 0)
(17.5219 -0.00340838 0)
(17.6365 -0.00384377 0)
(17.7193 -0.00450701 0)
(17.8719 -0.00558258 0)
(17.9779 -0.00532127 0)
(18.139 -0.0102541 0)
(18.4049 -0.00179337 0)
(18.362 -0.0312522 0)
(19.1723 -0.035227 0)
(30.1499 0.00507184 0)
(30.8777 0.00340636 0)
(30.3886 0.00274999 0)
(29.1662 0.00230896 0)
(28.3206 0.00180429 0)
(27.4884 0.00153649 0)
(26.8534 0.00129376 0)
(26.2823 0.00114751 0)
(25.8022 0.00101764 0)
(25.378 0.00092332 0)
(25.0055 0.00084299 0)
(24.6739 0.000777406 0)
(24.3771 0.000720525 0)
(24.1109 0.000672617 0)
(23.8693 0.000631027 0)
(23.6507 0.0005934 0)
(23.4515 0.000561414 0)
(23.2691 0.000532805 0)
(23.1019 0.000506527 0)
(22.9484 0.000483333 0)
(22.8066 0.000462692 0)
(22.6757 0.00044378 0)
(22.5543 0.000426496 0)
(22.4418 0.000410632 0)
(22.3371 0.000396445 0)
(22.2396 0.000383335 0)
(22.1486 0.000371172 0)
(22.0635 0.000360038 0)
(21.9839 0.000349755 0)
(21.9093 0.000340132 0)
(21.8393 0.000331288 0)
(21.7735 0.000323087 0)
(21.7116 0.00031541 0)
(21.6533 0.00030818 0)
(21.5984 0.000301369 0)
(21.5466 0.000295007 0)
(21.4977 0.000288999 0)
(21.4515 0.000283207 0)
(21.4078 0.000277628 0)
(21.3666 0.000272205 0)
(21.3276 0.000266835 0)
(21.2907 0.00026144 0)
(21.2559 0.000255863 0)
(21.2231 0.00025001 0)
(21.1922 0.000243643 0)
(21.1632 0.000236673 0)
(21.1361 0.000228677 0)
(21.1109 0.000219553 0)
(21.0876 0.000208796 0)
(21.0664 0.000196157 0)
(21.0473 0.00018092 0)
(21.0305 0.000162732 0)
(21.0161 0.000140741 0)
(21.0043 0.000114373 0)
(20.9953 8.21764e-05 0)
(20.9895 4.38399e-05 0)
(20.9871 -2.80695e-06 0)
(20.9885 -5.8113e-05 0)
(20.9943 -0.000126372 0)
(21.0048 -0.000205934 0)
(21.0208 -0.000303388 0)
(21.0427 -0.00041766 0)
(21.072 -0.00055952 0)
(21.1027 -0.000705527 0)
(21.1308 -0.000850104 0)
(21.1619 -0.000992022 0)
(21.1966 -0.00116382 0)
(21.2347 -0.00133701 0)
(21.2765 -0.00154383 0)
(21.3218 -0.00175368 0)
(21.3713 -0.00200454 0)
(21.4244 -0.00225671 0)
(21.4825 -0.00255902 0)
(21.544 -0.00287829 0)
(21.6117 -0.00325472 0)
(21.682 -0.00369945 0)
(21.7614 -0.00416679 0)
(21.8398 -0.00483065 0)
(21.9359 -0.00538784 0)
(22.0199 -0.00640217 0)
(22.1429 -0.00711695 0)
(22.2307 -0.0083915 0)
(22.3898 -0.0102821 0)
(22.5031 -0.00970543 0)
(22.6616 -0.01907 0)
(22.9406 -0.00330048 0)
(22.8983 -0.0514089 0)
(23.6409 -0.0545981 0)
(31.353 0.0021156 0)
(33.0493 0.00278796 0)
(33.2442 0.00336739 0)
(32.3057 0.00329003 0)
(31.5744 0.00269674 0)
(30.7739 0.00236292 0)
(30.144 0.00201216 0)
(29.5639 0.00179999 0)
(29.0702 0.0016036 0)
(28.6304 0.00146019 0)
(28.2419 0.00133652 0)
(27.8948 0.00123501 0)
(27.5833 0.00114652 0)
(27.3032 0.00107171 0)
(27.0487 0.0010066 0)
(26.818 0.00094755 0)
(26.6076 0.000897238 0)
(26.4148 0.000852188 0)
(26.238 0.000810742 0)
(26.0755 0.000774102 0)
(25.9254 0.000741465 0)
(25.7867 0.00071154 0)
(25.6581 0.000684164 0)
(25.5388 0.000659014 0)
(25.4278 0.0006365 0)
(25.3244 0.000615691 0)
(25.2279 0.000596373 0)
(25.1377 0.000578675 0)
(25.0532 0.000562323 0)
(24.974 0.000547016 0)
(24.8997 0.000532937 0)
(24.8299 0.000519879 0)
(24.7642 0.000507654 0)
(24.7023 0.000496138 0)
(24.6441 0.000485286 0)
(24.5891 0.000475145 0)
(24.5371 0.000465567 0)
(24.4881 0.000456336 0)
(24.4417 0.00044744 0)
(24.3979 0.00043879 0)
(24.3565 0.000430224 0)
(24.3173 0.000421615 0)
(24.2803 0.000412711 0)
(24.2455 0.000403363 0)
(24.2127 0.000393188 0)
(24.1819 0.000382043 0)
(24.153 0.000369256 0)
(24.1263 0.000354652 0)
(24.1016 0.000337433 0)
(24.079 0.000317189 0)
(24.0587 0.000292788 0)
(24.0408 0.000263634 0)
(24.0254 0.000228393 0)
(24.0128 0.000186124 0)
(24.0032 0.000134618 0)
(23.9969 7.3235e-05 0)
(23.9943 -1.29215e-06 0)
(23.9957 -8.9739e-05 0)
(24.0016 -0.000198246 0)
(24.0125 -0.000325818 0)
(24.0294 -0.000480925 0)
(24.0523 -0.000663745 0)
(24.083 -0.000889814 0)
(24.1153 -0.0011209 0)
(24.1448 -0.00134609 0)
(24.1775 -0.00156914 0)
(24.2139 -0.00183703 0)
(24.2539 -0.00211163 0)
(24.2977 -0.00243446 0)
(24.3451 -0.00276735 0)
(24.3969 -0.0031587 0)
(24.4524 -0.00356169 0)
(24.5131 -0.00403402 0)
(24.5772 -0.00454497 0)
(24.648 -0.00512774 0)
(24.7209 -0.00583413 0)
(24.8039 -0.00654089 0)
(24.8846 -0.00758762 0)
(24.9848 -0.00840284 0)
(25.0709 -0.00999696 0)
(25.1979 -0.0110216 0)
(25.2875 -0.0130173 0)
(25.4493 -0.0157872 0)
(25.5617 -0.0150149 0)
(25.7299 -0.0286657 0)
(25.9716 -0.00731606 0)
(26.0386 -0.0698023 0)
(26.4913 -0.069383 0)
(32.1604 -0.00240044 0)
(34.3967 0.00128932 0)
(35.1114 0.00355924 0)
(34.4883 0.0041975 0)
(33.9282 0.0036504 0)
(33.2055 0.00331914 0)
(32.6118 0.00287302 0)
(32.0446 0.0025999 0)
(31.5525 0.0023313 0)
(31.1085 0.00213282 0)
(30.7126 0.00195854 0)
(30.3568 0.00181415 0)
(30.0358 0.00168733 0)
(29.7462 0.0015795 0)
(29.4824 0.0014853 0)
(29.2428 0.00139957 0)
(29.0238 0.00132629 0)
(28.8229 0.00126058 0)
(28.6384 0.00120001 0)
(28.4687 0.00114636 0)
(28.3119 0.00109851 0)
(28.1668 0.00105461 0)
(28.0323 0.0010144 0)
(27.9074 0.000977427 0)
(27.7912 0.000944293 0)
(27.6829 0.000913663 0)
(27.5817 0.000885209 0)
(27.4872 0.000859122 0)
(27.3986 0.000835011 0)
(27.3156 0.000812436 0)
(27.2377 0.000791658 0)
(27.1644 0.000772381 0)
(27.0955 0.000754331 0)
(27.0306 0.000737329 0)
(26.9694 0.0007213 0)
(26.9117 0.000706316 0)
(26.8572 0.000692163 0)
(26.8057 0.000678527 0)
(26.7571 0.000665383 0)
(26.711 0.000652602 0)
(26.6675 0.000639944 0)
(26.6264 0.00062722 0)
(26.5876 0.000614063 0)
(26.551 0.000600247 0)
(26.5165 0.000585209 0)
(26.4841 0.000568733 0)
(26.4539 0.000549841 0)
(26.4257 0.000528251 0)
(26.3997 0.000502802 0)
(26.376 0.000472874 0)
(26.3545 0.000436816 0)
(26.3356 0.00039371 0)
(26.3193 0.00034162 0)
(26.306 0.00027913 0)
(26.2957 0.000203102 0)
(26.2889 0.000112444 0)
(26.2859 2.52394e-06 0)
(26.2871 -0.000128041 0)
(26.293 -0.000287384 0)
(26.304 -0.00047587 0)
(26.3212 -0.000703917 0)
(26.3446 -0.000973604 0)
(26.3761 -0.00130615 0)
(26.4092 -0.00164448 0)
(26.4396 -0.00197104 0)
(26.4732 -0.002296 0)
(26.5106 -0.0026837 0)
(26.5516 -0.0030859 0)
(26.5966 -0.00355363 0)
(26.6452 -0.00404151 0)
(26.6984 -0.00460773 0)
(26.7552 -0.00520083 0)
(26.8174 -0.00588387 0)
(26.8828 -0.00663647 0)
(26.9552 -0.00747199 0)
(27.0293 -0.00850659 0)
(27.1142 -0.00950294 0)
(27.196 -0.0110258 0)
(27.2981 -0.0121489 0)
(27.3849 -0.0144527 0)
(27.5132 -0.0158414 0)
(27.6031 -0.0187235 0)
(27.7658 -0.0224289 0)
(27.8723 -0.0218177 0)
(28.057 -0.0392806 0)
(28.2405 -0.014808 0)
(28.4363 -0.0866352 0)
(28.6193 -0.0871317 0)
(32.7714 -0.00860196 0)
(35.3269 -0.00111683 0)
(36.4017 0.00324104 0)
(36.0612 0.00491556 0)
(35.6949 0.00457584 0)
(35.0855 0.00435442 0)
(34.5577 0.00385215 0)
(34.0263 0.00354067 0)
(33.553 0.00320443 0)
(33.1177 0.00295113 0)
(32.7242 0.00272255 0)
(32.3671 0.00253041 0)
(32.0427 0.00235971 0)
(31.7484 0.00221326 0)
(31.4792 0.00208454 0)
(31.2337 0.00196683 0)
(31.0089 0.00186575 0)
(30.8022 0.00177484 0)
(30.612 0.00169084 0)
(30.4368 0.00161625 0)
(30.2747 0.0015496 0)
(30.1246 0.00148836 0)
(29.9853 0.00143221 0)
(29.8559 0.00138051 0)
(29.7354 0.00133411 0)
(29.6229 0.0012912 0)
(29.5179 0.00125131 0)
(29.4197 0.0012147 0)
(29.3277 0.00118084 0)
(29.2414 0.00114914 0)
(29.1604 0.00111993 0)
(29.0842 0.00109283 0)
(29.0125 0.00106744 0)
(28.9449 0.00104352 0)
(28.8813 0.00102097 0)
(28.8212 0.000999876 0)
(28.7644 0.000979947 0)
(28.7108 0.000960752 0)
(28.6601 0.000942248 0)
(28.6122 0.00092425 0)
(28.5669 0.000906428 0)
(28.5241 0.000888514 0)
(28.4836 0.000869993 0)
(28.4454 0.000850547 0)
(28.4095 0.000829388 0)
(28.3757 0.000806204 0)
(28.3441 0.000779644 0)
(28.3147 0.000749282 0)
(28.2876 0.000713511 0)
(28.2628 0.000671438 0)
(28.2403 0.000620784 0)
(28.2205 0.00056021 0)
(28.2034 0.000487037 0)
(28.1892 0.000399247 0)
(28.1783 0.000292574 0)
(28.1709 0.000165333 0)
(28.1674 1.12307e-05 0)
(28.1683 -0.000172009 0)
(28.1739 -0.000394617 0)
(28.1848 -0.000658906 0)
(28.2019 -0.000977805 0)
(28.2255 -0.00135557 0)
(28.2573 -0.00182032 0)
(28.2907 -0.00229129 0)
(28.3214 -0.00274337 0)
(28.3555 -0.00319447 0)
(28.3933 -0.0037293 0)
(28.4349 -0.00428896 0)
(28.4804 -0.00493441 0)
(28.5296 -0.00561352 0)
(28.5833 -0.00639338 0)
(28.6406 -0.00722059 0)
(28.7035 -0.00815974 0)
(28.7693 -0.00920932 0)
(28.8424 -0.0103494 0)
(28.9168 -0.0117839 0)
(29.0022 -0.0131281 0)
(29.0842 -0.0152237 0)
(29.1863 -0.0167166 0)
(29.2732 -0.0198625 0)
(29.4006 -0.0216766 0)
(29.4901 -0.0256379 0)
(29.6518 -0.0302624 0)
(29.751 -0.0304163 0)
(29.9507 -0.0506902 0)
(30.0804 -0.0263004 0)
(30.3688 -0.10249 0)
(30.3948 -0.105204 0)
(33.2716 -0.0167172 0)
(36.0265 -0.00450372 0)
(37.3441 0.00236132 0)
(37.2286 0.00536247 0)
(37.0462 0.00538299 0)
(36.5664 0.00539978 0)
(36.1263 0.00490401 0)
(35.6519 0.0045973 0)
(35.2151 0.00421233 0)
(34.8025 0.00391455 0)
(34.4225 0.0036347 0)
(34.0732 0.00339433 0)
(33.7524 0.0031771 0)
(33.459 0.0029882 0)
(33.189 0.00282067 0)
(32.9416 0.00266637 0)
(32.714 0.00253294 0)
(32.5041 0.00241239 0)
(32.3104 0.00230062 0)
(32.1317 0.002201 0)
(31.9659 0.00211172 0)
(31.8122 0.00202952 0)
(31.6693 0.00195401 0)
(31.5364 0.00188438 0)
(31.4126 0.00182176 0)
(31.2969 0.00176379 0)
(31.1888 0.00170986 0)
(31.0876 0.00166029 0)
(30.9927 0.00161443 0)
(30.9037 0.00157145 0)
(30.8201 0.00153182 0)
(30.7414 0.00149502 0)
(30.6674 0.00146054 0)
(30.5976 0.00142804 0)
(30.5318 0.0013974 0)
(30.4697 0.0013687 0)
(30.411 0.00134159 0)
(30.3556 0.00131547 0)
(30.3031 0.0012903 0)
(30.2535 0.00126581 0)
(30.2066 0.00124156 0)
(30.1623 0.00121718 0)
(30.1204 0.00119199 0)
(30.0808 0.00116554 0)
(30.0436 0.00113678 0)
(30.0086 0.00110528 0)
(29.9758 0.00106921 0)
(29.9453 0.00102799 0)
(29.9171 0.000979451 0)
(29.8913 0.000922355 0)
(29.8679 0.000853682 0)
(29.8472 0.000771545 0)
(29.8293 0.000672367 0)
(29.8144 0.000553373 0)
(29.8028 0.000408942 0)
(29.7948 0.00023663 0)
(29.7908 2.8162e-05 0)
(29.7911 -0.000219967 0)
(29.7964 -0.00052031 0)
(29.8069 -0.000877649 0)
(29.8238 -0.0013079 0)
(29.8471 -0.00181825 0)
(29.8788 -0.00244487 0)
(29.9122 -0.00307742 0)
(29.9429 -0.00368295 0)
(29.977 -0.00428819 0)
(30.0149 -0.00500175 0)
(30.0565 -0.00575302 0)
(30.102 -0.00661351 0)
(30.1512 -0.00752486 0)
(30.205 -0.00856243 0)
(30.2623 -0.00967321 0)
(30.3251 -0.0109199 0)
(30.3908 -0.0123278 0)
(30.4637 -0.0138322 0)
(30.5378 -0.0157435 0)
(30.6226 -0.0175059 0)
(30.7042 -0.0202744 0)
(30.805 -0.0222153 0)
(30.8918 -0.0263353 0)
(31.0163 -0.0286527 0)
(31.1055 -0.0339126 0)
(31.2641 -0.0394117 0)
(31.3572 -0.041044 0)
(31.5652 -0.0630709 0)
(31.6588 -0.041683 0)
(31.9892 -0.118617 0)
(31.9584 -0.123628 0)
(33.7041 -0.0270663 0)
(36.5881 -0.00898328 0)
(38.0697 0.000867323 0)
(38.1232 0.00548616 0)
(38.0965 0.0059999 0)
(37.7435 0.00638535 0)
(37.4008 0.00597003 0)
(36.9982 0.00572821 0)
(36.613 0.00532853 0)
(36.2368 0.00500934 0)
(35.8824 0.00469077 0)
(35.5506 0.00440886 0)
(35.2416 0.00414768 0)
(34.9558 0.00391619 0)
(34.6907 0.00370813 0)
(34.4458 0.00351443 0)
(34.2193 0.00334529 0)
(34.0095 0.00319143 0)
(33.8151 0.00304805 0)
(33.6351 0.00291957 0)
(33.4676 0.00280395 0)
(33.312 0.00269712 0)
(33.1671 0.00259875 0)
(33.032 0.00250783 0)
(32.9059 0.00242583 0)
(32.788 0.0023498 0)
(32.6777 0.00227897 0)
(32.5743 0.00221376 0)
(32.4773 0.00215334 0)
(32.3863 0.0020967 0)
(32.3006 0.0020444 0)
(32.22 0.00199577 0)
(32.1441 0.00195018 0)
(32.0725 0.0019072 0)
(32.005 0.00186665 0)
(31.9412 0.00182864 0)
(31.8809 0.00179269 0)
(31.8239 0.00175809 0)
(31.77 0.00172472 0)
(31.719 0.00169224 0)
(31.6707 0.00166008 0)
(31.6251 0.00162775 0)
(31.582 0.00159435 0)
(31.5412 0.00155929 0)
(31.5029 0.00152119 0)
(31.4668 0.00147945 0)
(31.433 0.00143174 0)
(31.4015 0.00137719 0)
(31.3724 0.00131301 0)
(31.3457 0.00123751 0)
(31.3214 0.0011468 0)
(31.2999 0.00103829 0)
(31.2812 0.000907343 0)
(31.2656 0.000750224 0)
(31.2534 0.00055971 0)
(31.2447 0.000332388 0)
(31.2401 5.76352e-05 0)
(31.2398 -0.000269657 0)
(31.2446 -0.000664651 0)
(31.2546 -0.00113525 0)
(31.2711 -0.00170078 0)
(31.294 -0.00237208 0)
(31.3252 -0.00319519 0)
(31.3583 -0.00402308 0)
(31.3886 -0.00481417 0)
(31.4225 -0.0056063 0)
(31.46 -0.00653539 0)
(31.5013 -0.00751749 0)
(31.5465 -0.0086365 0)
(31.5954 -0.00982689 0)
(31.6487 -0.0111733 0)
(31.7055 -0.0126239 0)
(31.7677 -0.0142377 0)
(31.8328 -0.0160729 0)
(31.9049 -0.0180116 0)
(31.9782 -0.0204844 0)
(32.0617 -0.0227499 0)
(32.1426 -0.0262958 0)
(32.2411 -0.0287874 0)
(32.3275 -0.0340153 0)
(32.4481 -0.0369442 0)
(32.537 -0.0437364 0)
(32.691 -0.0500739 0)
(32.78 -0.0539093 0)
(32.9883 -0.0768541 0)
(33.0642 -0.0607243 0)
(33.399 -0.13634 0)
(33.3622 -0.144126 0)
(34.094 -0.0400638 0)
(37.0618 -0.0147098 0)
(38.6548 -0.00130963 0)
(38.8323 0.00524612 0)
(38.9291 0.00637395 0)
(38.6874 0.00725188 0)
(38.4396 0.00698919 0)
(38.1144 0.00688034 0)
(37.7905 0.00651086 0)
(37.4618 0.00620526 0)
(37.1437 0.00587136 0)
(36.8393 0.00556386 0)
(36.5509 0.00526875 0)
(36.2803 0.00500043 0)
(36.0263 0.00475467 0)
(35.7897 0.00452232 0)
(35.5689 0.00431674 0)
(35.3631 0.0041278 0)
(35.1714 0.00395041 0)
(34.9929 0.00379034 0)
(34.8263 0.00364538 0)
(34.671 0.00351072 0)
(34.5259 0.00338633 0)
(34.3903 0.00327097 0)
(34.2634 0.00316653 0)
(34.1445 0.00306944 0)
(34.0331 0.0029788 0)
(33.9286 0.00289514 0)
(33.8303 0.00281751 0)
(33.738 0.00274465 0)
(33.651 0.00267725 0)
(33.5691 0.00261448 0)
(33.4919 0.00255558 0)
(33.419 0.0025 0)
(33.3502 0.00244753 0)
(33.2852 0.00239828 0)
(33.2237 0.00235166 0)
(33.1656 0.00230677 0)
(33.1105 0.00226347 0)
(33.0584 0.0022213 0)
(33.0091 0.00217953 0)
(32.9624 0.00213753 0)
(32.9183 0.00209415 0)
(32.8766 0.00204861 0)
(32.8373 0.00199915 0)
(32.8003 0.00194495 0)
(32.7657 0.00188307 0)
(32.7334 0.00181231 0)
(32.7035 0.00172914 0)
(32.676 0.00163126 0)
(32.651 0.0015138 0)
(32.6288 0.0013733 0)
(32.6094 0.00120382 0)
(32.5931 0.00100046 0)
(32.5802 0.000754111 0)
(32.5709 0.000460134 0)
(32.5657 0.000105117 0)
(32.5648 -0.000318044 0)
(32.569 -0.000827487 0)
(32.5784 -0.00143503 0)
(32.5943 -0.00216386 0)
(32.6165 -0.00302928 0)
(32.6471 -0.00408918 0)
(32.6795 -0.00515178 0)
(32.7094 -0.00616564 0)
(32.7427 -0.00718276 0)
(32.7797 -0.00837028 0)
(32.8204 -0.00962882 0)
(32.8649 -0.0110567 0)
(32.9131 -0.0125801 0)
(32.9656 -0.0142944 0)
(33.0216 -0.0161495 0)
(33.0829 -0.0181995 0)
(33.147 -0.0205404 0)
(33.2178 -0.022996 0)
(33.29 -0.0261249 0)
(33.3717 -0.0289954 0)
(33.4515 -0.0334306 0)
(33.5472 -0.0366034 0)
(33.6328 -0.0430732 0)
(33.7489 -0.046762 0)
(33.8376 -0.0553239 0)
(33.9855 -0.0625311 0)
(34.0725 -0.0692052 0)
(34.2751 -0.0925807 0)
(34.3455 -0.0834159 0)
(34.6646 -0.156151 0)
(34.64 -0.169013 0)
(34.4572 -0.0562205 0)
(37.4769 -0.0218832 0)
(39.1454 -0.00425915 0)
(39.4131 0.00460095 0)
(39.6043 0.00646381 0)
(39.4542 0.00795458 0)
(39.2903 0.00790806 0)
(39.0398 0.00799911 0)
(38.7798 0.00770779 0)
(38.5046 0.0074579 0)
(38.2305 0.00714067 0)
(37.9617 0.00683256 0)
(37.7019 0.00652203 0)
(37.454 0.0062302 0)
(37.2181 0.00595591 0)
(36.9956 0.00569099 0)
(36.7859 0.00545263 0)
(36.5888 0.00523034 0)
(36.4038 0.0050194 0)
(36.2305 0.00482726 0)
(36.0679 0.00465172 0)
(35.9155 0.0044874 0)
(35.7725 0.0043349 0)
(35.6385 0.00419281 0)
(35.5127 0.00406347 0)
(35.3945 0.0039428 0)
(35.2834 0.00382976 0)
(35.179 0.00372506 0)
(35.0807 0.00362775 0)
(34.9881 0.00353621 0)
(34.9008 0.00345132 0)
(34.8184 0.0033721 0)
(34.7406 0.00329763 0)
(34.6672 0.00322728 0)
(34.5977 0.00316079 0)
(34.5321 0.00309828 0)
(34.4699 0.003039 0)
(34.411 0.00298191 0)
(34.3553 0.00292679 0)
(34.3025 0.00287307 0)
(34.2525 0.00281982 0)
(34.2051 0.00276623 0)
(34.1603 0.00271088 0)
(34.1179 0.00265275 0)
(34.078 0.00258963 0)
(34.0404 0.00252042 0)
(34.0051 0.00244149 0)
(33.9722 0.00235121 0)
(33.9416 0.00224515 0)
(33.9135 0.00212028 0)
(33.888 0.0019706 0)
(33.8652 0.00179155 0)
(33.8452 0.00157565 0)
(33.8283 0.00131658 0)
(33.8148 0.00100303 0)
(33.805 0.000628798 0)
(33.7991 0.000177162 0)
(33.7977 -0.000361356 0)
(33.8012 -0.00100834 0)
(33.8099 -0.00178054 0)
(33.8251 -0.00270532 0)
(33.8465 -0.00380361 0)
(33.8763 -0.00514738 0)
(33.908 -0.00649075 0)
(33.9372 -0.00776991 0)
(33.9698 -0.00905653 0)
(34.006 -0.0105519 0)
(34.0459 -0.0121396 0)
(34.0896 -0.0139349 0)
(34.1368 -0.0158538 0)
(34.1883 -0.0180044 0)
(34.2432 -0.0203383 0)
(34.3031 -0.0229049 0)
(34.366 -0.0258411 0)
(34.4352 -0.0289098 0)
(34.506 -0.0328028 0)
(34.5857 -0.0363986 0)
(34.6639 -0.0418468 0)
(34.7566 -0.0458597 0)
(34.8412 -0.0537122 0)
(34.9526 -0.0583541 0)
(35.0407 -0.0689102 0)
(35.1819 -0.0771095 0)
(35.2684 -0.0871873 0)
(35.4614 -0.110751 0)
(35.5322 -0.110011 0)
(35.8282 -0.178366 0)
(35.8192 -0.199703 0)
(34.805 -0.0761473 0)
(37.8522 -0.0307505 0)
(39.5704 -0.00809473 0)
(39.9035 0.00350161 0)
(40.1654 0.00623158 0)
(40.0877 0.00845985 0)
(39.9935 0.00868486 0)
(39.8091 0.00903733 0)
(39.6094 0.00886827 0)
(39.388 0.00871659 0)
(39.1611 0.00845133 0)
(38.9329 0.0081733 0)
(38.7076 0.00787265 0)
(38.4887 0.00757784 0)
(38.277 0.00729114 0)
(38.0746 0.0070062 0)
(37.8814 0.00674452 0)
(37.698 0.00649559 0)
(37.5243 0.00625587 0)
(37.3603 0.00603491 0)
(37.2052 0.00583064 0)
(37.059 0.00563738 0)
(36.9212 0.00545684 0)
(36.7913 0.00528756 0)
(36.6688 0.00513235 0)
(36.5534 0.00498676 0)
(36.4445 0.00484973 0)
(36.3418 0.00472224 0)
(36.2449 0.00460342 0)
(36.1534 0.00449129 0)
(36.0669 0.00438696 0)
(35.9852 0.0042893 0)
(35.9079 0.00419725 0)
(35.8347 0.00411016 0)
(35.7655 0.00402773 0)
(35.6999 0.00395 0)
(35.6377 0.00387616 0)
(35.5788 0.003805 0)
(35.523 0.00373618 0)
(35.47 0.00366899 0)
(35.4198 0.00360233 0)
(35.3722 0.00353515 0)
(35.3271 0.0034657 0)
(35.2844 0.00339269 0)
(35.2442 0.00331341 0)
(35.2063 0.00322635 0)
(35.1706 0.00312715 0)
(35.1374 0.00301359 0)
(35.1065 0.00288021 0)
(35.078 0.00272307 0)
(35.0521 0.00253488 0)
(35.0289 0.0023097 0)
(35.0085 0.00203827 0)
(34.9912 0.00171252 0)
(34.9773 0.00131858 0)
(34.9669 0.000848285 0)
(34.9606 0.000280969 0)
(34.9585 -0.000395525 0)
(34.9615 -0.00120693 0)
(34.9695 -0.00217602 0)
(34.9839 -0.00333475 0)
(35.0045 -0.00471106 0)
(35.0334 -0.00639362 0)
(35.0642 -0.00807153 0)
(35.0926 -0.00966442 0)
(35.1243 -0.0112724 0)
(35.1597 -0.0131324 0)
(35.1986 -0.0151105 0)
(35.2412 -0.0173406 0)
(35.2873 -0.0197275 0)
(35.3376 -0.0223931 0)
(35.3912 -0.0252921 0)
(35.4497 -0.028468 0)
(35.5111 -0.0321031 0)
(35.5785 -0.0358968 0)
(35.6476 -0.040677 0)
(35.725 -0.0451386 0)
(35.8015 -0.0517376 0)
(35.8912 -0.0567792 0)
(35.9741 -0.0661642 0)
(36.081 -0.0720047 0)
(36.1682 -0.0847649 0)
(36.3023 -0.0941866 0)
(36.3889 -0.108162 0)
(36.5705 -0.131864 0)
(36.6437 -0.140795 0)
(36.9152 -0.203662 0)
(36.9208 -0.236509 0)
(35.1461 -0.100562 0)
(38.2001 -0.0416068 0)
(39.9487 -0.0129556 0)
(40.3285 0.00188824 0)
(40.6428 0.00563685 0)
(40.6208 0.00873964 0)
(40.5825 0.00928776 0)
(40.4533 0.00995838 0)
(40.3066 0.00994917 0)
(40.1349 0.00993357 0)
(39.9539 0.00975317 0)
(39.7672 0.00953638 0)
(39.5791 0.00927351 0)
(39.3928 0.00900058 0)
(39.2098 0.0087228 0)
(39.0321 0.00843618 0)
(38.8604 0.00816649 0)
(38.6953 0.00790324 0)
(38.5374 0.0076448 0)
(38.3867 0.0074031 0)
(38.2431 0.00717623 0)
(38.1067 0.00695859 0)
(37.9773 0.00675344 0)
(37.8545 0.00655944 0)
(37.7381 0.00637998 0)
(37.6279 0.00621035 0)
(37.5234 0.00604963 0)
(37.4246 0.0058992 0)
(37.3309 0.00575848 0)
(37.2421 0.00562508 0)
(37.1581 0.00550043 0)
(37.0783 0.00538322 0)
(37.0028 0.00527237 0)
(36.9311 0.00516722 0)
(36.8631 0.00506748 0)
(36.7986 0.00497306 0)
(36.7374 0.00488314 0)
(36.6792 0.00479636 0)
(36.624 0.00471223 0)
(36.5716 0.00462989 0)
(36.5218 0.00454804 0)
(36.4746 0.00446535 0)
(36.4298 0.00437974 0)
(36.3874 0.00428954 0)
(36.3473 0.00419151 0)
(36.3095 0.00408361 0)
(36.274 0.00396067 0)
(36.2407 0.00381967 0)
(36.2098 0.00365408 0)
(36.1814 0.00345873 0)
(36.1554 0.00322491 0)
(36.132 0.00294497 0)
(36.1115 0.00260756 0)
(36.094 0.00220252 0)
(36.0798 0.00171299 0)
(36.0692 0.00112836 0)
(36.0624 0.000423284 0)
(36.06 -0.00041728 0)
(36.0624 -0.00142435 0)
(36.0698 -0.00262765 0)
(36.0835 -0.00406443 0)
(36.1033 -0.00577121 0)
(36.1312 -0.00785645 0)
(36.161 -0.0099315 0)
(36.1887 -0.0118931 0)
(36.2195 -0.0138828 0)
(36.2539 -0.0161724 0)
(36.2917 -0.0186123 0)