/*--------------------------------*- C++ -*----------------------------------*\
| =========                 |                                                 |
| \\      /  F ield         | OpenFOAM: The Open Source CFD Toolbox           |
|  \\    /   O peration     | Version:  2306                                  |
|   \\  /    A nd           | Website:  www.openfoam.com                      |
|    \\/     M anipulation  |                                                 |
\*---------------------------------------------------------------------------*/
FoamFile
{
    version     2.0;
    format      ascii;
    arch        "LSB;label=32;scalar=64";
    class       volVectorField;
    location    "1600";
    object      wallShearStress;
}
// * * * * * * * * * * * * * * * * * * * * * * * * * * * * * * * * * * * * * //

dimensions      [0 2 -2 0 0 0 0];

internalField   uniform (0 0 0);

boundaryField
{
    inlet
    {
        type            calculated;
        value           uniform (0 0 0);
    }
    outlet
    {
        type            calculated;
        value           uniform (0 0 0);
    }
    lowerWallStartup
    {
        type            symmetryPlane;
    }
    upperWallStartup
    {
        type            symmetryPlane;
    }
    upperWall
    {
        type            calculated;
        value           nonuniform List<vector> 
218
(
(-10.5688 0.00133793 0)
(-7.38863 0.000815092 0)
(-6.67398 0.000175315 0)
(-6.13775 8.79031e-05 0)
(-5.83019 6.13469e-05 0)
(-5.55819 4.75597e-05 0)
(-5.36178 3.95238e-05 0)
(-5.18981 3.41077e-05 0)
(-5.04915 3.00581e-05 0)
(-4.92622 2.70063e-05 0)
(-4.82041 2.4487e-05 0)
(-4.72684 2.25e-05 0)
(-4.6443 2.07628e-05 0)
(-4.57043 1.93451e-05 0)
(-4.50436 1.80524e-05 0)
(-4.4447 1.70082e-05 0)
(-4.39065 1.60107e-05 0)
(-4.3416 1.51867e-05 0)
(-4.29678 1.44183e-05 0)
(-4.25578 1.37567e-05 0)
(-4.21813 1.31365e-05 0)
(-4.18348 1.2597e-05 0)
(-4.15148 1.21046e-05 0)
(-4.1219 1.1636e-05 0)
(-4.09447 1.12462e-05 0)
(-4.069 1.0832e-05 0)
(-4.04529 1.05378e-05 0)
(-4.02318 1.01495e-05 0)
(-4.00254 9.93722e-06 0)
(-3.98324 9.55652e-06 0)
(-3.96516 9.4261e-06 0)
(-3.94821 9.04e-06 0)
(-3.93229 8.98858e-06 0)
(-3.91732 8.5866e-06 0)
(-3.90323 8.61085e-06 0)
(-3.88995 8.17863e-06 0)
(-3.87741 8.28265e-06 0)
(-3.86558 7.81466e-06 0)
(-3.85437 8.00338e-06 0)
(-3.84377 7.49664e-06 0)
(-3.83369 7.77658e-06 0)
(-3.82413 7.23367e-06 0)
(-3.815 7.61527e-06 0)
(-3.8063 7.04347e-06 0)
(-3.79794 7.5417e-06 0)
(-3.78993 6.96009e-06 0)
(-3.78215 7.58828e-06 0)
(-3.77464 7.02823e-06 0)
(-3.76725 7.80289e-06 0)
(-3.76003 7.30929e-06 0)
(-3.7528 8.2495e-06 0)
(-3.74564 7.88045e-06 0)
(-3.73833 9.01136e-06 0)
(-3.73097 8.835e-06 0)
(-3.72331 1.01582e-05 0)
(-3.71547 1.02505e-05 0)
(-3.70717 1.17102e-05 0)
(-3.69857 1.2278e-05 0)
(-3.68935 1.37524e-05 0)
(-3.67973 1.49205e-05 0)
(-3.66937 1.64676e-05 0)
(-3.65853 1.80596e-05 0)
(-3.64686 2.01013e-05 0)
(-3.63659 2.15458e-05 0)
(-3.6282 2.17453e-05 0)
(-3.61981 2.29317e-05 0)
(-3.61132 2.36814e-05 0)
(-3.60285 2.48939e-05 0)
(-3.59434 2.58595e-05 0)
(-3.58591 2.72274e-05 0)
(-3.57748 2.79826e-05 0)
(-3.56917 2.94212e-05 0)
(-3.56092 3.00025e-05 0)
(-3.55281 3.1268e-05 0)
(-3.54481 3.19411e-05 0)
(-3.53698 3.26463e-05 0)
(-3.52926 3.36575e-05 0)
(-3.5218 3.37785e-05 0)
(-3.51439 3.51163e-05 0)
(-3.50738 3.49094e-05 0)
(-3.50025 3.62779e-05 0)
(-3.49379 3.57436e-05 0)
(-3.48682 3.76931e-05 0)
(-3.48115 3.54172e-05 0)
(-3.47396 3.97097e-05 0)
(-3.46975 3.41104e-05 0)
(-3.46114 4.1779e-05 0)
(-3.46028 5.49376e-05 0)
(-3.45172 5.14159e-05 -1.77047e-20)
(-3.44467 3.61653e-05 0)
(-3.43935 3.75863e-05 1.75084e-20)
(-3.43372 4.24831e-05 -1.74109e-20)
(-3.42787 4.36188e-05 0)
(-3.42203 4.16619e-05 -1.72085e-20)
(-3.41621 4.34227e-05 0)
(-3.41034 4.20375e-05 0)
(-3.40445 4.39454e-05 0)
(-3.3985 4.22763e-05 0)
(-3.39252 4.41281e-05 1.66691e-20)
(-3.38648 4.28073e-05 0)
(-3.38041 4.37822e-05 -1.64404e-20)
(-3.37427 4.29793e-05 0)
(-3.36812 4.39149e-05 -1.62041e-20)
(-3.36192 4.29392e-05 1.60836e-20)
(-3.3557 4.42301e-05 0)
(-3.34943 4.2998e-05 1.58367e-20)
(-3.34316 4.4957e-05 0)
(-3.33683 4.24968e-05 -1.55831e-20)
(-3.33048 4.50411e-05 0)
(-3.32408 4.21422e-05 0)
(-3.31766 4.45245e-05 0)
(-3.31119 4.16136e-05 0)
(-3.30473 4.40622e-05 0)
(-3.29822 4.13146e-05 0)
(-3.29173 4.392e-05 0)
(-3.28519 4.1938e-05 1.45031e-20)
(-3.2787 4.37046e-05 -1.43611e-20)
(-3.27216 4.20113e-05 1.42182e-20)
(-3.26565 4.39281e-05 -1.40735e-20)
(-3.25909 4.18249e-05 0)
(-3.25256 4.36818e-05 -1.37809e-20)
(-3.24599 4.14302e-05 0)
(-3.23946 4.33659e-05 -1.34833e-20)
(-3.23289 4.10136e-05 0)
(-3.22638 4.37068e-05 0)
(-3.21985 4.00892e-05 -1.30291e-20)
(-3.21337 4.37016e-05 0)
(-3.20687 3.96842e-05 -1.27215e-20)
(-3.20042 4.32633e-05 0)
(-3.19396 3.90784e-05 -1.24106e-20)
(-3.18753 4.25407e-05 0)
(-3.18112 3.85244e-05 -1.20968e-20)
(-3.17476 4.16681e-05 0)
(-3.16841 3.85547e-05 0)
(-3.16212 4.06358e-05 -1.16212e-20)
(-3.15585 3.79253e-05 0)
(-3.14963 3.99107e-05 -1.13022e-20)
(-3.14343 3.68847e-05 0)
(-3.13727 3.85448e-05 -1.09817e-20)
(-3.13115 3.53376e-05 0)
(-3.12507 3.70397e-05 -1.06601e-20)
(-3.11904 3.36308e-05 0)
(-3.11305 3.60425e-05 0)
(-3.10712 3.15204e-05 -1.01768e-20)
(-3.10123 3.46487e-05 0)
(-3.0954 3.0114e-05 -9.85416e-21)
(-3.08963 3.31789e-05 0)
(-3.08392 2.89147e-05 -9.53193e-21)
(-3.07827 3.21287e-05 0)
(-3.0727 2.80686e-05 0)
(-3.06718 3.13197e-05 -9.05022e-21)
(-3.06174 2.78928e-05 -8.89069e-21)
(-3.05637 3.0148e-05 0)
(-3.05107 2.69154e-05 -8.57263e-21)
(-3.04583 2.93149e-05 0)
(-3.04067 2.57823e-05 -8.25676e-21)
(-3.03556 2.81549e-05 0)
(-3.03055 2.4675e-05 -7.94339e-21)
(-3.02557 2.72431e-05 0)
(-3.02072 2.34694e-05 -7.63294e-21)
(-3.01589 2.67692e-05 -7.4787e-21)
(-3.0112 2.17176e-05 0)
(-3.00651 2.56233e-05 -7.17338e-21)
(-3.00198 2.0466e-05 0)
(-2.99741 2.42496e-05 -6.87176e-21)
(-2.99305 1.94353e-05 0)
(-2.98864 2.31842e-05 0)
(-2.98445 1.90784e-05 -6.42706e-21)
(-2.98019 2.20647e-05 6.28076e-21)
(-2.97619 1.81945e-05 -6.13608e-21)
(-2.97206 2.12375e-05 5.99213e-21)
(-2.96824 1.7092e-05 0)
(-2.96423 2.00696e-05 0)
(-2.96059 1.6048e-05 0)
(-2.9567 1.88776e-05 5.42948e-21)
(-2.95327 1.51985e-05 0)
(-2.94949 1.87473e-05 0)
(-2.9463 1.40428e-05 0)
(-2.94256 1.80443e-05 0)
(-2.93969 1.4007e-05 0)
(-2.93589 1.66043e-05 0)
(-2.9335 1.39115e-05 0)
(-2.92933 1.50059e-05 -4.36917e-21)
(-2.92797 1.37209e-05 4.2414e-21)
(-2.92231 3.7671e-06 0)
(-2.92141 2.27087e-05 0)
(-2.91961 2.35948e-05 -1.03039e-21)
(-2.91651 2.26287e-05 8.70922e-22)
(-2.91332 2.16229e-05 1.46391e-21)
(-2.90983 2.16042e-05 1.22236e-21)
(-2.9059 2.26345e-05 2.02504e-21)
(-2.90156 2.29438e-05 1.66118e-21)
(-2.89678 2.44452e-05 1.34637e-21)
(-2.89163 2.58534e-05 0)
(-2.88606 2.73991e-05 1.68276e-21)
(-2.88023 3.05595e-05 0)
(-2.87411 3.35299e-05 -1.88886e-21)
(-2.86797 3.82538e-05 0)
(-2.86181 4.29141e-05 0)
(-2.85605 4.86915e-05 0)
(-2.85066 5.56151e-05 0)
(-2.84621 6.31428e-05 0)
(-2.84267 6.93368e-05 0)
(-2.84056 7.5285e-05 -3.221e-21)
(-2.83987 7.78665e-05 0)
(-2.84063 7.76867e-05 8.24274e-21)
(-2.8433 7.00357e-05 -8.3417e-21)
(-2.84629 6.01696e-05 7.93663e-21)
(-2.85215 3.15151e-05 0)
(-2.85524 1.19349e-05 1.28896e-20)
(-2.8641 -6.11705e-05 0)
(-2.86404 -6.93447e-05 0)
(-2.87728 -0.000267435 0)
(-2.86976 -0.000182337 0)
(-2.8945 -0.000787022 0)
(-2.86682 -0.000259138 0)
(-2.95393 -0.00280551 -3.82406e-20)
(-2.69957 -0.00233071 0)
)
;
    }
    lowerWall
    {
        type            calculated;
        value           nonuniform List<vector> 
266
(
(-10.8271 -0.00136109 0)
(-7.46404 -0.000894168 0)
(-6.71726 -0.000190225 0)
(-6.1674 -9.34224e-05 0)
(-5.85266 -6.43883e-05 0)
(-5.57633 -4.94833e-05 0)
(-5.37672 -4.09599e-05 0)
(-5.20269 -3.5204e-05 0)
(-5.06019 -3.09437e-05 0)
(-4.93635 -2.77414e-05 0)
(-4.8292 -2.51656e-05 0)
(-4.73495 -2.30712e-05 0)
(-4.65146 -2.12867e-05 0)
(-4.57721 -1.98015e-05 0)
(-4.51037 -1.85186e-05 0)
(-4.4503 -1.73706e-05 0)
(-4.39589 -1.64021e-05 0)
(-4.34636 -1.5538e-05 0)
(-4.3012 -1.47478e-05 0)
(-4.25993 -1.40579e-05 0)
(-4.22198 -1.34434e-05 0)
(-4.18707 -1.28831e-05 0)
(-4.15483 -1.23721e-05 0)
(-4.12505 -1.19062e-05 0)
(-4.09743 -1.14907e-05 0)
(-4.07177 -1.11069e-05 0)
(-4.04789 -1.07515e-05 0)
(-4.02564 -1.04276e-05 0)
(-4.00485 -1.01279e-05 0)
(-3.98542 -9.84815e-06 0)
(-3.96723 -9.59157e-06 0)
(-3.95017 -9.353e-06 0)
(-3.93415 -9.1293e-06 0)
(-3.91909 -8.91779e-06 0)
(-3.90492 -8.71814e-06 0)
(-3.89158 -8.53016e-06 0)
(-3.879 -8.35112e-06 0)
(-3.86714 -8.17691e-06 0)
(-3.85595 -8.0077e-06 0)
(-3.84538 -7.84132e-06 0)
(-3.8354 -7.67492e-06 0)
(-3.82599 -7.50536e-06 0)
(-3.81712 -7.32814e-06 0)
(-3.80876 -7.14024e-06 0)
(-3.80091 -6.93277e-06 0)
(-3.79356 -6.70392e-06 0)
(-3.7867 -6.43872e-06 0)
(-3.78034 -6.13292e-06 0)
(-3.7745 -5.76749e-06 0)
(-3.76919 -5.33541e-06 0)
(-3.76444 -4.81559e-06 0)
(-3.7603 -4.18849e-06 0)
(-3.75678 -3.43197e-06 0)
(-3.75398 -2.50459e-06 0)
(-3.75193 -1.34586e-06 0)
(-3.75073 4.25941e-08 0)
(-3.75045 1.83439e-06 0)
(-3.75119 3.86441e-06 0)
(-3.75313 6.56852e-06 0)
(-3.75634 9.3231e-06 0)
(-3.76107 1.32323e-05 0)
(-3.76743 1.69465e-05 0)
(-3.77582 2.1767e-05 0)
(-3.78454 2.88162e-05 0)
(-3.79242 3.71088e-05 0)
(-3.80116 4.35453e-05 0)
(-3.81102 5.225e-05 0)
(-3.82185 5.89423e-05 0)
(-3.83372 6.88552e-05 0)
(-3.84663 7.68186e-05 0)
(-3.86075 8.84776e-05 0)
(-3.87599 9.59033e-05 0)
(-3.89268 0.000109097 0)
(-3.91049 0.000118123 0)
(-3.93006 0.000135289 0)
(-3.95066 0.000151658 0)
(-3.97366 0.000177354 0)
(-3.99704 0.000204851 0)
(-4.02505 0.000243978 0)
(-4.05086 0.000279994 0)
(-4.0878 0.000338589 0)
(-4.11537 0.000365684 0)
(-4.16717 0.000458894 0)
(-4.20162 0.000514401 0)
(-4.26557 0.000222334 0)
(-4.34346 0.00229841 0)
(-4.3651 -0.00483875 0)
(-4.60945 0.00563305 -0)
(-2.956 -3.95923 0)
(0.0142442 -0.000151928 -0)
(0.00216904 -0.00193756 6.79139e-24)
(-0.000412428 -0.00314346 -6.2508e-24)
(-0.00440757 -0.00376029 0)
(-0.00676729 -0.00368609 0)
(-0.00612528 -0.00344205 0)
(-0.0061595 -0.0030559 0)
(-0.00655763 -0.00259537 0)
(-0.00726603 -0.00207906 -4.95467e-22)
(-0.0082211 -0.00149903 6.38781e-22)
(-0.00946581 -0.000806202 -1.81048e-21)
(-0.0110698 0.000111482 2.57967e-21)
(-0.0130811 0.00146765 -0)
(-0.0154527 0.00367279 1.26688e-20)
(-0.0178887 0.00757564 -2.18461e-20)
(-0.0195471 0.0147801 -0)
(-0.0167163 0.0251428 0)
(-0.00617288 0.0322131 0)
(0.00241141 0.0333104 4.57076e-19)
(0.0105365 0.0336019 -3.86351e-19)
(0.0202955 0.0295833 7.23975e-19)
(0.0298679 0.0171142 -7.95232e-19)
(0.0350564 -0.00439801 0)
(0.0366957 -0.0235519 1.2583e-18)
(0.0377524 -0.042216 -8.57928e-19)
(0.0377677 -0.0598777 0)
(0.0368555 -0.0768787 0)
(0.0319915 -0.0897641 0)
(0.0223142 -0.0993878 0)
(0.00701475 -0.105376 0)
(-0.0130026 -0.106461 0)
(-0.0345196 -0.100487 -6.98107e-19)
(-0.052732 -0.08525 -3.14609e-21)
(-0.0643271 -0.0648712 7.89671e-19)
(-0.0681605 -0.0781495 0)
(-0.0979235 -0.105458 0)
(-0.126504 -0.107156 0)
(-0.152016 -0.0957201 0)
(-0.171105 -0.0716532 -0)
(-0.182058 -0.0370708 3.08924e-19)
(-0.184082 -0.00245264 -2.80005e-19)
(-0.180997 0.0160082 -0)
(-0.179214 0.00655861 0)
(-0.185352 -0.035041 0)
(-0.200861 -0.108586 -6.74607e-20)
(-0.214516 -0.212589 7.23653e-20)
(-0.233824 -0.466861 -0)
(-0.111063 0.208478 0)
(-0.412232 -0.079878 -2.88785e-22)
(-0.109419 0.00467982 0)
(-0.0739038 -0.00255279 -4.30053e-22)
(-0.0628662 -0.000189864 -0)
(-0.0714452 -0.000181585 0)
(-0.0876575 -0.000214581 0)
(-0.101925 -9.54335e-05 -0)
(-0.115527 -3.43589e-05 0)
(-0.125761 0.000175203 -4.19632e-22)
(-0.0978251 0.000610509 0)
(0.000189283 0.000407152 0)
(0.147235 -0.00117746 0)
(0.281468 -0.00125134 0)
(0.406157 -0.000620391 0)
(0.514557 -0.000567857 0)
(0.611656 -0.000530248 0)
(0.70018 -0.000505378 0)
(0.782434 -0.000480341 0)
(0.859944 -0.000460508 0)
(0.933919 -0.000444419 3.07822e-22)
(1.00539 -0.000440076 0)
(1.07497 -0.000440222 3.05833e-22)
(1.14291 -0.000449989 0)
(1.20904 -0.000454536 3.02274e-22)
(1.27305 -0.000460834 0)
(1.33452 -0.000456882 2.9699e-22)
(1.39322 -0.000453426 0)
(1.44902 -0.000444159 0)
(1.5019 -0.000439604 0)
(1.55181 -0.000433291 2.80895e-22)
(1.59861 -0.000432333 2.75696e-22)
(1.64199 -0.000428485 2.70011e-22)
(1.68153 -0.000425442 2.63826e-22)
(1.71667 -0.000416736 2.57136e-22)
(1.7469 -0.000405099 0)
(1.77176 -0.000387078 -0)
(1.79084 -0.000366646 2.34044e-22)
(1.8039 -0.000340973 2.25391e-22)
(1.81074 -0.000315562 2.16302e-22)
(1.81121 -0.000286209 2.06807e-22)
(1.80517 -0.000258484 1.96938e-22)
(1.79244 -0.000227411 1.86727e-22)
(1.77287 -0.00019716 0)
(1.74625 -0.000163581 1.6542e-22)
(1.71245 -0.000129006 1.54401e-22)
(1.67136 -9.14648e-05 1.43196e-22)
(1.62298 -5.18592e-05 1.31856e-22)
(1.56737 -1.04771e-05 1.20434e-22)
(1.50478 3.25763e-05 1.08987e-22)
(1.43543 7.59238e-05 0)
(1.35977 0.000119469 8.62531e-23)
(1.27805 0.000161982 7.50761e-23)
(1.19114 0.0002022 6.41076e-23)
(1.09882 0.000240731 5.33726e-23)
(1.00328 0.000275704 4.29607e-23)
(0.90139 0.00031374 3.28124e-23)
(0.798927 0.0031456 0)
(0.744653 0.000696162 1.99628e-23)
(0.585687 -0.00241132 0)
(0.473602 0.0003986 -0)
(0.366289 0.0014396 -0)
(0.27291 0.00192759 2.80546e-23)
(0.156329 -0.00099978 0)
(0.0368345 -0.00102619 -0)
(-0.071725 0.000455699 0)
(-0.181998 0.000772608 -0)
(-0.287308 0.000472194 0)
(-0.39148 0.000471096 -0)
(-0.492603 0.000470685 5.97406e-23)
(-0.591329 0.000466563 0)
(-0.686972 0.000462714 0)
(-0.779626 0.000455874 -0)
(-0.869017 0.000449157 7.33907e-23)
(-0.955146 0.000440083 0)
(-1.03789 0.000431081 0)
(-1.11726 0.000420299 -0)
(-1.19324 0.000409636 0)
(-1.26589 0.000397652 -0)
(-1.33524 0.000385953 -0)
(-1.40136 0.00037316 8.46458e-23)
(-1.46438 0.000360955 0)
(-1.5243 0.000347659 -0)
(-1.58139 0.00033547 8.59724e-23)
(-1.63549 0.000321908 -0)
(-1.68721 0.000310019 8.60617e-23)
(-1.73567 0.000296308 0)
(-1.78288 0.000285641 0)
(-1.82552 0.000271516 -8.52683e-23)
(-1.86979 0.000263227 -0)
(-1.90538 0.000246248 8.42733e-23)
(-1.94923 0.000246816 0)
(-1.97611 0.000214668 -0)
(-2.02151 0.000241891 0)
(-2.0389 0.000170546 0)
(-2.08694 0.000267407 -0)
(-2.09901 0.000107319 7.96127e-23)
(-2.12544 0.000242762 0)
(-2.16081 0.000124063 -0)
(-2.17733 0.00016068 9.20314e-21)
(-2.20985 0.000149274 1.58055e-20)
(-2.23715 0.000146184 0)
(-2.26964 0.000143408 0)
(-2.30226 0.000141414 0)
(-2.33709 0.000141387 -0)
(-2.37271 0.000142648 0)
(-2.40925 0.000145966 -2.40895e-20)
(-2.44589 0.000150806 0)
(-2.48226 0.000157426 -3.36216e-20)
(-2.51753 0.000164973 2.78169e-20)
(-2.55141 0.00017321 0)
(-2.58276 0.000180404 0)
(-2.61181 0.000186551 0)
(-2.63706 0.000188649 4.8688e-20)
(-2.65957 0.000188437 -3.90534e-20)
(-2.67689 0.000181234 0)
(-2.6921 0.000173534 4.96558e-20)
(-2.70043 0.00015624 0)
(-2.7089 0.000146234 6.31567e-20)
(-2.7079 0.000122155 0)
(-2.7122 0.000122735 0)
(-2.7027 9.49283e-05 0)
(-2.70823 0.000125097 0)
(-2.69281 8.4952e-05 0)
(-2.70555 0.000167568 1.44567e-19)
(-2.68615 8.63358e-05 -7.66435e-20)
(-2.7039 0.000259999 0)
(-2.6984 0.000121035 2.84074e-20)
(-2.71792 0.000418536 0)
(-2.83555 0.00010152 0)
)
;
    }
    front
    {
        type            empty;
    }
    back
    {
        type            empty;
    }
}


// ************************************************************************* //
