/*--------------------------------*- C++ -*----------------------------------*\
| =========                 |                                                 |
| \\      /  F ield         | OpenFOAM: The Open Source CFD Toolbox           |
|  \\    /   O peration     | Version:  2306                                  |
|   \\  /    A nd           | Website:  www.openfoam.com                      |
|    \\/     M anipulation  |                                                 |
\*---------------------------------------------------------------------------*/
FoamFile
{
    version     2.0;
    format      ascii;
    arch        "LSB;label=32;scalar=64";
    class       volScalarField;
    location    "800";
    object      nut;
}
// * * * * * * * * * * * * * * * * * * * * * * * * * * * * * * * * * * * * * //

dimensions      [0 2 -1 0 0 0 0];

internalField   uniform 0;

boundaryField
{
    inlet
    {
        type            calculated;
        value           uniform 0;
    }
    outlet
    {
        type            calculated;
        value           uniform 0;
    }
    lowerWallStartup
    {
        type            symmetryPlane;
    }
    upperWallStartup
    {
        type            symmetryPlane;
    }
    upperWall
    {
        type            nutUBlendedWallFunction;
        value           nonuniform List<scalar> 
218
(
1.18092e-08
3.99979e-09
2.97028e-09
2.52163e-09
2.27424e-09
2.09731e-09
1.98695e-09
1.88155e-09
1.82492e-09
1.75323e-09
1.72652e-09
1.67108e-09
1.66223e-09
1.61449e-09
1.61748e-09
1.57287e-09
1.58382e-09
1.53955e-09
1.5557e-09
1.51026e-09
1.52957e-09
1.48238e-09
1.50337e-09
1.45445e-09
1.47599e-09
1.42575e-09
1.44716e-09
1.39658e-09
1.41768e-09
1.36816e-09
1.38891e-09
1.34149e-09
1.36151e-09
1.31627e-09
1.33488e-09
1.29139e-09
1.30807e-09
1.26605e-09
1.28074e-09
1.2401e-09
1.25325e-09
1.21383e-09
1.22638e-09
1.18782e-09
1.20083e-09
1.16208e-09
1.17554e-09
1.13425e-09
1.14447e-09
1.10244e-09
1.0973e-09
1.05699e-09
1.01622e-09
0.00743798
9.86136e-10
8.66513e-10
8.83526e-10
9.03932e-10
8.20077e-10
8.17009e-10
7.80402e-10
7.35669e-10
6.20425e-10
4.38916e-07
0
7.48799e-10
0
0
7.23819e-10
0
8.23499e-10
0
1.80492e-09
7.13783e-10
2.32891e-09
0.000111978
1.51452e-09
1.64081e-09
0
1.98946e-09
0.0270838
2.81692e-09
2.33164e-09
3.0251e-09
2.654e-09
3.17967e-09
2.50123e-09
3.99676e-09
1.31858e-09
4.3624e-09
1.21087e-09
4.32333e-09
1.50314e-09
4.63498e-09
1.69569e-09
4.85579e-09
1.70827e-09
4.80597e-09
1.51547e-09
4.55429e-09
6.84871e-10
3.45552e-09
2.27211e-09
4.63131e-09
2.80483e-09
5.32012e-09
3.7951e-09
6.10269e-09
4.45236e-09
6.63731e-09
4.62745e-09
6.84847e-09
4.78139e-09
7.11261e-09
5.15697e-09
7.58305e-09
5.61223e-09
8.02543e-09
6.08312e-09
8.46136e-09
6.56126e-09
8.91114e-09
7.21914e-09
9.51854e-09
8.21095e-09
1.03791e-08
9.02015e-09
1.09181e-08
9.25348e-09
1.07244e-08
8.92959e-09
1.11169e-08
1.1778e-08
1.4437e-08
1.5412e-08
1.57487e-08
1.4371e-08
1.44939e-08
1.47255e-08
1.81856e-08
1.75184e-08
1.18901e-08
7.71566e-09
9.34534e-09
1.2092e-08
1.75046e-08
2.19937e-08
1.94862e-08
7.02734e-09
8.83524e-09
3.35604e-08
5.51788e-08
6.15406e-08
5.52605e-08
4.61209e-08
0
6.32019e-08
9.4427e-08
5.30118e-08
0
0
2.09933e-08
4.89156e-08
6.51468e-08
4.76401e-08
1.09658e-07
0
2.48086e-08
0
1.64079e-08
0
0
2.34801e-09
6.2477e-10
3.16169e-10
9.48727e-09
2.11069e-08
3.62352e-08
5.12792e-08
7.02557e-08
8.61082e-08
9.92991e-08
1.06874e-07
1.05628e-07
9.79325e-08
8.77631e-08
7.81129e-08
6.62366e-08
5.47904e-08
4.29988e-08
3.37305e-08
2.63153e-08
2.06551e-08
1.71418e-08
1.40783e-08
1.33341e-08
1.43045e-08
2.13202e-08
3.77738e-08
3.44887e-08
4.07801e-08
8.22483e-09
2.16232e-08
1.63728e-07
3.10222e-07
3.54345e-07
1.62864e-07
6.70637e-08
2.39609e-07
8.80223e-08
9.99182e-08
0
3.66492e-08
4.10344e-08
0
0
0
0
)
;
    }
    lowerWall
    {
        type            nutUBlendedWallFunction;
        value           nonuniform List<scalar> 
266
(
1.27731e-08
4.28869e-09
3.17006e-09
2.68962e-09
2.41564e-09
2.23318e-09
2.10414e-09
2.00243e-09
1.92839e-09
1.86641e-09
1.82136e-09
1.78039e-09
1.7509e-09
1.72195e-09
1.70133e-09
1.6795e-09
1.66359e-09
1.64567e-09
1.63175e-09
1.61567e-09
1.6021e-09
1.58662e-09
1.57251e-09
1.55693e-09
1.54193e-09
1.52596e-09
1.51018e-09
1.49405e-09
1.47818e-09
1.4626e-09
1.4474e-09
1.43279e-09
1.41837e-09
1.40436e-09
1.39018e-09
1.37611e-09
1.3617e-09
1.3473e-09
1.33264e-09
1.31803e-09
1.30331e-09
1.2887e-09
1.27419e-09
1.25983e-09
1.24604e-09
1.23219e-09
1.21976e-09
1.20697e-09
1.19655e-09
1.18762e-09
1.18208e-09
1.18313e-09
1.18248e-09
1.20003e-09
1.19897e-09
1.2076e-09
1.19943e-09
1.1877e-09
1.14599e-09
1.15839e-09
1.09066e-09
1.08707e-09
1.01796e-09
1.02302e-09
9.11464e-10
1.248e-09
9.25382e-10
0
2.66551e-10
3.36681e-09
0
1.85062e-08
4.49288e-08
2.5766e-08
5.07089e-09
1.79688e-08
1.11829e-08
3.58226e-09
0
2.22529e-10
1.31925e-09
4.06614e-09
0
5.88648e-09
1.31804e-08
1.85285e-08
1.38532e-08
0
0.00124549
0
0
0
0
0
0
0
0
0
0
0
9.16598e-07
5.27263e-06
1.00191e-05
1.48915e-05
1.98031e-05
2.45815e-05
2.87296e-05
3.07366e-05
2.78601e-05
1.93925e-05
5.11518e-06
0
6.25213e-06
1.80355e-05
2.3934e-05
2.6655e-05
2.75141e-05
2.70761e-05
2.57531e-05
2.38655e-05
2.1631e-05
1.92682e-05
1.69029e-05
1.46853e-05
1.26518e-05
1.0859e-05
9.29942e-06
7.98858e-06
6.88933e-06
5.98017e-06
5.21945e-06
4.57402e-06
4.03264e-06
3.54391e-06
3.14613e-06
2.6888e-06
0
3.52941e-09
4.49676e-09
0
1.85984e-09
2.44417e-09
0.0349643
1.18741e-09
9.56493e-10
1.59951e-10
2.69551e-10
8.99236e-10
2.60836e-09
3.99349e-09
4.86062e-09
5.28306e-09
5.38882e-09
5.30494e-09
5.11182e-09
4.80684e-09
4.34297e-09
3.60504e-09
2.29527e-09
1.53499e-09
1.25118e-09
0
0
5.64503e-10
1.17331e-09
1.57286e-09
1.94308e-09
2.32266e-09
2.67294e-09
3.37605e-09
4.97266e-09
4.05336e-09
0
0
3.3189e-09
6.91186e-09
6.91915e-09
4.30329e-09
1.67958e-09
7.7715e-10
8.85043e-10
1.53374e-09
1.89678e-09
1.85118e-09
1.99063e-09
2.16322e-09
9.15268e-10
1.26732e-09
2.814e-09
3.70151e-09
4.1416e-09
4.24411e-09
4.10853e-09
3.80747e-09
3.41413e-09
2.97679e-09
2.53819e-09
2.1174e-09
1.72553e-09
1.37646e-09
1.06303e-09
7.91104e-10
0.00312358
0
0
0.4045
0
0
2.28476e-10
3.97941e-10
5.20258e-10
4.48899e-10
4.57695e-10
2.96879e-10
3.37663e-10
0
2.30153e-10
2.15897e-10
0
0
1.20238e-09
3.26212e-09
3.0723e-09
1.50172e-09
0
0
0
0
0
0
0
0
0
0
2.41637e-09
2.75145e-09
1.88494e-09
0
3.74978e-09
3.90832e-09
3.80762e-09
4.91577e-09
7.08952e-10
5.23899e-09
6.21405e-09
4.73649e-09
3.51691e-09
8.26926e-10
0
3.67405e-09
6.57951e-09
4.33506e-09
3.44612e-09
2.42099e-08
1.55255e-08
4.44416e-08
9.72099e-08
6.43138e-08
6.00507e-07
1.23515e-06
7.05458e-07
5.04672e-07
1.21177e-06
3.30869e-06
4.14549e-06
7.88197e-06
)
;
    }
    front
    {
        type            empty;
    }
    back
    {
        type            empty;
    }
}


// ************************************************************************* //
