/*--------------------------------*- C++ -*----------------------------------*\
| =========                 |                                                 |
| \\      /  F ield         | OpenFOAM: The Open Source CFD Toolbox           |
|  \\    /   O peration     | Version:  2306                                  |
|   \\  /    A nd           | Website:  www.openfoam.com                      |
|    \\/     M anipulation  |                                                 |
\*---------------------------------------------------------------------------*/
FoamFile
{
    version     2.0;
    format      ascii;
    arch        "LSB;label=32;scalar=64";
    class       surfaceScalarField;
    location    "800";
    object      phi;
}
// * * * * * * * * * * * * * * * * * * * * * * * * * * * * * * * * * * * * * //

dimensions      [0 3 -1 0 0 0 0];

oriented        oriented;

internalField   nonuniform List<scalar> 
40747
(
1.75275e-05
-2.64701e-06
7.49269e-06
1.00365e-05
2.11729e-05
-5.81849e-06
1.52899e-05
1.33809e-05
2.55115e-05
-9.55305e-06
2.31092e-05
1.77013e-05
3.06249e-05
-1.38338e-05
3.05624e-05
2.31867e-05
3.65765e-05
-1.85409e-05
3.71611e-05
3.00014e-05
4.34056e-05
-2.33929e-05
4.23528e-05
3.82489e-05
5.11399e-05
-2.78934e-05
4.56112e-05
4.79316e-05
5.98572e-05
-3.13293e-05
4.66007e-05
5.8937e-05
6.98344e-05
-3.29088e-05
4.54121e-05
7.1117e-05
8.17963e-05
-3.2135e-05
4.27815e-05
8.45528e-05
9.71069e-05
-2.93539e-05
4.0048e-05
0.000100006
0.000117473
-2.59888e-05
3.85354e-05
0.000119198
0.00014392
-2.37277e-05
3.85269e-05
0.000144193
0.000176153
-2.30409e-05
3.90568e-05
0.000175947
0.000213909
-2.30213e-05
3.91749e-05
0.000214186
0.000258647
-2.28735e-05
3.88565e-05
0.000259449
0.000312736
-2.25377e-05
3.83802e-05
0.000313802
0.000378297
-2.21034e-05
3.77973e-05
0.0003796
0.000457621
-2.15621e-05
3.70653e-05
0.000459227
0.00055358
-2.08905e-05
3.61612e-05
0.000555543
0.000669673
-2.00704e-05
3.50584e-05
0.00067206
0.000810127
-1.90823e-05
3.37227e-05
0.00081302
0.000980052
-1.79068e-05
3.21139e-05
0.000983551
0.00118564
-1.65256e-05
3.01852e-05
0.00118986
0.00143437
-1.49227e-05
2.78813e-05
0.00143944
0.0017353
-1.30867e-05
2.51357e-05
0.00174139
0.00209938
-1.10116e-05
2.18661e-05
0.00210668
0.00253987
-8.70099e-06
1.78034e-05
0.00254862
0.0030728
-6.16464e-06
1.23287e-05
0.00308326
0.00371754
-3.40063e-06
5.22555e-06
0.00373005
0.00356222
-9.37575e-07
-6.59035e-07
0.00357412
0.00356231
1.41324e-06
-6.17495e-06
0.00357417
0.00356232
3.72675e-06
-1.15924e-05
0.00357418
0.00356223
6.08293e-06
-1.74405e-05
0.00357413
0.00360478
8.6003e-06
-2.38534e-05
0.0036169
0.00299859
1.08594e-05
-2.84183e-05
0.00300877
0.00249433
1.28812e-05
-3.16805e-05
0.00250287
0.00207487
1.46766e-05
-3.40323e-05
0.00208204
0.00172596
1.62551e-05
-3.5748e-05
0.00173198
0.00143574
1.76284e-05
-3.70162e-05
0.00144077
0.00119433
1.88105e-05
-3.79659e-05
0.00119854
0.000993521
1.98169e-05
-3.86854e-05
0.00099703
0.000826488
2.06641e-05
-3.92351e-05
0.000829406
0.000687547
2.13686e-05
-3.96552e-05
0.000689967
0.000571972
2.19463e-05
-3.99688e-05
0.000573973
0.000475833
2.24121e-05
-4.0197e-05
0.000477483
0.000395859
2.27827e-05
-4.03541e-05
0.000397205
0.000329325
2.30781e-05
-4.04637e-05
0.000330425
0.000274023
2.32642e-05
-4.05399e-05
0.000274921
0.000228124
2.32539e-05
-4.04137e-05
0.000228678
0.000189634
2.33858e-05
-3.98351e-05
0.000189623
0.000156643
2.46089e-05
-3.91981e-05
0.000156479
0.0001286
2.73367e-05
-3.95545e-05
0.000129348
0.000106014
3.05745e-05
-4.14198e-05
0.000108196
8.8744e-05
3.27169e-05
-4.40935e-05
9.167e-05
7.55592e-05
3.27663e-05
-4.62612e-05
7.79247e-05
6.49807e-05
3.06847e-05
-4.68328e-05
6.57059e-05
5.59708e-05
2.704e-05
-4.53028e-05
5.45586e-05
4.80151e-05
2.25554e-05
-4.1696e-05
4.44974e-05
4.09256e-05
1.78429e-05
-3.63646e-05
3.56598e-05
3.46505e-05
1.33184e-05
-2.97966e-05
2.81294e-05
2.9166e-05
9.21411e-06
-2.24851e-05
2.18895e-05
2.44361e-05
5.62672e-06
-1.48593e-05
1.68418e-05
2.04035e-05
2.56742e-06
-7.2794e-06
1.28396e-05
1.69965e-05
9.7171e-06
7.1687e-07
9.32001e-06
3.65306e-07
3.54167e-07
2.93261e-07
7.30247e-08
2.57445e-07
3.78707e-08
2.34941e-07
2.35375e-08
2.19319e-07
1.71043e-08
2.07499e-07
1.3082e-08
1.98413e-07
1.03639e-08
1.91305e-07
8.58488e-09
1.85649e-07
6.84025e-09
1.81106e-07
6.11767e-09
1.7731e-07
4.79904e-09
1.74219e-07
4.63681e-09
1.71496e-07
3.44432e-09
1.6926e-07
3.58951e-09
1.67149e-07
2.44831e-09
1.65376e-07
2.73809e-09
1.63569e-07
1.63468e-09
1.61999e-07
1.95431e-09
1.60302e-07
8.98951e-10
1.58772e-07
1.18119e-09
1.57075e-07
1.95363e-10
1.55496e-07
4.08885e-10
1.53743e-07
-4.83287e-10
1.52074e-07
-3.44279e-10
1.50256e-07
-1.11292e-09
1.48514e-07
-1.01768e-09
1.46683e-07
-1.61266e-09
1.44948e-07
-1.49666e-09
1.43186e-07
-1.87235e-09
1.41525e-07
-1.70923e-09
1.39863e-07
-1.8984e-09
1.38263e-07
-1.77155e-09
1.36648e-07
-1.90105e-09
1.35042e-07
-1.93846e-09
1.33407e-07
-2.12642e-09
1.31753e-07
-2.36353e-09
1.30079e-07
-2.62785e-09
1.28386e-07
-2.99043e-09
1.26687e-07
-3.27626e-09
1.24977e-07
-3.66723e-09
1.23282e-07
-3.91125e-09
1.21586e-07
-4.25109e-09
1.19937e-07
-4.39896e-09
1.18304e-07
-4.6254e-09
1.16754e-07
-4.64881e-09
1.15258e-07
-4.78108e-09
1.13878e-07
-4.721e-09
1.1273e-07
-4.9596e-09
1.11862e-07
-4.97794e-09
1.1162e-07
-5.45647e-09
1.1168e-07
-5.29428e-09
1.12693e-07
-6.07416e-09
1.13829e-07
-5.40697e-09
1.14189e-07
-7.16065e-09
1.14717e-07
-4.97082e-09
1.1312e-07
-1.32994e-08
1.11405e-07
-5.2563e-09
1.0857e-07
-2.35577e-08
1.07971e-07
-9.76949e-09
1.02201e-07
-2.89236e-08
1.00965e-07
-1.04093e-08
9.51586e-08
-3.67723e-08
1.01805e-07
-1.50432e-08
1.13887e-07
-7.53373e-08
1.07594e-07
1.32259e-08
5.33313e-08
1.05357e-08
-4.07732e-08
1.3107e-07
-2.49083e-07
1.93331e-07
-2.27847e-07
4.66481e-08
6.26716e-07
-8.59196e-07
2.03998e-06
-1.39035e-06
2.34487e-06
-3.20967e-07
5.13682e-07
1.79323e-06
-1.08912e-06
1.5591e-06
-1.24668e-06
9.01024e-08
-6.26385e-07
-6.50557e-07
-1.92695e-07
-4.80854e-07
1.41236e-07
-4.24741e-07
3.09314e-07
-2.93379e-07
3.82748e-07
-2.9593e-07
3.86858e-07
-2.22582e-07
3.86953e-07
-3.00839e-07
8.14036e-07
-6.35623e-07
1.23077e-06
-6.23286e-07
1.27493e-06
-1.72822e-07
6.56466e-07
4.89268e-07
3.02433e-07
2.1188e-07
2.62895e-06
2.00734e-05
1.41906e-06
1.57192e-06
1.13795e-06
3.57154e-07
9.95893e-07
1.86127e-07
9.0911e-07
1.1356e-07
8.45743e-07
8.50009e-08
8.01052e-07
6.17241e-08
7.63043e-07
5.23089e-08
7.36262e-07
3.99592e-08
7.11277e-07
3.54541e-08
6.93997e-07
2.82664e-08
6.76126e-07
2.57167e-08
6.64142e-07
2.13673e-08
6.50484e-07
1.92609e-08
6.41479e-07
1.67051e-08
6.30304e-07
1.45654e-08
6.22741e-07
1.3171e-08
6.12884e-07
1.0834e-08
6.05751e-07
1.01249e-08
5.96439e-07
7.6026e-09
5.89122e-07
7.25269e-09
5.79869e-07
4.66068e-09
5.72029e-07
4.45712e-09
5.62561e-07
1.93345e-09
5.54102e-07
1.73422e-09
5.44414e-07
-5.88107e-10
5.35567e-07
-7.96076e-10
5.26001e-07
-2.71929e-09
5.17283e-07
-2.77933e-09
5.08313e-07
-4.08422e-09
5.00135e-07
-3.90594e-09
4.91926e-07
-4.62697e-09
4.84241e-07
-4.48478e-09
4.76503e-07
-5.01433e-09
4.68931e-07
-5.35859e-09
4.61222e-07
-6.088e-09
4.5343e-07
-7.05714e-09
4.45471e-07
-8.03041e-09
4.37325e-07
-9.38316e-09
4.29045e-07
-1.04109e-08
4.2059e-07
-1.18482e-08
4.12123e-07
-1.27516e-08
4.03605e-07
-1.40485e-08
3.95313e-07
-1.46875e-08
3.87149e-07
-1.56463e-08
3.79479e-07
-1.59383e-08
3.72116e-07
-1.65929e-08
3.65431e-07
-1.66477e-08
3.5956e-07
-1.76933e-08
3.54709e-07
-1.78803e-08
3.51532e-07
-1.94727e-08
3.49338e-07
-1.88097e-08
3.49709e-07
-2.18703e-08
3.49106e-07
-1.76836e-08
3.47795e-07
-2.79848e-08
3.45538e-07
-1.66747e-08
3.37224e-07
-5.28525e-08
3.33566e-07
-2.35082e-08
3.18946e-07
-9.08436e-08
3.18303e-07
-4.10986e-08
2.98219e-07
-1.14895e-07
2.85918e-07
-3.25099e-08
2.37732e-07
-1.19085e-07
2.29305e-07
-2.89833e-08
1.98476e-07
-2.26336e-07
2.76175e-07
-3.73752e-08
1.55072e-07
8.60715e-09
8.4066e-08
3.30198e-07
-5.8159e-07
8.17352e-07
-1.20862e-06
8.84467e-07
1.17432e-06
-3.25438e-06
6.03438e-06
-6.21265e-06
8.53884e-06
-2.8627e-06
4.39783e-06
5.7806e-06
-2.8996e-06
8.73261e-06
-4.5442e-06
1.59568e-06
-2.57913e-06
-2.68897e-06
-1.35424e-06
-1.833e-06
-2.62629e-07
-1.77282e-06
4.9585e-07
-1.37967e-06
7.17103e-07
-1.06297e-06
7.63326e-07
-7.84556e-07
7.64115e-07
-9.76225e-07
2.19235e-06
-2.47541e-06
3.86014e-06
-2.66255e-06
4.28447e-06
-8.30768e-07
3.28102e-06
1.20514e-06
3.46954e-06
-3.18803e-07
5.513e-06
3.22644e-05
3.14094e-06
3.95777e-06
2.51645e-06
9.8704e-07
2.20252e-06
5.11032e-07
2.00931e-06
3.12636e-07
1.86948e-06
2.32917e-07
1.76937e-06
1.68978e-07
1.6859e-06
1.4285e-07
1.62554e-06
1.08603e-07
1.57104e-06
9.64422e-08
1.53195e-06
7.61153e-08
1.49339e-06
6.97041e-08
1.46626e-06
5.70027e-08
1.43717e-06
5.21668e-08
1.41691e-06
4.42825e-08
1.39345e-06
3.96245e-08
1.37673e-06
3.49353e-08
1.35636e-06
2.9916e-08
1.341e-06
2.72136e-08
1.32203e-06
2.17716e-08
1.30669e-06
2.02099e-08
1.28808e-06
1.45684e-08
1.27203e-06
1.35742e-08
1.25319e-06
8.03637e-09
1.23617e-06
7.21442e-09
1.21706e-06
2.07533e-09
1.19947e-06
1.32423e-09
1.18069e-06
-2.98908e-09
1.16348e-06
-3.38316e-09
1.14593e-06
-6.38819e-09
1.12988e-06
-6.25438e-09
1.11389e-06
-8.00244e-09
1.09891e-06
-7.93659e-09
1.08393e-06
-9.26018e-09
1.0693e-06
-1.02351e-08
1.0545e-06
-1.1978e-08
1.03961e-06
-1.42909e-08
1.02447e-06
-1.6544e-08
1.00906e-06
-1.96679e-08
9.93472e-07
-2.20133e-08
9.77638e-07
-2.52948e-08
9.61847e-07
-2.73491e-08
9.4602e-07
-3.02992e-08
9.30663e-07
-3.17839e-08
9.15573e-07
-3.39769e-08
9.0144e-07
-3.47454e-08
8.87907e-07
-3.62954e-08
8.75663e-07
-3.65899e-08
8.65056e-07
-3.91827e-08
8.56461e-07
-3.98003e-08
8.5143e-07
-4.38288e-08
8.48354e-07
-4.24402e-08
8.50791e-07
-5.07026e-08
8.52278e-07
-4.10173e-08
8.51675e-07
-6.64224e-08
8.50225e-07
-3.93312e-08
8.36842e-07
-1.2293e-07
8.2899e-07
-5.33252e-08
8.04184e-07
-2.05605e-07
8.0138e-07
-9.24868e-08
7.61928e-07
-2.54058e-07
7.42435e-07
-6.95699e-08
6.70839e-07
-2.63002e-07
6.753e-07
-6.6507e-08
6.54575e-07
-4.84615e-07
7.44576e-07
-7.80883e-08
4.8125e-07
8.01702e-08
2.06886e-07
8.40482e-07
-1.08937e-06
2.04061e-06
-1.68765e-06
1.84967e-06
3.38544e-06
-8.34302e-06
1.16041e-05
-1.4397e-05
1.52148e-05
-6.51308e-06
7.38138e-06
1.34417e-05
-5.24413e-06
2.1209e-05
-6.88551e-06
3.10502e-06
-3.92567e-06
-5.74475e-06
-1.81311e-06
-4.12244e-06
2.33697e-07
-4.17579e-06
1.509e-06
-3.07269e-06
2.0417e-06
-2.2476e-06
2.12852e-06
-1.47401e-06
2.12917e-06
-1.73745e-06
4.55217e-06
-5.33162e-06
7.31983e-06
-5.78539e-06
8.07787e-06
-1.83633e-06
5.87349e-06
3.04762e-06
9.04275e-06
-3.79037e-07
9.71857e-06
4.57372e-05
5.87106e-06
7.82847e-06
4.70511e-06
2.16224e-06
4.11785e-06
1.11714e-06
3.75491e-06
6.85778e-07
3.49288e-06
5.08953e-07
3.30431e-06
3.70034e-07
3.14795e-06
3.1149e-07
3.03369e-06
2.37308e-07
2.93152e-06
2.09894e-07
2.85715e-06
1.65731e-07
2.7849e-06
1.51346e-07
2.73308e-06
1.23578e-07
2.67868e-06
1.13124e-07
2.63997e-06
9.56414e-08
2.5963e-06
8.59788e-08
2.56454e-06
7.53309e-08
2.5269e-06
6.52036e-08
2.49811e-06
5.88621e-08
2.46341e-06
4.80436e-08
2.43513e-06
4.42327e-08
2.40148e-06
3.30999e-08
2.37235e-06
3.06083e-08
2.33868e-06
1.97262e-08
2.30824e-06
1.77261e-08
2.2744e-06
7.66149e-09
2.24329e-06
5.91035e-09
2.21032e-06
-2.53353e-09
2.18014e-06
-3.5528e-09
2.14956e-06
-9.50106e-09
2.12166e-06
-9.53782e-09
2.09407e-06
-1.3127e-08
2.06835e-06
-1.33389e-08
2.04283e-06
-1.61349e-08
2.01808e-06
-1.83188e-08
1.9932e-06
-2.18697e-08
1.9683e-06
-2.65234e-08
1.94315e-06
-3.09647e-08
1.91768e-06
-3.70668e-08
1.89204e-06
-4.16018e-08
1.86611e-06
-4.79107e-08
1.84038e-06
-5.18205e-08
1.81469e-06
-5.74097e-08
1.78989e-06
-6.02025e-08
1.76561e-06
-6.42965e-08
1.74303e-06
-6.57544e-08
1.72151e-06
-6.86591e-08
1.70219e-06
-6.92485e-08
1.68566e-06
-7.42692e-08
1.67244e-06
-7.54235e-08
1.66535e-06
-8.34712e-08
1.66152e-06
-8.08185e-08
1.66685e-06
-9.78069e-08
1.67236e-06
-8.07941e-08
1.67353e-06
-1.30236e-07
1.67543e-06
-7.92683e-08
1.65747e-06
-2.3709e-07
1.64671e-06
-1.0151e-07
1.60934e-06
-3.84718e-07
1.60694e-06
-1.73651e-07
1.54042e-06
-4.61291e-07
1.51742e-06
-1.3141e-07
1.4275e-06
-4.91574e-07
1.45639e-06
-1.39963e-07
1.45474e-06
-8.64753e-07
1.54399e-06
-9.21502e-08
1.07347e-06
2.81471e-07
5.50718e-07
1.76217e-06
-1.50296e-06
3.9666e-06
-1.55749e-06
2.4018e-06
6.69463e-06
-1.66137e-05
1.79795e-05
-2.56536e-05
2.01521e-05
-8.73564e-06
5.67587e-06
2.78293e-05
-8.22713e-06
3.50071e-05
-8.84384e-06
3.58906e-06
-5.15951e-06
-9.56414e-06
-2.15169e-06
-7.38696e-06
9.96608e-07
-7.81861e-06
2.78758e-06
-5.37363e-06
3.68461e-06
-3.90618e-06
3.83667e-06
-2.32729e-06
3.75015e-06
-2.51014e-06
7.16365e-06
-9.23598e-06
1.11152e-05
-1.0105e-05
1.18586e-05
-2.90055e-06
8.05636e-06
6.53155e-06
1.75631e-05
-1.02818e-06
1.56594e-05
6.00864e-05
1.00806e-05
1.34441e-05
8.10487e-06
4.15308e-06
7.09492e-06
2.15792e-06
6.46795e-06
1.32971e-06
6.01537e-06
9.84751e-07
5.68869e-06
7.1757e-07
5.4183e-06
6.0232e-07
5.21936e-06
4.60379e-07
5.04199e-06
4.06024e-07
4.9117e-06
3.21427e-07
4.78594e-06
2.92694e-07
4.69464e-06
2.39379e-07
4.59975e-06
2.18813e-07
4.53128e-06
1.84992e-07
4.45514e-06
1.66436e-07
4.39908e-06
1.45535e-07
4.33374e-06
1.26507e-07
4.28332e-06
1.13779e-07
4.22359e-06
9.37689e-08
4.17473e-06
8.58982e-08
4.11741e-06
6.55221e-08
4.06784e-06
6.02458e-08
4.01115e-06
4.04822e-08
3.96009e-06
3.62814e-08
3.9038e-06
1.81418e-08
3.85224e-06
1.45713e-08
3.79795e-06
-5.51415e-10
3.74846e-06
-2.72308e-09
3.69862e-06
-1.34177e-08
3.65341e-06
-1.39144e-08
3.609e-06
-2.05646e-08
3.56797e-06
-2.14814e-08
3.52761e-06
-2.68102e-08
3.48884e-06
-3.11496e-08
3.45023e-06
-3.77035e-08
3.41192e-06
-4.61453e-08
3.37352e-06
-5.40479e-08
3.33488e-06
-6.47595e-08
3.29626e-06
-7.26262e-08
3.25742e-06
-8.3467e-08
3.21912e-06
-9.00837e-08
3.18108e-06
-9.94745e-08
3.14464e-06
-1.04061e-07
3.10916e-06
-1.10759e-07
3.07645e-06
-1.13046e-07
3.04555e-06
-1.17751e-07
3.0181e-06
-1.18558e-07
2.99494e-06
-1.26925e-07
2.97672e-06
-1.28476e-07
2.96796e-06
-1.42396e-07
2.96413e-06
-1.37679e-07
2.97341e-06
-1.67085e-07
2.98626e-06
-1.42412e-07
2.99092e-06
-2.25389e-07
3.00068e-06
-1.43139e-07
2.98053e-06
-4.04856e-07
2.96988e-06
-1.73747e-07
2.9187e-06
-6.35145e-07
2.92212e-06
-2.92729e-07
2.81993e-06
-7.35496e-07
2.80134e-06
-2.27123e-07
2.70444e-06
-8.13578e-07
2.76855e-06
-2.5851e-07
2.8005e-06
-1.3648e-06
2.86645e-06
-5.94651e-08
2.12353e-06
6.89838e-07
1.31872e-06
3.13646e-06
-1.44559e-06
6.55883e-06
9.94547e-08
1.3491e-06
1.21141e-05
-2.86449e-05
2.54776e-05
-3.89956e-05
2.34136e-05
-6.72634e-06
6.06855e-07
5.05707e-05
-1.15315e-05
4.70801e-05
-1.02473e-05
2.14968e-06
-6.16676e-06
-1.38448e-05
-2.28511e-06
-1.16582e-05
2.06777e-06
-1.28492e-05
4.32113e-06
-8.21442e-06
5.59167e-06
-6.05705e-06
5.82125e-06
-3.36113e-06
5.73777e-06
-3.33612e-06
1.02634e-05
-1.42654e-05
1.5156e-05
-1.53438e-05
1.41041e-05
-2.23839e-06
5.3228e-06
1.50946e-05
2.48821e-05
-2.2725e-06
2.37793e-05
7.45669e-05
1.63832e-05
2.08949e-05
1.32812e-05
7.27799e-06
1.16401e-05
3.84622e-06
1.06124e-05
2.38378e-06
9.86971e-06
1.76358e-06
9.33136e-06
1.28865e-06
8.88648e-06
1.07922e-06
8.55653e-06
8.28225e-07
8.26319e-06
7.28723e-07
8.04551e-06
5.78925e-07
7.83669e-06
5.25782e-07
7.68314e-06
4.31163e-07
7.52514e-06
3.93499e-07
7.40942e-06
3.33047e-07
7.28262e-06
2.99739e-07
7.18797e-06
2.61836e-07
7.07959e-06
2.284e-07
6.9952e-06
2.04796e-07
6.89698e-06
1.70239e-07
6.81633e-06
1.55217e-07
6.72317e-06
1.2048e-07
6.64269e-06
1.10151e-07
6.55181e-06
7.67972e-08
6.47024e-06
6.85997e-08
6.3812e-06
3.82897e-08
6.30002e-06
3.14902e-08
6.21518e-06
6.44195e-09
6.13821e-06
2.15632e-09
6.06121e-06
-1.55974e-08
5.99181e-06
-1.72256e-08
5.92421e-06
-2.86046e-08
5.86234e-06
-3.10944e-08
5.80216e-06
-4.04714e-08
5.74502e-06
-4.83987e-08
5.68879e-06
-5.9563e-08
5.63358e-06
-7.36513e-08
5.5788e-06
-8.65745e-08
5.52415e-06
-1.03787e-07
5.47001e-06
-1.16266e-07
5.41592e-06
-1.33232e-07
5.36304e-06
-1.43413e-07
5.3108e-06
-1.57694e-07
5.26119e-06
-1.64474e-07
5.21316e-06
-1.74303e-07
5.1693e-06
-1.77439e-07
5.12821e-06
-1.84239e-07
5.09209e-06
-1.85039e-07
5.06203e-06
-1.9757e-07
5.03856e-06
-1.9906e-07
5.02853e-06
-2.20983e-07
5.02524e-06
-2.13275e-07
5.03846e-06
-2.58162e-07
5.06207e-06
-2.28733e-07
5.07107e-06
-3.52104e-07
5.09388e-06
-2.35387e-07
5.07487e-06
-6.26567e-07
5.06818e-06
-2.72183e-07
5.0027e-06
-9.48704e-07
5.01906e-06
-4.53513e-07
4.87194e-06
-1.05529e-06
4.86568e-06
-3.60232e-07
4.76794e-06
-1.21462e-06
4.86507e-06
-4.17231e-07
4.93208e-06
-1.9612e-06
4.9463e-06
4.16174e-08
3.90195e-06
1.36116e-06
2.52509e-06
5.16207e-06
-4.00448e-07
9.32775e-06
4.50811e-06
-3.13908e-06
2.04623e-05
-4.46114e-05
3.36455e-05
-5.21615e-05
2.3448e-05
3.42385e-06
-4.82945e-06
7.87854e-05
-1.40483e-05
5.62301e-05
-1.13288e-05
-7.6604e-07
-6.73314e-06
-1.86639e-05
-2.02341e-06
-1.68034e-05
3.56659e-06
-1.91253e-05
6.2191e-06
-1.15316e-05
7.81219e-06
-8.67313e-06
8.18352e-06
-4.64548e-06
8.3738e-06
-4.50307e-06
1.38315e-05
-2.02134e-05
1.85793e-05
-2.04982e-05
1.3567e-05
2.27948e-06
1.37114e-06
2.70828e-05
3.08208e-05
-4.82255e-06
3.44653e-05
8.80483e-05
2.54969e-05
2.99385e-05
2.09884e-05
1.18185e-05
1.84559e-05
6.44507e-06
1.68406e-05
4.03698e-06
1.56691e-05
2.98687e-06
1.48131e-05
2.19205e-06
1.41077e-05
1.83093e-06
1.35783e-05
1.41263e-06
1.31102e-05
1.23914e-06
1.27577e-05
9.89025e-07
1.24232e-05
8.9516e-07
1.21727e-05
7.36717e-07
1.1919e-05
6.70962e-07
1.17293e-05
5.68893e-07
1.15258e-05
5.1221e-07
1.1371e-05
4.47167e-07
1.1198e-05
3.91835e-07
1.10614e-05
3.50337e-07
1.09061e-05
2.94449e-07
1.07777e-05
2.67252e-07
1.06324e-05
2.12012e-07
1.05067e-05
1.92847e-07
1.03671e-05
1.4047e-07
1.02421e-05
1.25288e-07
1.01073e-05
7.82222e-08
9.98492e-06
6.58583e-08
9.85813e-06
2.72939e-08
9.74354e-06
1.91659e-08
9.62974e-06
-8.31342e-09
9.52767e-06
-1.2501e-08
9.42913e-06
-3.07606e-08
9.33973e-06
-3.64583e-08
9.2538e-06
-5.19397e-08
9.17322e-06
-6.55108e-08
9.09493e-06
-8.33138e-08
9.019e-06
-1.05242e-07
8.94452e-06
-1.24941e-07
8.87091e-06
-1.50591e-07
8.79868e-06
-1.68979e-07
8.72702e-06
-1.93498e-07
8.6575e-06
-2.08008e-07
8.58913e-06
-2.27961e-07
8.5246e-06
-2.37219e-07
8.4623e-06
-2.50368e-07
8.40568e-06
-2.54293e-07
8.3528e-06
-2.63252e-07
8.30643e-06
-2.63746e-07
8.26783e-06
-2.81066e-07
8.23706e-06
-2.81658e-07
8.22381e-06
-3.13871e-07
8.21878e-06
-3.02151e-07
8.232e-06
-3.63943e-07
8.2658e-06
-3.3661e-07
8.27564e-06
-5.02127e-07
8.31302e-06
-3.5463e-07
8.2953e-06
-8.92127e-07
8.29432e-06
-3.94e-07
8.21215e-06
-1.30595e-06
8.2462e-06
-6.54194e-07
8.04435e-06
-1.38877e-06
8.05257e-06
-5.26275e-07
7.94301e-06
-1.65959e-06
8.05394e-06
-5.94801e-07
8.12087e-06
-2.59914e-06
8.03651e-06
2.51163e-07
6.74242e-06
2.26794e-06
4.46406e-06
8.05773e-06
2.6724e-06
1.10027e-05
1.12493e-05
-1.13844e-05
2.89526e-05
-6.23265e-05
3.92213e-05
-6.24116e-05
1.94509e-05
2.31501e-05
-1.00629e-05
0.00010823
-1.51622e-05
6.12442e-05
-1.10992e-05
-5.06305e-06
-5.0357e-06
-2.49352e-05
5.43236e-07
-2.27352e-05
6.2043e-06
-2.53143e-05
8.68612e-06
-1.47439e-05
1.04192e-05
-1.15787e-05
1.11485e-05
-6.41325e-06
1.10215e-05
-5.53523e-06
1.61299e-05
-2.59173e-05
1.93417e-05
-2.46835e-05
9.82876e-06
1.11794e-05
-3.43709e-06
4.0136e-05
3.57934e-05
-8.67467e-06
4.79007e-05
9.91043e-05
3.81087e-05
3.98272e-05
3.21286e-05
1.784e-05
2.84567e-05
1.02028e-05
2.60294e-05
6.5141e-06
2.42522e-05
4.83207e-06
2.29352e-05
3.57195e-06
2.1853e-05
2.97423e-06
2.10268e-05
2.31176e-06
2.03028e-05
2.01919e-06
1.9746e-05
1.62201e-06
1.92261e-05
1.46096e-06
1.88268e-05
1.20847e-06
1.84315e-05
1.0972e-06
1.81277e-05
9.33034e-07
1.7811e-05
8.40288e-07
1.75637e-05
7.33819e-07
1.7296e-05
6.46647e-07
1.70804e-05
5.77001e-07
1.68427e-05
4.9165e-07
1.66437e-05
4.44668e-07
1.64243e-05
3.62149e-07
1.62336e-05
3.28271e-07
1.60261e-05
2.51212e-07
1.58402e-05
2.24373e-07
1.56429e-05
1.5593e-07
1.5464e-05
1.34307e-07
1.52805e-05
7.85908e-08
1.51148e-05
6.36922e-08
1.49514e-05
2.35398e-08
1.48051e-05
1.41684e-08
1.46649e-05
-1.37136e-08
1.45384e-05
-2.53875e-08
1.44181e-05
-4.97277e-08
1.43063e-05
-7.18135e-08
1.41991e-05
-9.88001e-08
1.40962e-05
-1.31141e-07
1.39963e-05
-1.59594e-07
1.38985e-05
-1.95598e-07
1.38032e-05
-2.21206e-07
1.37092e-05
-2.54446e-07
1.36184e-05
-2.73972e-07
1.35291e-05
-2.99995e-07
1.34448e-05
-3.11946e-07
1.33632e-05
-3.28221e-07
1.32886e-05
-3.3289e-07
1.32184e-05
-3.43804e-07
1.3156e-05
-3.43746e-07
1.31028e-05
-3.66255e-07
1.30579e-05
-3.6472e-07
1.3034e-05
-4.09316e-07
1.30189e-05
-3.92177e-07
1.30217e-05
-4.70285e-07
1.30566e-05
-4.54013e-07
1.30557e-05
-6.58326e-07
1.31003e-05
-4.90497e-07
1.30749e-05
-1.18194e-06
1.30745e-05
-5.29694e-07
1.29683e-05
-1.68381e-06
1.30158e-05
-8.84799e-07
1.27488e-05
-1.70658e-06
1.27665e-05
-7.15167e-07
1.26129e-05
-2.09943e-06
1.27146e-05
-7.67255e-07
1.27024e-05
-3.18823e-06
1.24359e-05
6.47886e-07
1.09768e-05
3.33568e-06
8.20102e-06
1.13708e-05
8.33568e-06
1.07723e-05
1.98196e-05
-2.26189e-05
3.71405e-05
-7.96614e-05
4.17488e-05
-6.6989e-05
1.2779e-05
5.20692e-05
-1.36174e-05
0.000134542
-1.44306e-05
6.19413e-05
-9.61212e-06
-1.0154e-05
-2.03575e-06
-3.27194e-05
4.42959e-06
-2.9488e-05
9.63798e-06
-3.09882e-05
1.18062e-05
-1.76438e-05
1.35993e-05
-1.46021e-05
1.46557e-05
-8.62051e-06
1.32953e-05
-5.59963e-06
1.58122e-05
-2.92148e-05
1.58329e-05
-2.66223e-05
2.56634e-06
2.38588e-05
-9.93409e-06
5.24246e-05
4.13163e-05
-1.5705e-05
6.38923e-05
0.000106354
5.45993e-05
4.92395e-05
4.75579e-05
2.49315e-05
4.26831e-05
1.51813e-05
3.92575e-05
1.00005e-05
3.66914e-05
7.48062e-06
3.47454e-05
5.59473e-06
3.31457e-05
4.64852e-06
3.18966e-05
3.64991e-06
3.08111e-05
3.17296e-06
2.99549e-05
2.57112e-06
2.91691e-05
2.30241e-06
2.85475e-05
1.91798e-06
2.79475e-05
1.73454e-06
2.74712e-05
1.48202e-06
2.69902e-05
1.33468e-06
2.66031e-05
1.16789e-06
2.61984e-05
1.0355e-06
2.58645e-05
9.23647e-07
2.55084e-05
7.98921e-07
2.52055e-05
7.21353e-07
2.48811e-05
6.04009e-07
2.45966e-05
5.46866e-07
2.42941e-05
4.39214e-07
2.40224e-05
3.9382e-07
2.37387e-05
2.9931e-07
2.3481e-05
2.6288e-07
2.32196e-05
1.86223e-07
2.2983e-05
1.59983e-07
2.2751e-05
1.03766e-07
2.25426e-05
8.50255e-08
2.23437e-05
4.40054e-08
2.21643e-05
2.21826e-08
2.19946e-05
-1.46475e-08
2.18379e-05
-4.91336e-08
2.16886e-05
-8.85019e-08
2.15465e-05
-1.34335e-07
2.14094e-05
-1.73881e-07
2.12759e-05
-2.22207e-07
2.11463e-05
-2.56414e-07
2.10185e-05
-2.99315e-07
2.08949e-05
-3.24484e-07
2.07729e-05
-3.56604e-07
2.06569e-05
-3.71414e-07
2.05433e-05
-3.90219e-07
2.0438e-05
-3.9568e-07
2.03372e-05
-4.08007e-07
2.02454e-05
-4.07365e-07
2.01637e-05
-4.3524e-07
2.00901e-05
-4.30211e-07
2.00405e-05
-4.88935e-07
1.99984e-05
-4.63778e-07
1.99734e-05
-5.57317e-07
1.99899e-05
-5.59544e-07
1.9957e-05
-7.95705e-07
1.99915e-05
-6.23518e-07
1.99366e-05
-1.46727e-06
1.99206e-05
-6.60352e-07
1.97779e-05
-2.06019e-06
1.98198e-05
-1.12315e-06
1.94755e-05
-1.98573e-06
1.94942e-05
-9.15867e-07
1.92503e-05
-2.47929e-06
1.93343e-05
-9.26009e-07
1.91299e-05
-3.60869e-06
1.85989e-05
1.31122e-06
1.68351e-05
4.7101e-06
1.47352e-05
1.39433e-05
1.66775e-05
8.74481e-06
2.92234e-05
-3.49426e-05
4.45045e-05
-9.49634e-05
4.14321e-05
-6.38654e-05
5.50399e-06
8.79387e-05
-1.45019e-05
0.000154437
-1.18545e-05
5.91209e-05
-5.7517e-06
-1.65945e-05
3.08036e-06
-4.17501e-05
1.00221e-05
-3.6683e-05
1.41652e-05
-3.56017e-05
1.58841e-05
-2.00942e-05
1.71328e-05
-1.71024e-05
1.85523e-05
-1.13643e-05
1.66837e-05
-5.58306e-06
1.66171e-05
-3.01186e-05
1.14071e-05
-2.33123e-05
-4.8735e-06
3.95893e-05
-1.55456e-05
6.28581e-05
4.48507e-05
-1.93761e-05
8.18205e-05
0.000109118
7.46789e-05
5.65263e-05
6.76581e-05
3.20115e-05
6.19882e-05
2.09716e-05
5.7612e-05
1.44469e-05
5.4179e-05
1.10085e-05
5.14773e-05
8.3848e-06
4.92322e-05
6.97923e-06
4.74294e-05
5.55491e-06
4.58658e-05
4.81464e-06
4.45976e-05
3.9457e-06
4.34479e-05
3.51551e-06
4.25105e-05
2.95568e-06
4.1624e-05
2.6633e-06
4.08975e-05
2.29108e-06
4.01834e-05
2.06366e-06
3.95912e-05
1.81304e-06
3.89908e-05
1.61764e-06
3.84831e-05
1.44539e-06
3.79578e-05
1.26874e-06
3.75032e-05
1.14615e-06
3.70292e-05
9.84933e-07
3.6609e-05
8.92823e-07
3.61722e-05
7.47771e-07
3.57773e-05
6.74238e-07
3.5372e-05
5.48305e-07
3.5002e-05
4.89231e-07
3.46307e-05
3.87168e-07
3.42924e-05
3.43028e-07
3.39623e-05
2.66524e-07
3.36634e-05
2.32474e-07
3.33787e-05
1.7382e-07
3.31201e-05
1.36192e-07
3.2876e-05
8.22633e-08
3.265e-05
3.03952e-08
3.24353e-05
-2.5301e-08
3.22311e-05
-8.82724e-08
3.20345e-05
-1.41659e-07
3.18431e-05
-2.04475e-07
3.1657e-05
-2.48769e-07
3.14733e-05
-3.02138e-07
3.12946e-05
-3.33535e-07
3.11172e-05
-3.71506e-07
3.09466e-05
-3.89379e-07
3.07778e-05
-4.0979e-07
3.06184e-05
-4.16446e-07
3.04632e-05
-4.29359e-07
3.03186e-05
-4.28784e-07
3.01846e-05
-4.62166e-07
3.00592e-05
-4.53019e-07
2.99609e-05
-5.28147e-07
2.98663e-05
-4.90056e-07
2.97919e-05
-6.01952e-07
2.97643e-05
-6.26549e-07
2.96725e-05
-8.8516e-07
2.96758e-05
-7.31751e-07
2.95614e-05
-1.71421e-06
2.95054e-05
-7.60265e-07
2.9315e-05
-2.41841e-06
2.93202e-05
-1.33659e-06
2.8887e-05
-2.20796e-06
2.89005e-05
-1.12112e-06
2.85349e-05
-2.7617e-06
2.8603e-05
-1.07341e-06
2.80921e-05
-3.73872e-06
2.71981e-05
2.3359e-06
2.49907e-05
6.546e-06
2.42673e-05
1.50974e-05
2.81351e-05
4.79955e-06
4.01783e-05
-4.6773e-05
5.11954e-05
-0.000106007
4.11551e-05
-5.37655e-05
1.64557e-07
0.00012886
-1.32726e-05
0.000167709
-8.7447e-06
5.42907e-05
1.84229e-06
-2.7552e-05
1.15473e-05
-5.16357e-05
1.86082e-05
-4.39847e-05
2.09428e-05
-3.84417e-05
2.13538e-05
-2.13096e-05
2.16085e-05
-1.8795e-05
2.1931e-05
-1.34771e-05
1.92714e-05
-5.56623e-06
1.50907e-05
-2.7383e-05
3.06695e-06
-1.28755e-05
-1.12902e-05
5.33663e-05
-1.54267e-05
6.66364e-05
4.34826e-05
-1.45446e-05
0.00010101
0.000108154
9.72625e-05
6.04513e-05
9.18097e-05
3.75343e-05
8.64242e-05
2.64963e-05
8.16718e-05
1.9279e-05
7.76333e-05
1.51537e-05
7.42591e-05
1.18577e-05
7.13687e-05
9.96469e-06
6.896e-05
8.07686e-06
6.68481e-05
7.01274e-06
6.50811e-05
5.82987e-06
6.34818e-05
5.18459e-06
6.21381e-05
4.40943e-06
6.08805e-05
3.96708e-06
5.98188e-05
3.44301e-06
5.87931e-05
3.10552e-06
5.79186e-05
2.74511e-06
5.70509e-05
2.46521e-06
5.62999e-05
2.21134e-06
5.55407e-05
1.96751e-06
5.48717e-05
1.78237e-06
5.41892e-05
1.56627e-06
5.35767e-05
1.42459e-06
5.29517e-05
1.23381e-06
5.23822e-05
1.11993e-06
5.18057e-05
9.55888e-07
5.1276e-05
8.63988e-07
5.0749e-05
7.30739e-07
5.02651e-05
6.60036e-07
4.97942e-05
5.57697e-07
4.93638e-05
5.00553e-07
4.89532e-05
4.18486e-07
4.85768e-05
3.57865e-07
4.82207e-05
2.81078e-07
4.7889e-05
2.05665e-07
4.75732e-05
1.28747e-07
4.72722e-05
4.41562e-08
4.69819e-05
-2.64371e-08
4.6699e-05
-1.06364e-07
4.64232e-05
-1.62653e-07
4.61506e-05
-2.27632e-07
4.58841e-05
-2.66212e-07
4.56189e-05
-3.10045e-07
4.53616e-05
-3.31767e-07
4.51056e-05
-3.53096e-07
4.48614e-05
-3.62557e-07
4.46211e-05
-3.75521e-07
4.43948e-05
-3.77617e-07
4.41803e-05
-4.17226e-07
4.39771e-05
-4.05835e-07
4.38063e-05
-5.01988e-07
4.36326e-05
-4.43263e-07
4.34904e-05
-5.84708e-07
4.33969e-05
-6.32415e-07
4.32245e-05
-9.03196e-07
4.31862e-05
-8.03863e-07
4.2988e-05
-1.89429e-06
4.2876e-05
-8.12058e-07
4.26424e-05
-2.7561e-06
4.25824e-05
-1.49465e-06
4.20618e-05
-2.3659e-06
4.20784e-05
-1.33723e-06
4.16034e-05
-2.94992e-06
4.16531e-05
-1.20736e-06
4.0717e-05
-3.44427e-06
3.93144e-05
3.86006e-06
3.68679e-05
8.6522e-06
3.78015e-05
1.45564e-05
4.32578e-05
-7.2281e-07
5.43964e-05
-5.77021e-05
6.14262e-05
-0.000113069
4.01229e-05
-3.24139e-05
-7.15238e-07
0.000169612
-7.7841e-06
0.000174532
-5.87788e-06
5.19095e-05
1.33889e-05
-4.71326e-05
2.44144e-05
-6.28227e-05
3.15491e-05
-5.13569e-05
3.26131e-05
-4.00473e-05
3.07949e-05
-2.03911e-05
2.77906e-05
-1.75923e-05
2.54532e-05
-1.36653e-05
2.2401e-05
-6.09013e-06
1.37919e-05
-2.14264e-05
-2.6759e-06
1.80819e-06
-1.20945e-05
6.19974e-05
-7.29258e-06
6.12379e-05
4.13536e-05
-5.83313e-06
0.000121698
0.000105705
0.000121204
6.11646e-05
0.00011845
4.03731e-05
0.000114738
3.03722e-05
0.000110763
2.33455e-05
0.000106941
1.90972e-05
0.000103433
1.5476e-05
0.000100239
1.32637e-05
9.74282e-05
1.10125e-05
9.48846e-05
9.65072e-06
9.26724e-05
8.16975e-06
9.06398e-05
7.29294e-06
8.88768e-05
6.29146e-06
8.72198e-05
5.67398e-06
8.57805e-05
4.97945e-06
8.43948e-05
4.50855e-06
8.31832e-05
4.01851e-06
8.19915e-05
3.63522e-06
8.0938e-05
3.28088e-06
7.98855e-05
2.95533e-06
7.89423e-05
2.69055e-06
7.79922e-05
2.40839e-06
7.71288e-05
2.20199e-06
7.62581e-05
1.95651e-06
7.54573e-05
1.78902e-06
7.46547e-05
1.57914e-06
7.39114e-05
1.4428e-06
7.31764e-05
1.27123e-06
7.2496e-05
1.16362e-06
7.18353e-05
1.0283e-06
7.12257e-05
9.38497e-07
7.06433e-05
8.25564e-07
7.01048e-05
7.33033e-07
6.95939e-05
6.25999e-07
6.91154e-05
5.19274e-07
6.86591e-05
4.14701e-07
6.82232e-05
3.02521e-07
6.78027e-05
2.09911e-07
6.73933e-05
1.0883e-07
6.69942e-05
3.73032e-08
6.66006e-05
-4.18086e-08
6.62154e-05
-8.98714e-08
6.58331e-05
-1.4111e-07
6.54616e-05
-1.69242e-07
6.50927e-05
-1.92451e-07
6.47404e-05
-2.09014e-07
6.43937e-05
-2.2314e-07
6.40681e-05
-2.34533e-07
6.37572e-05
-2.82617e-07
6.34654e-05
-2.76135e-07
6.32139e-05
-4.00447e-07
6.29522e-05
-3.12979e-07
6.27447e-05
-5.06485e-07
6.25831e-05
-5.73415e-07
6.23346e-05
-8.51314e-07
6.22708e-05
-8.54177e-07
6.19882e-05
-2.00019e-06
6.18403e-05
-8.33341e-07
6.15982e-05
-3.09639e-06
6.14675e-05
-1.58841e-06
6.09022e-05
-2.48684e-06
6.09623e-05
-1.60176e-06
6.04458e-05
-3.09678e-06
6.04276e-05
-1.27887e-06
5.89719e-05
-2.60904e-06
5.69348e-05
6.00094e-06
5.489e-05
1.03885e-05
5.76116e-05
1.21875e-05
6.42273e-05
-7.39073e-06
7.30457e-05
-6.63098e-05
7.29073e-05
-0.000112968
4.03473e-05
1.89485e-07
4.93014e-06
0.000204922
-3.14752e-06
0.000182318
-3.4029e-06
5.1715e-05
2.96469e-05
-8.04219e-05
4.33117e-05
-7.66352e-05
5.07462e-05
-5.90272e-05
5.1296e-05
-4.1145e-05
4.79609e-05
-1.79627e-05
4.04261e-05
-1.18593e-05
3.08839e-05
-6.38231e-06
2.3388e-05
-1.87911e-06
1.63576e-05
-1.7794e-05
2.76007e-06
1.35627e-05
-2.94039e-06
6.6697e-05
-2.22754e-06
5.97513e-05
3.89186e-05
-4.797e-07
0.000145885
0.000104078
0.000146958
6.03619e-05
0.000146589
4.08455e-05
0.000145176
3.19831e-05
0.000143005
2.56256e-05
0.000140474
2.17689e-05
0.000137792
1.82851e-05
0.000135085
1.60899e-05
0.000132496
1.37418e-05