/*--------------------------------*- C++ -*----------------------------------*\
| =========                 |                                                 |
| \\      /  F ield         | OpenFOAM: The Open Source CFD Toolbox           |
|  \\    /   O peration     | Version:  2306                                  |
|   \\  /    A nd           | Website:  www.openfoam.com                      |
|    \\/     M anipulation  |                                                 |
\*---------------------------------------------------------------------------*/
FoamFile
{
    version     2.0;
    format      ascii;
    arch        "LSB;label=32;scalar=64";
    class       volSymmTensorField;
    location    "800";
    object      turbulenceProperties:devReff;
}
// * * * * * * * * * * * * * * * * * * * * * * * * * * * * * * * * * * * * * //

dimensions      [0 2 -2 0 0 0 0];

internalField   nonuniform List<symmTensor> 
20540
(
(-0.001254 -0.0201557 -0 0.00125237 -0 1.62982e-06)
(0.0118182 0.0312228 -0 -0.0117924 -0 -2.5862e-05)
(-0.00124361 -0.0630293 -0 0.00124321 -0 4.05943e-07)
(0.0102022 0.102997 -0 -0.0102187 -0 1.65237e-05)
(-0.00121156 -0.112035 -0 0.00121197 -0 -4.10736e-07)
(0.00845067 0.186236 -0 -0.00846087 -0 1.01968e-05)
(-0.00114825 -0.166714 -0 0.00114861 -0 -3.58679e-07)
(0.0066494 0.271173 -0 -0.00665245 -0 3.04583e-06)
(-0.00104468 -0.222982 -0 0.00104553 -0 -8.56072e-07)
(0.00486117 0.350038 -0 -0.00486364 -0 2.47754e-06)
(-0.000891387 -0.273871 -0 0.00089276 -0 -1.37297e-06)
(0.00315569 0.410859 -0 -0.00315853 -0 2.84037e-06)
(-0.000684422 -0.309259 -0 0.000685572 -0 -1.14968e-06)
(0.00162857 0.43919 -0 -0.0016311 -0 2.52827e-06)
(-0.000432109 -0.317824 -0 0.000431642 -0 4.67005e-07)
(0.000396071 0.420739 -0 -0.00039884 -0 2.76926e-06)
(-0.00016368 -0.291591 -0 0.000160582 -0 3.09743e-06)
(-0.000424425 0.347543 -0 0.000418764 -0 5.66123e-06)
(6.67265e-05 -0.231769 -0 -7.15495e-05 -0 4.82301e-06)
(-0.000758936 0.22817 -0 0.000747473 -0 1.14633e-05)
(0.000195238 -0.151944 -0 -0.000199165 -0 3.92669e-06)
(-0.00064897 0.0958053 -0 0.000633731 -0 1.52383e-05)
(0.000191806 -0.0747762 -0 -0.0001933 -0 1.49444e-06)
(-0.00030313 -0.00151542 -0 0.000292878 -0 1.02523e-05)
(0.00010242 -0.0217537 -0 -0.000102943 -0 5.22323e-07)
(-1.7321e-05 -0.0353503 -0 1.68592e-05 -0 4.61817e-07)
(2.08846e-05 6.03126e-05 -0 -2.25667e-05 -0 1.68209e-06)
(5.54925e-05 -0.0233267 -0 -5.36563e-05 -0 -1.83622e-06)
(-5.56276e-06 0.00211 -0 2.71092e-06 -0 2.85184e-06)
(6.00105e-06 -0.00529373 -0 -9.00599e-06 -0 3.00494e-06)
(-2.49114e-06 8.13945e-05 -0 -8.05751e-07 -0 3.29689e-06)
(-3.16465e-05 0.000715014 -0 2.70628e-05 -0 4.58372e-06)
(6.77675e-07 -0.000296689 -0 -4.24407e-06 -0 3.5664e-06)
(-3.84969e-05 0.00043456 -0 3.59843e-05 -0 2.51262e-06)
(8.65257e-07 -7.38695e-05 -0 -4.59928e-06 -0 3.73402e-06)
(-3.88987e-05 -4.01894e-06 -0 3.78288e-05 -0 1.06994e-06)
(7.98199e-07 -1.74524e-05 -0 -4.58868e-06 -0 3.79048e-06)
(-3.94822e-05 -2.03814e-05 -0 3.8693e-05 -0 7.89225e-07)
(8.67621e-07 -1.99794e-05 -0 -4.69432e-06 -0 3.8267e-06)
(-3.99204e-05 -9.91372e-06 -0 3.91176e-05 -0 8.02846e-07)
(9.02708e-07 -1.6051e-05 -0 -4.78427e-06 -0 3.88156e-06)
(-4.02306e-05 -1.68532e-05 -0 3.9417e-05 -0 8.13632e-07)
(8.52081e-07 -1.17754e-05 -0 -4.76277e-06 -0 3.91069e-06)
(-4.04341e-05 -2.16737e-05 -0 3.95662e-05 -0 8.67915e-07)
(7.19377e-07 -8.88826e-06 -0 -4.62795e-06 -0 3.90857e-06)
(-4.05045e-05 -2.39239e-05 -0 3.95139e-05 -0 9.90684e-07)
(5.07774e-07 -6.87514e-06 -0 -4.38215e-06 -0 3.87437e-06)
(-4.04555e-05 -2.46091e-05 -0 3.92916e-05 -0 1.1639e-06)
(2.32919e-07 -5.41908e-06 -0 -4.05365e-06 -0 3.82073e-06)
(-4.034e-05 -2.4209e-05 -0 3.90047e-05 -0 1.33525e-06)
(-8.92993e-08 -4.31496e-06 -0 -3.671e-06 -0 3.7603e-06)
(-4.01761e-05 -2.29944e-05 -0 3.86853e-05 -0 1.49079e-06)
(-5.46667e-07 -3.42179e-06 -0 -3.05372e-06 -0 3.60039e-06)
(-3.99977e-05 -2.10972e-05 -0 3.83928e-05 -0 1.60492e-06)
(-1.05557e-06 -2.62861e-06 -0 -2.36037e-06 -0 3.41594e-06)
(-4.0323e-05 -1.85613e-05 -0 3.91545e-05 -0 1.16848e-06)
(-1.14038e-06 -1.73217e-06 -0 -2.5263e-06 -0 3.66668e-06)
(-4.15269e-05 -1.54498e-05 -0 4.17136e-05 -0 -1.86763e-07)
(-1.31689e-06 -5.89133e-07 -0 -2.49346e-06 -0 3.81035e-06)
(-4.19142e-05 -1.16819e-05 -0 4.26817e-05 -0 -7.67452e-07)
(-1.9718e-06 2.65624e-07 -0 -1.40623e-06 -0 3.37803e-06)
(-4.06169e-05 -7.46942e-06 -0 4.02112e-05 -0 4.05614e-07)
(-2.27291e-06 1.04047e-06 -0 -9.07049e-07 -0 3.17996e-06)
(-3.9516e-05 -3.50951e-06 -0 3.80313e-05 -0 1.48466e-06)
(-2.30557e-06 1.90749e-06 -0 -8.5232e-07 -0 3.15789e-06)
(-3.93892e-05 4.21424e-07 -0 3.78492e-05 -0 1.54002e-06)
(-1.93737e-06 2.6523e-06 -0 -1.48745e-06 -0 3.42482e-06)
(-4.02677e-05 4.51704e-06 -0 3.95988e-05 -0 6.68856e-07)
(-1.38689e-06 3.66396e-06 -0 -2.38106e-06 -0 3.76795e-06)
(-4.07885e-05 8.53196e-06 -0 4.06367e-05 -0 1.51822e-07)
(-1.42189e-06 4.58278e-06 -0 -2.01781e-06 -0 3.43969e-06)
(-3.94347e-05 1.23646e-05 -0 3.78724e-05 -0 1.56229e-06)
(-1.29682e-06 5.20101e-06 -0 -1.95207e-06 -0 3.24889e-06)
(-3.76204e-05 1.5705e-05 -0 3.41869e-05 -0 3.43347e-06)
(-8.86405e-07 5.75341e-06 -0 -2.46238e-06 -0 3.34879e-06)
(-3.63425e-05 1.84801e-05 -0 3.15887e-05 -0 4.75374e-06)
(-6.05446e-07 6.35018e-06 -0 -2.73553e-06 -0 3.34098e-06)
(-3.52176e-05 2.0677e-05 -0 2.93257e-05 -0 5.89182e-06)
(-3.14702e-07 7.12651e-06 -0 -3.05934e-06 -0 3.37404e-06)
(-3.4298e-05 2.22431e-05 -0 2.75172e-05 -0 6.78077e-06)
(-6.31184e-08 8.23982e-06 -0 -3.34132e-06 -0 3.40443e-06)
(-3.3546e-05 2.30503e-05 -0 2.60982e-05 -0 7.44779e-06)
(1.29817e-07 9.90058e-06 -0 -3.546e-06 -0 3.41618e-06)
(-3.28904e-05 2.28596e-05 -0 2.49333e-05 -0 7.95708e-06)
(2.66001e-07 1.24477e-05 -0 -3.68024e-06 -0 3.41424e-06)
(-3.22814e-05 2.12266e-05 -0 2.39266e-05 -0 8.35477e-06)
(3.26448e-07 1.64241e-05 -0 -3.71027e-06 -0 3.38382e-06)
(-3.16508e-05 1.72658e-05 -0 2.2944e-05 -0 8.70681e-06)
(3.22572e-07 2.11622e-05 -0 -3.66711e-06 -0 3.34454e-06)
(-3.09612e-05 1.00567e-05 -0 2.19128e-05 -0 9.04839e-06)
(2.34833e-07 1.91605e-05 -0 -3.52173e-06 -0 3.2869e-06)
(-3.01629e-05 1.09532e-05 -0 2.0767e-05 -0 9.39595e-06)
(1.89922e-07 2.74919e-05 -0 -3.4092e-06 -0 3.21928e-06)
(-2.92487e-05 3.11683e-05 -0 1.9516e-05 -0 9.73269e-06)
(3.12349e-07 0.000169452 -0 -3.44733e-06 -0 3.13498e-06)
(-2.86984e-05 -0.000122564 -0 1.81333e-05 -0 1.05651e-05)
(-8.01477e-07 0.000278199 -0 -2.14815e-06 -0 2.94963e-06)
(-2.75108e-05 -0.000797558 -0 1.48556e-05 -0 1.26552e-05)
(-5.47731e-06 -0.000940627 -0 2.81783e-06 -0 2.65948e-06)
(-9.54282e-06 0.000708065 -0 -4.30366e-06 -0 1.38465e-05)
(-2.11302e-07 -0.00259363 -0 -1.67474e-06 -0 1.88604e-06)
(4.22761e-05 0.0122128 -0 -5.28944e-05 -0 1.06183e-05)
(4.90719e-05 0.00543317 -0 -4.9587e-05 -0 5.15086e-07)
(5.88529e-05 0.0316621 -0 -6.70559e-05 -0 8.20299e-06)
(0.000141581 0.0382747 -0 -0.000141749 -0 1.6785e-07)
(-9.7359e-05 0.030252 -0 8.33715e-05 -0 1.39875e-05)
(0.000206822 0.100272 -0 -0.000208682 -0 1.8605e-06)
(-0.00042859 -0.026156 -0 0.000405982 -0 2.26086e-05)
(0.000166878 0.178741 -0 -0.000170692 -0 3.81372e-06)
(-0.000718347 -0.137443 -0 0.000694406 -0 2.39404e-05)
(5.87525e-06 0.252325 -0 -9.66128e-06 -0 3.78603e-06)
(-0.000705163 -0.266862 -0 0.000686099 -0 1.90643e-05)
(-0.000233655 0.302199 -0 0.00023183 -0 1.82533e-06)
(-0.000247958 -0.372235 -0 0.000233797 -0 1.4161e-05)
(-0.000493344 0.319108 -0 0.000493664 -0 -3.19654e-07)
(0.000653764 -0.429917 -0 -0.000665702 -0 1.19375e-05)
(-0.000729555 0.304453 -0 0.000730934 -0 -1.37865e-06)
(0.00191784 -0.436974 -0 -0.00192931 -0 1.14704e-05)
(-0.000920567 0.266605 -0 0.000921913 -0 -1.34618e-06)
(0.00343592 -0.402635 -0 -0.00344696 -0 1.10374e-05)
(-0.0010614 0.215914 -0 0.00106224 -0 -8.35272e-07)
(0.00510529 -0.340201 -0 -0.00511516 -0 9.86983e-06)
(-0.00115665 0.161215 -0 0.00115708 -0 -4.35716e-07)
(0.00684326 -0.262519 -0 -0.00685367 -0 1.04091e-05)
(-0.00121507 0.108487 -0 0.00121556 -0 -4.96867e-07)
(0.00858967 -0.180111 -0 -0.00860826 -0 1.8587e-05)
(-0.00124482 0.0612715 -0 0.00124456 -0 2.6347e-07)
(0.0102804 -0.0997421 -0 -0.0102997 -0 1.92539e-05)
(-0.00125444 0.0196853 -0 0.00125292 -0 1.52037e-06)
(0.0118452 -0.0303095 -0 -0.011821 -0 -2.42201e-05)
(0.0158954 -3.3887 -0 -0.0158882 -0 -7.23492e-06)
(0.000648946 -1.45562 -0 -0.000675506 -0 2.65597e-05)
(0.000138502 -1.10601 -0 -0.000144831 -0 6.32916e-06)
(7.33013e-05 -0.946179 -0 -7.80808e-05 -0 4.77959e-06)
(4.70788e-05 -0.851724 -0 -4.97082e-05 -0 2.6294e-06)
(3.50493e-05 -0.787126 -0 -3.79263e-05 -0 2.87699e-06)
(2.7137e-05 -0.740715 -0 -2.91124e-05 -0 1.97544e-06)
(2.24138e-05 -0.703478 -0 -2.47089e-05 -0 2.29505e-06)
(1.82633e-05 -0.675846 -0 -2.01782e-05 -0 1.91497e-06)
(1.55249e-05 -0.652284 -0 -1.76118e-05 -0 2.08684e-06)
(1.32733e-05 -0.634714 -0 -1.52353e-05 -0 1.96201e-06)
(1.15345e-05 -0.618512 -0 -1.34233e-05 -0 1.88885e-06)
(1.0327e-05 -0.60644 -0 -1.22858e-05 -0 1.95879e-06)
(8.9647e-06 -0.594532 -0 -1.05576e-05 -0 1.59286e-06)
(8.42052e-06 -0.585622 -0 -1.02393e-05 -0 1.81883e-06)
(7.23939e-06 -0.576265 -0 -8.39093e-06 -0 1.15155e-06)
(7.15691e-06 -0.569012 -0 -8.61154e-06 -0 1.45463e-06)
(6.06325e-06 -0.561035 -0 -6.56294e-06 -0 4.99683e-07)
(6.27049e-06 -0.554438 -0 -7.06596e-06 -0 7.95464e-07)
(5.21111e-06 -0.547056 -0 -4.80864e-06 -0 -4.02474e-07)
(5.56375e-06 -0.540492 -0 -5.38854e-06 -0 -1.75214e-07)
(4.51987e-06 -0.533218 -0 -2.9741e-06 -0 -1.54578e-06)
(4.91138e-06 -0.526335 -0 -3.4789e-06 -0 -1.43248e-06)
(3.89005e-06 -0.518886 -0 -9.89297e-07 -0 -2.90075e-06)
(4.23423e-06 -0.511543 -0 -1.30352e-06 -0 -2.93071e-06)
(3.23759e-06 -0.50383 -0 1.16195e-06 -0 -4.39954e-06)
(3.46718e-06 -0.496129 -0 1.05315e-06 -0 -4.52033e-06)
(2.51964e-06 -0.488344 -0 3.29648e-06 -0 -5.81612e-06)
(2.65789e-06 -0.480663 -0 3.21142e-06 -0 -5.86931e-06)
(1.87859e-06 -0.473196 -0 4.92829e-06 -0 -6.80688e-06)
(2.03873e-06 -0.465935 -0 4.67768e-06 -0 -6.71641e-06)
(1.55558e-06 -0.459017 -0 5.76326e-06 -0 -7.31883e-06)
(1.73397e-06 -0.45224 -0 5.57487e-06 -0 -7.30885e-06)
(1.4605e-06 -0.445706 -0 6.41287e-06 -0 -7.87337e-06)
(1.41595e-06 -0.439134 -0 6.90182e-06 -0 -8.31777e-06)
(1.07071e-06 -0.432623 -0 8.07289e-06 -0 -9.14359e-06)
(5.63235e-07 -0.425953 -0 9.62704e-06 -0 -1.01903e-05)
(-3.61927e-08 -0.419232 -0 1.13663e-05 -0 -1.13301e-05)
(-9.98889e-07 -0.41233 -0 1.38363e-05 -0 -1.28374e-05)
(-1.81575e-06 -0.405349 -0 1.59844e-05 -0 -1.41686e-05)
(-3.07532e-06 -0.39823 -0 1.9007e-05 -0 -1.59317e-05)
(-4.01456e-06 -0.39107 -0 2.13161e-05 -0 -1.73015e-05)
(-5.41148e-06 -0.383897 -0 2.45379e-05 -0 -1.91264e-05)
(-6.41406e-06 -0.37676 -0 2.67497e-05 -0 -2.03357e-05)
(-7.76898e-06 -0.369877 -0 2.97751e-05 -0 -2.20061e-05)
(-8.79133e-06 -0.363031 -0 3.16576e-05 -0 -2.28663e-05)
(-1.02297e-05 -0.356837 -0 3.45398e-05 -0 -2.43101e-05)
(-1.14224e-05 -0.350595 -0 3.62918e-05 -0 -2.48695e-05)
(-1.45942e-05 -0.34537 -0 4.08493e-05 -0 -2.62551e-05)
(-1.75711e-05 -0.340712 -0 4.41522e-05 -0 -2.6581e-05)
(-2.46968e-05 -0.337219 -0 5.21158e-05 -0 -2.7419e-05)
(-2.76555e-05 -0.33617 -0 5.48445e-05 -0 -2.7189e-05)
(-4.02856e-05 -0.334128 -0 6.82279e-05 -0 -2.79424e-05)
(-3.83914e-05 -0.338476 -0 6.42284e-05 -0 -2.5837e-05)
(-4.90909e-05 -0.336152 -0 9.16455e-05 -0 -4.25546e-05)
(-3.62155e-05 -0.33716 -0 6.9089e-05 -0 -3.28735e-05)
(-8.0559e-05 -0.333517 -0 0.000175772 -0 -9.52126e-05)
(-2.42874e-05 -0.327981 -0 8.51637e-05 -0 -6.08763e-05)
(-0.000151128 -0.315795 -0 0.000324006 -0 -0.000172878)
(-5.9851e-05 -0.316349 -0 0.000154514 -0 -9.46627e-05)
(-0.000181752 -0.301016 -0 0.000430586 -0 -0.000248835)
(-4.39266e-05 -0.286258 -0 0.000138836 -0 -9.49089e-05)
(-0.000217877 -0.266407 -0 0.000505892 -0 -0.000288015)
(-0.000217471 -0.232096 -0 0.0002884 -0 -7.09294e-05)
(-0.00113702 -0.242981 -0 0.00180416 -0 -0.000667138)
(0.000180182 -0.31366 -0 7.18211e-05 -0 -0.000252003)
(0.000908068 -0.213802 -0 -0.000394286 -0 -0.000513782)
(0.00364295 -0.200977 -0 -0.00368579 -0 4.28434e-05)
(0.00794885 0.285258 -0 -0.00856098 -0 0.000612135)
(0.000728092 1.37143 -0 -0.00433359 -0 0.0036055)
(-0.0317739 0.457566 -0 0.0297604 -0 0.00201351)
(-0.0538896 -3.75906 -0 0.0553379 -0 -0.0014483)
(-0.0128824 -8.13749 -0 0.0186997 -0 -0.00581728)
(0.0815933 -6.7882 -0 -0.0883799 -0 0.0067866)
(0.0887236 1.01814 -0 -0.106624 -0 0.0179007)
(0.0151218 4.17282 -0 -0.0252816 -0 0.0101598)
(-0.0295999 3.19223 -0 0.0346494 -0 -0.00504953)
(-0.0259691 1.65471 -0 0.0268649 -0 -0.000895883)
(-0.0211461 0.533153 -0 0.0235331 -0 -0.00238701)
(-0.0141488 -0.452964 -0 0.0187295 -0 -0.00458069)
(-0.0109875 -0.635857 -0 0.0162805 -0 -0.00529306)
(-0.00587013 -1.08891 -0 0.0128109 -0 -0.00694076)
(-0.0108884 -0.523724 -0 0.0181687 -0 -0.00728029)
(-0.0359059 -1.39478 -0 0.0436942 -0 -0.00778832)
(-0.0413272 -3.07669 -0 0.0513758 -0 -0.0100486)
(-0.00840351 -4.23608 -0 0.0132352 -0 -0.00483171)
(0.0551885 -3.91299 -0 -0.048375 -0 -0.00681348)
(0.0333257 -0.178526 -2.74772e-18 -0.0489906 -0 0.0156649)
(0.0151744 -2.95997 -0 -0.0151817 -0 7.34387e-06)
(0.0017586 -1.45491 -0 -0.00174792 -0 -1.06834e-05)
(0.000426182 -1.1027 -0 -0.000424538 -0 -1.64427e-06)
(0.000223673 -0.942459 -0 -0.000225124 -0 1.45084e-06)
(0.000144483 -0.847545 -0 -0.000144413 -0 -7.05079e-08)
(0.000106809 -0.782337 -0 -0.000108819 -0 2.00995e-06)
(8.27846e-05 -0.735597 -0 -8.35012e-05 -0 7.16577e-07)
(6.84642e-05 -0.697927 -0 -7.07802e-05 -0 2.31606e-06)
(5.56858e-05 -0.669866 -0 -5.69415e-05 -0 1.25572e-06)
(4.8002e-05 -0.645749 -0 -5.04597e-05 -0 2.45767e-06)
(4.06522e-05 -0.627633 -0 -4.22225e-05 -0 1.57034e-06)
(3.64206e-05 -0.61085 -0 -3.87529e-05 -0 2.33222e-06)
(3.19286e-05 -0.598202 -0 -3.35988e-05 -0 1.67011e-06)
(2.92945e-05 -0.585737 -0 -3.12154e-05 -0 1.92094e-06)
(2.66178e-05 -0.576257 -0 -2.80709e-05 -0 1.4531e-06)
(2.49616e-05 -0.566393 -0 -2.60919e-05 -0 1.13029e-06)
(2.36446e-05 -0.558611 -0 -2.4403e-05 -0 7.58359e-07)
(2.26227e-05 -0.550197 -0 -2.24745e-05 -0 -1.48212e-07)
(2.23003e-05 -0.543142 -0 -2.17754e-05 -0 -5.24918e-07)
(2.16815e-05 -0.535407 -0 -1.97249e-05 -0 -1.95659e-06)
(2.2044e-05 -0.528473 -0 -1.96311e-05 -0 -2.41282e-06)
(2.16896e-05 -0.52093 -0 -1.74308e-05 -0 -4.2588e-06)
(2.24954e-05 -0.513768 -0 -1.76476e-05 -0 -4.84781e-06)
(2.2302e-05 -0.50613 -0 -1.53396e-05 -0 -6.96237e-06)
(2.32701e-05 -0.498599 -0 -1.5593e-05 -0 -7.67708e-06)
(2.30058e-05 -0.490779 -0 -1.31827e-05 -0 -9.82309e-06)
(2.37233e-05 -0.48299 -0 -1.32398e-05 -0 -1.04835e-05)
(2.309e-05 -0.475187 -0 -1.08028e-05 -0 -1.22872e-05)
(2.32947e-05 -0.46752 -0 -1.07016e-05 -0 -1.25931e-05)
(2.23551e-05 -0.460128 -0 -8.59183e-06 -0 -1.37632e-05)
(2.22943e-05 -0.452983 -0 -8.60436e-06 -0 -1.369e-05)
(2.15638e-05 -0.446238 -0 -7.16341e-06 -0 -1.44004e-05)
(2.16823e-05 -0.439687 -0 -7.20071e-06 -0 -1.44816e-05)
(2.15109e-05 -0.433435 -0 -6.16473e-06 -0 -1.53461e-05)
(2.18174e-05 -0.427205 -0 -5.53714e-06 -0 -1.62803e-05)
(2.20059e-05 -0.42108 -0 -4.20264e-06 -0 -1.78032e-05)
(2.21611e-05 -0.414842 -0 -2.33424e-06 -0 -1.98269e-05)
(2.23798e-05 -0.408573 -0 -3.44609e-07 -0 -2.20352e-05)
(2.22214e-05 -0.402148 -0 2.64747e-06 -0 -2.48688e-05)
(2.23402e-05 -0.395642 -0 5.11268e-06 -0 -2.74529e-05)
(2.18386e-05 -0.389011 -0 8.80522e-06 -0 -3.06438e-05)
(2.16451e-05 -0.38233 -0 1.15088e-05 -0 -3.31539e-05)
(2.06638e-05 -0.375653 -0 1.55093e-05 -0 -3.61731e-05)
(1.97508e-05 -0.369013 -0 1.82993e-05 -0 -3.80501e-05)
(1.82921e-05 -0.362646 -0 2.20759e-05 -0 -4.03681e-05)
(1.64718e-05 -0.356337 -0 2.47624e-05 -0 -4.12342e-05)
(1.43139e-05 -0.35068 -0 2.83768e-05 -0 -4.26907e-05)
(1.1745e-05 -0.34501 -0 3.09759e-05 -0 -4.27209e-05)
(5.55926e-06 -0.340287 -0 3.80843e-05 -0 -4.36436e-05)
(3.33292e-07 -0.336017 -0 4.25362e-05 -0 -4.28695e-05)
(-1.39642e-05 -0.332654 -0 5.56957e-05 -0 -4.17315e-05)
(-1.51694e-05 -0.331333 -0 5.31933e-05 -0 -3.80238e-05)
(-3.94698e-05 -0.328943 -0 7.58275e-05 -0 -3.63577e-05)
(-2.65419e-05 -0.331765 -0 5.35996e-05 -0 -2.70577e-05)
(-3.51745e-05 -0.329507 -0 8.83079e-05 -0 -5.31335e-05)
(-4.35751e-07 -0.329436 -0 2.75459e-05 -0 -2.71102e-05)
(-5.79378e-05 -0.326937 -0 0.000177679 -0 -0.000119741)
(4.9826e-05 -0.322239 -0 1.59333e-05 -0 -6.57592e-05)
(-0.000140579 -0.312613 -0 0.00036078 -0 -0.0002202)
(-1.50482e-06 -0.312817 -0 0.00010634 -0 -0.000104835)
(-0.000110179 -0.300681 -0 0.000440413 -0 -0.000330234)
(0.000154214 -0.285724 -0 -9.45718e-06 -0 -0.000144757)
(0.000113861 -0.268915 -0 0.00034871 -0 -0.000462571)
(0.000204476 -0.237111 -0 3.15594e-05 -0 -0.000236036)
(-0.00158462 -0.236406 -0 0.00226677 -0 -0.000682149)
(5.35187e-05 -0.295379 -0 -6.76067e-06 -0 -4.6758e-05)
(0.000470049 -0.228663 -0 -0.000496508 -0 2.64594e-05)
(0.00633335 -0.280876 -0 -0.00650352 -0 0.000170173)
(0.0225482 0.121586 -0 -0.0196127 -0 -0.00293549)
(0.0078754 1.06661 -0 -0.00949212 -0 0.00161671)
(-0.0812057 0.140237 -0 0.0785347 -0 0.00267094)
(-0.150716 -2.73648 -0 0.148522 -0 0.00219427)
(-0.0666754 -5.8801 -0 0.0655697 -0 0.00110571)
(0.165747 -5.78938 -0 -0.162823 -0 -0.00292479)
(0.243246 0.225597 -0 -0.255023 -0 0.011777)
(0.0541651 2.59401 -0 -0.0506689 -0 -0.00349613)
(-0.0593113 2.02227 -0 0.0664607 -0 -0.00714944)
(-0.0581004 1.22533 -0 0.0564907 -0 0.00160969)
(-0.0521785 0.431086 -0 0.0518323 -0 0.000346217)
(-0.0349473 -0.361862 -0 0.0382916 -0 -0.00334435)
(-0.022739 -0.497844 -0 0.0269661 -0 -0.00422715)
(-0.0046133 -0.919087 -0 0.0136554 -0 -0.00904212)
(-0.0166209 -0.464894 -0 0.0226727 -0 -0.00605187)
(-0.0905149 -1.07328 -0 0.0968283 -0 -0.00631343)
(-0.101967 -2.23258 -0 0.105192 -0 -0.00322425)
(-0.0340918 -3.19088 -0 0.0319324 -0 0.00215937)
(0.112933 -3.10323 -0 -0.0778696 -0 -0.0350636)
(0.155991 -0.606886 2.74501e-18 -0.186619 -0 0.0306288)
(0.0142134 -2.51867 -0 -0.0142137 -0 3.58361e-07)
(0.0028626 -1.44688 -0 -0.00285739 -0 -5.2011e-06)
(0.000785427 -1.09742 -0 -0.000785521 -0 9.47791e-08)
(0.000411861 -0.9381 -0 -0.000417062 -0 5.20086e-06)
(0.000265915 -0.843586 -0 -0.000266833 -0 9.18501e-07)
(0.000197366 -0.778316 -0 -0.000202464 -0 5.09822e-06)
(0.000152173 -0.731692 -0 -0.000153772 -0 1.59909e-06)
(0.000126623 -0.693972 -0 -0.000131859 -0 5.2355e-06)
(0.000102353 -0.666003 -0 -0.000104842 -0 2.48834e-06)
(8.89068e-05 -0.641869 -0 -9.43401e-05 -0 5.43329e-06)
(7.45789e-05 -0.623909 -0 -7.77069e-05 -0 3.12801e-06)
(6.73249e-05 -0.607245 -0 -7.25065e-05 -0 5.18154e-06)
(5.8289e-05 -0.594844 -0 -6.16427e-05 -0 3.35366e-06)
(5.38459e-05 -0.582622 -0 -5.82287e-05 -0 4.38275e-06)
(4.81923e-05 -0.573484 -0 -5.12103e-05 -0 3.01804e-06)
(4.53884e-05 -0.564003 -0 -4.83101e-05 -0 2.92162e-06)
(4.2283e-05 -0.556697 -0 -4.41571e-05 -0 1.87415e-06)
(4.04755e-05 -0.54884 -0 -4.11121e-05 -0 6.36638e-07)
(3.92525e-05 -0.542434 -0 -3.89842e-05 -0 -2.68287e-07)
(3.80216e-05 -0.535458 -0 -3.54883e-05 -0 -2.53325e-06)
(3.81068e-05 -0.529377 -0 -3.46687e-05 -0 -3.43809e-06)
(3.72117e-05 -0.522816 -0 -3.07006e-05 -0 -6.5111e-06)
(3.81392e-05 -0.51674 -0 -3.05981e-05 -0 -7.5411e-06)
(3.7421e-05 -0.51032 -0 -2.62706e-05 -0 -1.11504e-05)
(3.86715e-05 -0.50411 -0 -2.63115e-05 -0 -1.236e-05)
(3.77869e-05 -0.497722 -0 -2.16831e-05 -0 -1.61037e-05)
(3.86545e-05 -0.491435 -0 -2.13906e-05 -0 -1.72638e-05)
(3.71634e-05 -0.485185 -0 -1.66535e-05 -0 -2.05099e-05)
(3.72048e-05 -0.479083 -0 -1.60588e-05 -0 -2.1146e-05)
(3.52344e-05 -0.473242 -0 -1.18692e-05 -0 -2.33652e-05)
(3.48183e-05 -0.467623 -0 -1.14031e-05 -0 -2.34152e-05)
(3.31956e-05 -0.462369 -0 -8.35825e-06 -0 -2.48374e-05)
(3.29934e-05 -0.457303 -0 -7.83172e-06 -0 -2.51617e-05)
(3.22607e-05 -0.452528 -0 -5.48885e-06 -0 -2.67718e-05)
(3.22524e-05 -0.447825 -0 -3.74353e-06 -0 -2.85089e-05)
(3.20614e-05 -0.443266 -0 -9.28931e-07 -0 -3.11325e-05)
(3.17061e-05 -0.438689 -0 2.9262e-06 -0 -3.46323e-05)
(3.15207e-05 -0.434155 -0 6.77237e-06 -0 -3.82931e-05)
(3.05626e-05 -0.429585 -0 1.25193e-05 -0 -4.30819e-05)
(3.01652e-05 -0.425024 -0 1.71372e-05 -0 -4.73024e-05)
(2.85764e-05 -0.420455 -0 2.41214e-05 -0 -5.26979e-05)
(2.76183e-05 -0.415907 -0 2.9243e-05 -0 -5.68614e-05)
(2.51995e-05 -0.411438 -0 3.69406e-05 -0 -6.21402e-05)
(2.29977e-05 -0.407017 -0 4.24917e-05 -0 -6.54894e-05)
(1.97434e-05 -0.402867 -0 5.01799e-05 -0 -6.99232e-05)
(1.59381e-05 -0.398726 -0 5.59984e-05 -0 -7.19365e-05)
(1.13226e-05 -0.395146 -0 6.40137e-05 -0 -7.53363e-05)
(6.01957e-06 -0.391487 -0 7.03568e-05 -0 -7.63764e-05)
(-5.67811e-06 -0.388625 -0 8.48396e-05 -0 -7.91615e-05)
(-1.59685e-05 -0.386089 -0 9.50985e-05 -0 -7.913e-05)
(-4.25801e-05 -0.384376 -0 0.000121451 -0 -7.88712e-05)
(-5.08252e-05 -0.384455 -0 0.000128643 -0 -7.78175e-05)
(-9.91519e-05 -0.383757 -0 0.00017927 -0 -8.01178e-05)
(-8.88695e-05 -0.387603 -0 0.000158053 -0 -6.9184e-05)
(-0.000120227 -0.388352 -0 0.00025096 -0 -0.000130733)
(-7.407e-05 -0.389498 -0 0.00016482 -0 -9.07497e-05)
(-0.000193561 -0.391326 -0 0.000467452 -0 -0.000273892)
(-4.69024e-06 -0.387921 -0 0.000185607 -0 -0.000180917)
(-0.000352682 -0.382603 -0 0.000818895 -0 -0.000466213)
(-0.000104495 -0.383535 -0 0.000371377 -0 -0.000266882)
(-0.000320811 -0.37502 -0 0.00100544 -0 -0.000684633)
(9.39756e-05 -0.362297 -0 0.000210803 -0 -0.000304779)
(-0.000172369 -0.363654 -0 0.00102979 -0 -0.000857419)
(-9.6195e-05 -0.357174 -0 0.000443464 -0 -0.000347269)
(-0.00287374 -0.382427 -0 0.00408819 -0 -0.00121444)
(8.75278e-05 -0.419141 -0 0.000572389 -0 -0.000659917)
(0.00181134 -0.327733 -0 -0.00172221 -0 -8.91295e-05)
(0.0118454 -0.299463 -0 -0.0116226 -0 -0.000222773)
(0.0360587 0.0749177 -0 -0.0329534 -0 -0.00310537)
(0.00391406 0.541075 -0 -0.0134082 -0 0.00949413)
(-0.133354 -0.866695 -0 0.131928 -0 0.00142645)
(-0.220104 -2.37481 -0 0.225431 -0 -0.00532672)
(-0.0924988 -3.76819 -0 0.0955825 -0 -0.00308366)
(0.250343 -1.60823 -0 -0.235162 -0 -0.0151819)
(0.353321 1.63977 -0 -0.376201 -0 0.0228803)
(0.0525948 0.913592 -0 -0.0471822 -0 -0.00541261)
(-0.0853912 0.640761 -0 0.0983089 -0 -0.0129177)
(-0.0834386 0.363644 -0 0.0836493 -0 -0.000210634)
(-0.0865229 -0.210309 -0 0.0927331 -0 -0.00621025)
(-0.0551672 -0.687644 -0 0.063899 -0 -0.00873177)
(-0.0380334 -0.70697 -0 0.0460783 -0 -0.00804494)
(-0.00890856 -1.07586 -0 0.0209179 -0 -0.0120093)
(-0.0227863 -0.773691 -0 0.0338435 -0 -0.0110573)
(-0.11867 -1.04682 -0 0.122045 -0 -0.00337474)
(-0.143387 -1.59098 -0 0.146286 -0 -0.00289902)
(-0.0524474 -2.15449 -0 0.0563244 -0 -0.00387705)
(0.171602 -1.69466 -0 -0.126393 -0 -0.0452084)
(0.272522 -0.281933 -0 -0.331889 -0 0.0593672)
(0.0129786 -2.07856 -0 -0.0129736 -0 -4.94784e-06)
(0.00384958 -1.42305 -0 -0.00385407 -0 4.49332e-06)
(0.00121363 -1.09083 -0 -0.00121545 -0 1.81595e-06)
(0.000637019 -0.932923 -0 -0.000644764 -0 7.74423e-06)
(0.000412888 -0.838998 -0 -0.000414887 -0 1.99895e-06)
(0.000305754 -0.773548 -0 -0.000313063 -0 7.30969e-06)
(0.000236511 -0.727036 -0 -0.000239293 -0 2.78198e-06)
(0.000196095 -0.689134 -0 -0.000203535 -0 7.44e-06)
(0.000159298 -0.661063 -0 -0.000163156 -0 3.85785e-06)
(0.000137759 -0.636573 -0 -0.000145372 -0 7.6125e-06)
(0.000116088 -0.618333 -0 -0.000120712 -0 4.62358e-06)
(0.000104242 -0.601269 -0 -0.000111445 -0 7.20258e-06)
(9.06241e-05 -0.588508 -0 -9.54839e-05 -0 4.85983e-06)
(8.33053e-05 -0.57589 -0 -8.9378e-05 -0 6.07275e-06)
(7.47429e-05 -0.566353 -0 -7.90749e-05 -0 4.33195e-06)
(7.01002e-05 -0.556513 -0 -7.41397e-05 -0 4.03954e-06)
(6.52847e-05 -0.548815 -0 -6.79705e-05 -0 2.68579e-06)
(6.23135e-05 -0.54066 -0 -6.31891e-05 -0 8.75592e-07)
(6.02419e-05 -0.533915 -0 -5.99128e-05 -0 -3.29163e-07)
(5.82831e-05 -0.526724 -0 -5.47925e-05 -0 -3.49054e-06)
(5.81065e-05 -0.520391 -0 -5.33743e-05 -0 -4.7322e-06)
(5.67579e-05 -0.513714 -0 -4.78184e-05 -0 -8.93954e-06)
(5.77979e-05 -0.507496 -0 -4.74252e-05 -0 -1.03726e-05)
(5.67879e-05 -0.501067 -0 -4.15402e-05 -0 -1.52477e-05)
(5.83239e-05 -0.494843 -0 -4.14145e-05 -0 -1.69094e-05)
(5.71486e-05 -0.48856 -0 -3.52633e-05 -0 -2.18853e-05)
(5.82034e-05 -0.482388 -0 -3.47861e-05 -0 -2.34173e-05)
(5.62016e-05 -0.476352 -0 -2.85739e-05 -0 -2.76277e-05)
(5.6097e-05 -0.47048 -0 -2.77145e-05 -0 -2.83824e-05)
(5.33289e-05 -0.464941 -0 -2.21712e-05 -0 -3.11577e-05)
(5.24677e-05 -0.45965 -0 -2.13559e-05 -0 -3.11118e-05)
(4.99865e-05 -0.45478 -0 -1.71435e-05 -0 -3.2843e-05)
(4.92914e-05 -0.45015 -0 -1.60843e-05 -0 -3.32071e-05)
(4.79055e-05 -0.44587 -0 -1.26549e-05 -0 -3.52506e-05)
(4.74881e-05 -0.441736 -0 -9.96576e-06 -0 -3.75223e-05)
(4.68725e-05 -0.437806 -0 -5.93617e-06 -0 -4.09363e-05)
(4.61135e-05 -0.433941 -0 -5.99508e-07 -0 -4.5514e-05)
(4.56013e-05 -0.430167 -0 4.67149e-06 -0 -5.02728e-05)
(4.41579e-05 -0.426431 -0 1.23101e-05 -0 -5.6468e-05)
(4.34382e-05 -0.422739 -0 1.84458e-05 -0 -6.18839e-05)
(4.12697e-05 -0.419104 -0 2.74697e-05 -0 -6.87395e-05)
(3.98813e-05 -0.415512 -0 3.40483e-05 -0 -7.39296e-05)
(3.67703e-05 -0.412054 -0 4.36519e-05 -0 -8.04222e-05)
(3.37913e-05 -0.408653 -0 5.05459e-05 -0 -8.43372e-05)
(2.97301e-05 -0.405551 -0 5.97587e-05 -0 -8.94888e-05)
(2.46365e-05 -0.402469 -0 6.6835e-05 -0 -9.14716e-05)
(1.87895e-05 -0.399922 -0 7.629e-05 -0 -9.50795e-05)
(1.18261e-05 -0.397325 -0 8.37922e-05 -0 -9.56182e-05)
(-3.52963e-06 -0.395427 -0 0.000101774 -0 -9.82445e-05)
(-1.67698e-05 -0.393741 -0 0.000113788 -0 -9.70183e-05)
(-5.30725e-05 -0.392715 -0 0.000148299 -0 -9.5226e-05)
(-6.2272e-05 -0.393077 -0 0.000153178 -0 -9.09062e-05)
(-0.000126671 -0.392838 -0 0.000218377 -0 -9.17059e-05)
(-0.000121822 -0.395699 -0 0.000197126 -0 -7.53044e-05)
(-0.00015226 -0.397792 -0 0.000301731 -0 -0.000149471)
(-0.00010251 -0.398319 -0 0.000197439 -0 -9.49288e-05)
(-0.000236902 -0.402477 -0 0.000552861 -0 -0.000315959)
(1.98531e-05 -0.400246 -0 0.000177973 -0 -0.000197826)
(-0.000401634 -0.398348 -0 0.000933867 -0 -0.000532233)
(-9.38358e-05 -0.399206 -0 0.000388171 -0 -0.000294335)
(-0.000271135 -0.395317 -0 0.00104455 -0 -0.000773413)
(0.000112669 -0.383197 -0 0.000221578 -0 -0.000334247)
(-0.000282286 -0.392694 -0 0.00122164 -0 -0.000939355)
(-0.000388868 -0.393374 -0 0.000744684 -0 -0.000355816)
(-0.00354563 -0.414471 -0 0.00473506 -0 -0.00118942)
(0.000978108 -0.437972 -0 -0.000412448 -0 -0.000565661)
(0.00360021 -0.362183 -0 -0.00367614 -0 7.59258e-05)
(0.0171051 -0.330625 -0 -0.0168933 -0 -0.000211756)
(0.0459577 -0.0873235 -0 -0.0426275 -0 -0.00333013)
(-0.0125529 0.0608116 -0 0.000881192 -0 0.0116717)
(-0.176474 -1.25405 -0 0.177574 -0 -0.00110012)
(-0.252241 -1.93362 -0 0.257952 -0 -0.00571091)
(-0.044066 -2.09058 -0 0.058122 -0 -0.014056)
(0.359755 1.56419 -0 -0.350046 -0 -0.00970916)
(0.314971 2.37888 -0 -0.31582 -0 0.000849236)
(0.00600519 -0.0507572 -0 0.001136 -0 -0.00714118)
(-0.0858112 0.114599 -0 0.0978557 -0 -0.0120445)
(-0.0990893 0.13539 -0 0.100742 -0 -0.00165293)
(-0.108637 -0.270156 -0 0.115711 -0 -0.00707405)
(-0.0627324 -0.502722 -0 0.0702944 -0 -0.00756203)
(-0.0456875 -0.477772 -0 0.0522971 -0 -0.00660968)
(-0.00950526 -0.733367 -0 0.0206162 -0 -0.0111109)
(-0.0167956 -0.52737 -0 0.0241419 -0 -0.00734628)
(-0.145499 -0.703231 -0 0.158039 -0 -0.0125398)
(-0.176674 -0.945435 -0 0.185283 -0 -0.00860921)
(-0.0448335 -1.16067 -0 0.0504317 -0 -0.00559816)
(0.259997 0.0233316 -0 -0.23616 -0 -0.0238378)
(0.297558 0.821715 -0 -0.335166 -0 0.0376077)
(0.0114224 -1.64581 -0 -0.0114146 -0 -7.76944e-06)
(0.00461734 -1.36558 -0 -0.0046264 -0 9.05613e-06)
(0.00169943 -1.07676 -0 -0.00170161 -0 2.18351e-06)
(0.000905297 -0.924013 -0 -0.000915643 -0 1.03465e-05)
(0.000589098 -0.831953 -0 -0.00059192 -0 2.82181e-06)
(0.000436552 -0.766963 -0 -0.000446509 -0 9.95719e-06)
(0.000338088 -0.720907 -0 -0.000342012 -0 3.9235e-06)
(0.00028036 -0.683072 -0 -0.000290524 -0 1.01642e-05)
(0.0002285 -0.655051 -0 -0.00023388 -0 5.38008e-06)
(0.000197731 -0.630341 -0 -0.000208117 -0 1.03859e-05)
(0.00016713 -0.611903 -0 -0.000173536 -0 6.40611e-06)
(0.000150073 -0.594536 -0 -0.000159868 -0 9.79476e-06)
(0.000130816 -0.581471 -0 -0.000137502 -0 6.68645e-06)
(0.000120227 -0.568542 -0 -0.000128437 -0 8.20935e-06)
(0.000108033 -0.558652 -0 -0.000113936 -0 5.90296e-06)
(0.000101232 -0.548532 -0 -0.000106623 -0 5.39142e-06)
(9.4212e-05 -0.540495 -0 -9.78024e-05 -0 3.59039e-06)
(8.97588e-05 -0.532128 -0 -9.08113e-05 -0 1.0525e-06)
(8.64935e-05 -0.525112 -0 -8.59308e-05 -0 -5.62717e-07)
(8.34596e-05 -0.517807 -0 -7.85842e-05 -0 -4.87537e-06)
(8.27675e-05 -0.511312 -0 -7.62204e-05 -0 -6.54711e-06)
(8.05833e-05 -0.504636 -0 -6.8381e-05 -0 -1.22023e-05)
(8.15214e-05 -0.498394 -0 -6.73958e-05 -0 -1.41257e-05)
(7.97998e-05 -0.492095 -0 -5.92012e-05 -0 -2.05986e-05)
(8.13945e-05 -0.486002 -0 -5.85941e-05 -0 -2.28004e-05)
(7.9471e-05 -0.479983 -0 -5.01546e-05 -0 -2.93164e-05)
(8.04418e-05 -0.474093 -0 -4.91481e-05 -0 -3.12937e-05)
(7.74461e-05 -0.468437 -0 -4.07445e-05 -0 -3.67016e-05)
(7.68704e-05 -0.462961 -0 -3.92688e-05 -0 -3.76016e-05)
(7.27975e-05 -0.457879 -0 -3.1738e-05 -0 -4.10595e-05)
(7.10865e-05 -0.453062 -0 -3.01878e-05 -0 -4.08987e-05)
(6.71839e-05 -0.448708 -0 -2.42011e-05 -0 -4.29828e-05)
(6.54721e-05 -0.444634 -0 -2.20959e-05 -0 -4.33762e-05)
(6.2807e-05 -0.440956 -0 -1.69354e-05 -0 -4.58715e-05)
(6.13575e-05 -0.437496 -0 -1.26401e-05 -0 -4.87174e-05)
(5.96811e-05 -0.434295 -0 -6.73591e-06 -0 -5.29452e-05)
(5.7898e-05 -0.431241 -0 7.63253e-07 -0 -5.86613e-05)
(5.64918e-05 -0.428329 -0 8.02488e-06 -0 -6.45167e-05)
(5.39966e-05 -0.425532 -0 1.81561e-05 -0 -7.21526e-05)
(5.245e-05 -0.422818 -0 2.62626e-05 -0 -7.87126e-05)
(4.9184e-05 -0.420228 -0 3.78273e-05 -0 -8.70113e-05)
(4.68847e-05 -0.417703 -0 4.62502e-05 -0 -9.31349e-05)
(4.25867e-05 -0.415355 -0 5.82077e-05 -0 -0.000100794)
(3.83486e-05 -0.413064 -0 6.68326e-05 -0 -0.000105181)
(3.29473e-05 -0.411072 -0 7.80806e-05 -0 -0.000111028)
(2.60853e-05 -0.409091 -0 8.68465e-05 -0 -0.000112932)
(1.83586e-05 -0.407579 -0 9.84686e-05 -0 -0.000116827)
(9.2523e-06 -0.406018 -0 0.00010767 -0 -0.000116922)
(-9.93894e-06 -0.405028 -0 0.00012954 -0 -0.000119601)
(-2.59566e-05 -0.404113 -0 0.000143294 -0 -0.000117337)
(-7.16961e-05 -0.403685 -0 0.000186268 -0 -0.000114572)
(-8.41485e-05 -0.404192 -0 0.000193531 -0 -0.000109382)
(-0.000161614 -0.404304 -0 0.000272242 -0 -0.000110628)