/*--------------------------------*- C++ -*----------------------------------*\
| =========                 |                                                 |
| \\      /  F ield         | OpenFOAM: The Open Source CFD Toolbox           |
|  \\    /   O peration     | Version:  2306                                  |
|   \\  /    A nd           | Website:  www.openfoam.com                      |
|    \\/     M anipulation  |                                                 |
\*---------------------------------------------------------------------------*/
FoamFile
{
    version     2.0;
    format      ascii;
    arch        "LSB;label=32;scalar=64";
    class       volVectorField;
    location    "800";
    object      U;
}
// * * * * * * * * * * * * * * * * * * * * * * * * * * * * * * * * * * * * * //

dimensions      [0 1 -1 0 0 0 0];

internalField   nonuniform List<vector> 
20540
(
(29.9831 -0.000531721 0)
(58.6872 0.00528594 0)
(30.0588 -0.00170501 0)
(58.57 0.0156968 0)
(30.2535 -0.00310835 0)
(58.2439 0.0263492 0)
(30.6336 -0.0047418 0)
(57.6149 0.0367377 0)
(31.2821 -0.00658473 0)
(56.5731 0.0462921 0)
(32.2907 -0.00856273 0)
(55.0184 0.0543002 0)
(33.7348 -0.0105192 0)
(52.9021 0.0599903 0)
(35.6274 -0.0121933 0)
(50.2934 0.0627197 0)
(37.8627 -0.0132374 0)
(47.4589 0.0622767 0)
(40.1806 -0.0133306 0)
(44.9019 0.0592552 0)
(42.2054 -0.0124222 0)
(43.2409 0.055243 0)
(43.5856 -0.0109616 0)
(42.835 0.0523022 0)
(44.1958 -0.00975879 0)
(43.3717 0.051551 0)
(44.2599 -0.00930574 0)
(44.0257 0.0521573 0)
(44.1796 -0.0093128 0)
(44.2746 0.05258 0)
(44.1627 -0.00930045 0)
(44.2583 0.0523928 0)
(44.1776 -0.00918144 0)
(44.2302 0.0518853 0)
(44.1828 -0.00901691 0)
(44.2285 0.0511772 0)
(44.1833 -0.00881776 0)
(44.2294 0.0502774 0)
(44.1843 -0.00857434 0)
(44.2288 0.049175 0)
(44.1854 -0.00827297 0)
(44.2286 0.0478294 0)
(44.1863 -0.00790449 0)
(44.229 0.0461917 0)
(44.1871 -0.00746267 0)
(44.2298 0.0442128 0)
(44.1878 -0.00694037 0)
(44.2311 0.0418377 0)
(44.1883 -0.00633573 0)
(44.2327 0.039001 0)
(44.1888 -0.00564061 0)
(44.2347 0.0356082 0)
(44.1892 -0.00485286 0)
(44.237 0.0315609 0)
(44.1895 -0.00404165 0)
(44.2395 0.0267037 0)
(44.1898 -0.00317035 0)
(44.2422 0.0203963 0)
(44.1899 -0.00182153 0)
(44.2448 0.0117693 0)
(44.1897 -0.0006455 0)
(44.2466 0.00294548 0)
(44.1895 0.000151033 0)
(44.2475 -0.00462216 0)
(44.1891 0.00101812 0)
(44.2478 -0.0119309 0)
(44.1886 0.00178339 0)
(44.2471 -0.0194019 0)
(44.1879 0.00302507 0)
(44.2456 -0.0278276 0)
(44.187 0.00420106 0)
(44.2435 -0.0353394 0)
(44.1862 0.00493578 0)
(44.2412 -0.0404875 0)
(44.1854 0.00568263 0)
(44.2389 -0.0442351 0)
(44.1847 0.00632364 0)
(44.2367 -0.0469466 0)
(44.184 0.00688845 0)
(44.2348 -0.0489256 0)
(44.1833 0.00738571 0)
(44.2333 -0.0503966 0)
(44.1825 0.00781565 0)
(44.232 -0.0515052 0)
(44.1817 0.00818229 0)
(44.2311 -0.0523491 0)
(44.1808 0.00849128 0)
(44.2307 -0.0529948 0)
(44.1796 0.00874499 0)
(44.2307 -0.0534827 0)
(44.1784 0.00895389 0)
(44.2313 -0.0538473 0)
(44.1778 0.00911935 0)
(44.2313 -0.0541105 0)
(44.1763 0.00925646 0)
(44.2301 -0.0542971 0)
(44.1661 0.00936937 0)
(44.2407 -0.0544028 0)
(44.1588 0.00942167 0)
(44.2786 -0.054378 0)
(44.2099 0.00937439 0)
(44.2141 -0.0539655 0)
(44.2705 0.00948441 0)
(43.7835 -0.0530478 0)
(44.0408 0.0102203 0)
(43.0965 -0.0525684 0)
(43.1803 0.0115578 0)
(42.8373 -0.0539204 0)
(41.6042 0.0128514 0)
(43.6512 -0.0571772 0)
(39.5166 0.0134344 0)
(45.588 -0.0608424 0)
(37.2619 0.0130558 0)
(48.1985 -0.0630691 0)
(35.1608 0.0118574 0)
(50.9255 -0.0626619 0)
(33.4153 0.0101504 0)
(53.3635 -0.0592915 0)
(32.0948 0.00823584 0)
(55.315 -0.0532579 0)
(31.1735 0.00633122 0)
(56.742 -0.0451782 0)
(30.5791 0.00456565 0)
(57.699 -0.0357494 0)
(30.2284 0.00299996 0)
(58.2793 -0.0255989 0)
(30.047 0.00165044 0)
(58.5822 -0.0152294 0)
(29.9755 0.000515674 0)
(58.6922 -0.00513493 0)
(3.05618 0.00685961 0)
(1.23536 9.84881e-05 0)
(0.939992 1.79868e-05 0)
(0.805155 1.29294e-05 0)
(0.725558 6.74708e-06 0)
(0.671295 7.14975e-06 0)
(0.632249 4.12324e-06 0)
(0.601047 5.05155e-06 0)
(0.578086 3.49533e-06 0)
(0.558693 4.18205e-06 0)
(0.544497 3.33166e-06 0)
(0.531507 3.50331e-06 0)
(0.522111 3.13703e-06 0)
(0.512847 2.70207e-06 0)
(0.506225 2.77315e-06 0)
(0.499189 1.7482e-06 0)
(0.494048 2.14208e-06 0)
(0.488243 5.66008e-07 0)
(0.483722 1.12459e-06 0)
(0.478488 -9.22482e-07 0)
(0.474056 -3.38364e-07 0)
(0.468993 -2.72769e-06 0)
(0.464367 -2.25108e-06 0)
(0.459246 -4.85233e-06 0)
(0.4543 -4.62643e-06 0)
(0.449022 -7.30396e-06 0)
(0.443793 -7.35699e-06 0)
(0.438436 -9.85454e-06 0)
(0.433144 -9.97891e-06 0)
(0.427939 -1.19434e-05 0)
(0.422843 -1.19389e-05 0)
(0.417932 -1.32664e-05 0)
(0.413071 -1.33649e-05 0)
(0.408337 -1.44227e-05 0)
(0.403532 -1.51717e-05 0)
(0.39875 -1.64657e-05 0)
(0.393841 -1.81179e-05 0)
(0.388918 -1.97999e-05 0)
(0.383893 -2.22024e-05 0)
(0.378868 -2.41966e-05 0)
(0.373789 -2.71426e-05 0)
(0.368734 -2.94098e-05 0)
(0.363699 -3.28156e-05 0)
(0.358698 -3.53018e-05 0)
(0.35388 -3.90524e-05 0)
(0.349027 -4.16211e-05 0)
(0.344658 -4.58187e-05 0)
(0.340149 -4.87938e-05 0)
(0.33647 -5.40133e-05 0)
(0.333311 -5.83694e-05 0)
(0.331364 -6.56872e-05 0)
(0.331787 -7.87353e-05 0)
(0.331619 -9.3796e-05 0)
(0.337897 -0.000104695 0)
(0.337843 -0.000155391 0)
(0.340902 -0.000157487 0)
(0.339436 -0.000289993 0)
(0.33459 -0.000232186 0)
(0.324201 -0.000469274 0)
(0.325586 -0.000325874 0)
(0.31095 -0.000657467 0)
(0.300355 -0.000328583 0)
(0.292478 -0.00079041 0)
(0.278791 -0.000386343 0)
(0.321086 -0.00178921 0)
(0.378052 -0.00111381 0)
(0.238852 -0.000241539 0)
(0.105215 0.00116402 0)
(-0.408303 0.00493125 0)
(-1.16156 0.0104671 0)
(0.0179797 -0.00237117 0)
(4.06839 -0.0110747 0)
(7.85117 -0.014082 0)
(5.23176 0.0205006 0)
(-2.12853 0.0423468 0)
(-3.99892 0.0181674 0)
(-2.81113 -0.0184475 0)
(-1.15942 -0.00840575 0)
(-0.0286857 -0.0158514 0)
(0.818298 -0.0146912 0)
(0.945303 -0.0146403 0)
(1.35236 -0.0127179 0)
(0.870833 -0.0203673 0)
(1.63132 0.00334574 0)
(3.15025 -0.0134768 0)
(4.07787 -0.0129073 0)
(3.45327 0.0413461 0)
(-0.206156 0.00633887 0)
(9.02728 0.0215179 0)
(3.97134 0.00119897 0)
(3.01588 0.000262041 0)
(2.57885 0.000139928 0)
(2.32046 9.01007e-05 0)
(2.14354 6.79581e-05 0)
(2.01651 5.33789e-05 0)
(1.91443 4.45883e-05 0)
(1.83845 3.72512e-05 0)
(1.77343 3.19246e-05 0)
(1.72463 2.82572e-05 0)
(1.67951 2.45102e-05 0)
(1.64555 2.29489e-05 0)
(1.61204 1.95434e-05 0)
(1.58659 1.92842e-05 0)
(1.55997 1.5801e-05 0)
(1.53896 1.63077e-05 0)
(1.51602 1.25752e-05 0)
(1.49672 1.33992e-05 0)
(1.47534 9.38844e-06 0)
(1.45605 1.01972e-05 0)
(1.43486 5.98141e-06 0)
(1.41461 6.56531e-06 0)
(1.39284 2.28127e-06 0)
(1.37124 2.54172e-06 0)
(1.34867 -1.60579e-06 0)
(1.32608 -1.56416e-06 0)
(1.30332 -5.18741e-06 0)
(1.28089 -4.97713e-06 0)
(1.25914 -7.58427e-06 0)
(1.23804 -6.94936e-06 0)
(1.21801 -8.51262e-06 0)
(1.19844 -8.02102e-06 0)
(1.17963 -9.37462e-06 0)
(1.16077 -1.02208e-05 0)
(1.14211 -1.24046e-05 0)
(1.123 -1.52889e-05 0)
(1.10372 -1.86595e-05 0)
(1.08388 -2.32204e-05 0)
(1.06374 -2.73405e-05 0)
(1.04316 -3.27616e-05 0)
(1.02238 -3.69259e-05 0)
(1.00154 -4.2281e-05 0)
(0.980793 -4.56964e-05 0)
(0.960775 -4.99754e-05 0)
(0.940939 -5.20175e-05 0)
(0.922967 -5.50615e-05 0)
(0.904985 -5.5802e-05 0)
(0.889815 -6.06458e-05 0)
(0.876146 -6.21892e-05 0)
(0.865385 -6.98615e-05 0)
(0.860933 -5.87679e-05 0)
(0.853469 -6.70903e-05 0)
(0.862203 -4.24437e-05 0)
(0.853541 -6.39779e-05 0)
(0.853625 -9.16172e-07 0)
(0.84172 -0.000157955 0)
(0.826793 6.69433e-06 0)
(0.793606 -0.000365197 0)
(0.79401 -7.36054e-05 0)
(0.754139 -0.000480243 0)
(0.71154 -4.13549e-05 0)
(0.646529 -0.000534366 0)
(0.534262 -0.000207264 0)
(0.523965 -0.00247535 0)
(0.720428 0.000739434 0)
(0.513851 6.78449e-05 0)
(0.627326 0.00559229 0)
(-0.577297 0.0112569 0)
(-3.74441 0.00224308 0)
(-1.73964 -0.0492258 0)
(9.19365 -0.0932176 0)
(21.0578 -0.0289947 0)
(19.1597 0.153873 0)
(-1.24808 0.182565 0)
(-10.8302 0.0445629 0)
(-8.5856 -0.0522175 0)
(-4.81084 -0.0419518 0)
(-1.96716 -0.0294886 0)
(0.710921 -0.0259921 0)
(1.24402 -0.0227932 0)
(2.45296 -0.0216981 0)
(0.912726 -0.023141 0)
(3.26377 -0.100705 0)
(7.7423 -0.0990199 0)
(10.9718 -0.018306 0)
(10.5152 0.0280134 0)
(0.796554 0.113721 0)
(15.2495 0.0382833 0)
(7.27048 0.00381337 0)
(5.5136 0.000927294 0)
(4.71426 0.0005009 0)
(4.24102 0.000317101 0)
(3.91627 0.000246115 0)
(3.68337 0.000185072 0)
(3.49592 0.000162779 0)
(3.35661 0.000128596 0)
(3.23723 0.000118552 0)
(3.148 9.75682e-05 0)
(3.06552 9.24117e-05 0)
(3.00382 7.9086e-05 0)
(2.94302 7.44307e-05 0)
(2.89728 6.63664e-05 0)
(2.84954 6.0629e-05 0)
(2.81238 5.63186e-05 0)
(2.77195 4.87556e-05 0)
(2.73848 4.68152e-05 0)
(2.7015 3.72712e-05 0)
(2.66868 3.6559e-05 0)
(2.63274 2.53626e-05 0)
(2.59886 2.49713e-05 0)
(2.56253 1.26783e-05 0)
(2.52687 1.18493e-05 0)
(2.48969 -8.68457e-07 0)
(2.45272 -2.31185e-06 0)
(2.41557 -1.42049e-05 0)
(2.37905 -1.5324e-05 0)
(2.34374 -2.46031e-05 0)
(2.30954 -2.4536e-05 0)
(2.27716 -3.07003e-05 0)
(2.24563 -3.10223e-05 0)
(2.21545 -3.63346e-05 0)
(2.18529 -4.06104e-05 0)
(2.1556 -4.82076e-05 0)
(2.12533 -5.84413e-05 0)
(2.09494 -6.93037e-05 0)
(2.06383 -8.4485e-05 0)
(2.03243 -9.75015e-05 0)
(2.00048 -0.000115562 0)
(1.96837 -0.000129273 0)
(1.93632 -0.000148214 0)
(1.90446 -0.000161105 0)
(1.87391 -0.000178587 0)
(1.84354 -0.000189335 0)
(1.81633 -0.000205292 0)
(1.78889 -0.000214707 0)
(1.76617 -0.000238246 0)
(1.74581 -0.000251545 0)
(1.73044 -0.000286092 0)
(1.72588 -0.000290099 0)
(1.71639 -0.000354196 0)
(1.73497 -0.000300943 0)
(1.72647 -0.00049581 0)
(1.72983 -0.000314462 0)
(1.7192 -0.000993196 0)
(1.69513 -0.000467829 0)
(1.64579 -0.00181065 0)
(1.64831 -0.00085841 0)
(1.58384 -0.00244496 0)
(1.51201 -0.00069612 0)
(1.43976 -0.00268672 0)
(1.30231 -0.00103167 0)
(1.35239 -0.00834301 0)
(1.64797 -0.00159333 0)
(1.21982 0.000881359 0)
(1.27145 0.0153929 0)
(-0.925115 0.0414826 0)
(-5.46406 0.0374228 0)
(-0.249045 -0.164849 0)
(15.4235 -0.326192 0)
(31.7876 -0.157367 0)
(28.6053 0.355695 0)
(-3.33595 0.618905 0)
(-14.3451 0.119772 0)
(-10.7845 -0.178551 0)
(-5.96013 -0.126018 0)
(-1.58068 -0.129928 0)
(2.48442 -0.106886 0)
(3.144 -0.0837778 0)
(5.29647 -0.062386 0)
(2.97596 -0.0850261 0)
(6.16637 -0.209092 0)
(12.3261 -0.241775 0)
(17.1227 -0.0793968 0)
(16.0643 0.141365 0)
(2.19726 0.477241 0)
(21.5629 0.0570561 0)
(11.2303 0.00848729 0)
(8.52252 0.00228106 0)
(7.28601 0.00122442 0)
(6.55331 0.000778162 0)
(6.04872 0.000600889 0)
(5.68769 0.000452653 0)
(5.39624 0.000396478 0)
(5.17985 0.000312992 0)
(4.99361 0.000287892 0)
(4.8546 0.000235821 0)
(4.72574 0.000223724 0)
(4.62945 0.000189758 0)
(4.5345 0.000180062 0)
(4.46309 0.000158407 0)
(4.3888 0.000147163 0)
(4.33103 0.000134391 0)
(4.26859 0.000119695 0)
(4.21706 0.000112766 0)
(4.1606 9.40875e-05 0)
(4.11074 9.04771e-05 0)
(4.05659 6.83794e-05 0)
(4.00581 6.6056e-05 0)
(3.95181 4.16449e-05 0)
(3.89905 3.89224e-05 0)
(3.84443 1.35694e-05 0)
(3.7903 9.93142e-06 0)
(3.73623 -1.38921e-05 0)
(3.68321 -1.67846e-05 0)
(3.63222 -3.5601e-05 0)
(3.58299 -3.62652e-05 0)
(3.53667 -4.91371e-05 0)
(3.49177 -5.08125e-05 0)
(3.44911 -6.2197e-05 0)
(3.40677 -7.1892e-05 0)
(3.36537 -8.78825e-05 0)
(3.32345 -0.000109434 0)
(3.28158 -0.000131859 0)
(3.23899 -0.00016314 0)
(3.19616 -0.000189679 0)
(3.15285 -0.000226463 0)
(3.10946 -0.000254137 0)
(3.06641 -0.000292297 0)
(3.0237 -0.000318179 0)
(2.98309 -0.000352995 0)
(2.94271 -0.00037473 0)
(2.907 -0.00040643 0)
(2.87089 -0.000425637 0)
(2.84158 -0.000474005 0)
(2.81537 -0.000501183 0)
(2.79617 -0.000574914 0)
(2.79217 -0.000577517 0)
(2.7813 -0.000719564 0)
(2.8091 -0.000612583 0)
(2.80452 -0.00102215 0)
(2.81022 -0.000637355 0)
(2.80809 -0.00201969 0)
(2.77638 -0.000900838 0)
(2.71735 -0.00359299 0)
(2.72243 -0.00166268 0)
(2.64092 -0.00471181 0)
(2.53454 -0.00132064 0)
(2.47851 -0.00526821 0)
(2.33599 -0.00220697 0)
(2.45172 -0.0158142 0)
(2.82902 -0.00215718 0)
(2.16649 0.00438425 0)
(2.13722 0.0348589 0)
(-0.916371 0.0869275 0)
(-6.35353 0.0577909 0)
(2.71673 -0.383539 0)
(20.9367 -0.678382 0)
(39.5009 -0.273165 0)
(26.0005 0.715958 0)
(-9.81555 1.18756 0)
(-15.0956 0.143555 0)
(-11.6399 -0.331326 0)
(-6.56925 -0.254733 0)
(-0.89305 -0.280279 0)
(4.11642 -0.208585 0)
(4.72917 -0.158711 0)
(7.76872 -0.103635 0)
(4.73634 -0.133531 0)
(8.41264 -0.422573 0)
(15.5189 -0.478979 0)
(21.5067 -0.170902 0)
(18.6419 0.227303 0)
(1.89489 1.11249 0)
(27.743 0.0774518 0)
(15.9 0.0156583 0)
(12.134 0.00468935 0)
(10.3767 0.00251798 0)
(9.33343 0.00160606 0)
(8.61132 0.00123657 0)
(8.09609 0.000933567 0)
(7.67849 0.00081501 0)
(7.36874 0.000645047 0)
(7.10058 0.00059153 0)
(6.90054 0.000485165 0)
(6.71435 0.000459236 0)
(6.57507 0.0003894 0)
(6.43756 0.000369539 0)
(6.3338 0.000324293 0)
(6.22622 0.000302335 0)
(6.14221 0.000274794 0)
(6.05218 0.000246817 0)
(5.97766 0.000231029 0)
(5.89696 0.000195874 0)
(5.82562 0.000186929 0)
(5.74911 0.000145567 0)
(5.67744 0.000139511 0)
(5.60208 9.39947e-05 0)
(5.52863 8.76221e-05 0)
(5.45334 4.05695e-05 0)
(5.37894 3.29085e-05 0)
(5.30521 -1.11255e-05 0)
(5.23312 -1.72378e-05 0)
(5.16427 -5.21662e-05 0)
(5.09805 -5.45028e-05 0)
(5.03623 -7.90158e-05 0)
(4.97672 -8.37848e-05 0)
(4.9207 -0.000106015 0)
(4.86562 -0.000125643 0)
(4.81226 -0.000156221 0)
(4.75874 -0.000197035 0)
(4.70567 -0.000238809 0)
(4.65213 -0.000296595 0)
(4.59858 -0.000345171 0)
(4.54485 -0.000412086 0)
(4.49123 -0.000461986 0)
(4.4385 -0.000530396 0)
(4.38631 -0.00057649 0)
(4.33725 -0.000638081 0)
(4.28849 -0.000676636 0)
(4.24613 -0.00073271 0)
(4.20324 -0.000766799 0)
(4.16928 -0.000853628 0)
(4.13896 -0.000899873 0)
(4.11756 -0.00103495 0)
(4.11529 -0.00104111 0)
(4.1045 -0.00130823 0)
(4.14016 -0.0011411 0)
(4.14475 -0.00188514 0)
(4.15113 -0.00121852 0)
(4.16635 -0.00366572 0)
(4.12907 -0.0016261 0)
(4.06914 -0.0063099 0)
(4.07683 -0.00295826 0)
(3.99006 -0.00801213 0)
(3.84493 -0.00241261 0)
(3.8324 -0.00932809 0)
(3.7007 -0.00444305 0)
(3.87709 -0.026468 0)
(4.31143 -0.00198433 0)
(3.42829 0.0126179 0)
(3.28624 0.066757 0)
(-0.346853 0.162569 0)
(-5.67208 0.0690169 0)
(7.48093 -0.712865 0)
(27.1185 -1.1287 0)
(44.0344 -0.372989 0)
(18.7178 1.41136 0)
(-17.7751 1.5522 0)
(-13.8093 0.0872726 0)
(-11.356 -0.511799 0)
(-6.73387 -0.439367 0)
(0.0694741 -0.506512 0)
(5.48003 -0.344339 0)
(5.98393 -0.263858 0)
(9.65229 -0.15919 0)
(6.12511 -0.179514 0)
(10.3839 -0.731292 0)
(17.9303 -0.836492 0)
(23.8871 -0.246439 0)
(15.3073 0.829062 0)
(-3.37028 1.58305 0)
(33.5021 0.0986445 0)
(21.2328 0.0256221 0)
(16.4243 0.0086268 0)
(14.0686 0.00467646 0)
(12.6607 0.00299594 0)
(11.6791 0.00230298 0)
(10.98 0.00174277 0)
(10.4107 0.00151774 0)
(9.9886 0.0012054 0)
(9.62083 0.0011028 0)
(9.34634 0.000907062 0)
(9.08984 0.00085653 0)
(8.8975 0.00072766 0)
(8.7075 0.000689766 0)
(8.56335 0.000605481 0)
(8.41465 0.000565022 0)
(8.29775 0.000512637 0)
(8.17381 0.000462412 0)
(8.07068 0.000431222 0)
(7.96057 0.000369118 0)
(7.86297 0.000350399 0)
(7.75983 0.000278082 0)
(7.66324 0.000264846 0)
(7.56306 0.000185884 0)
(7.46563 0.000172632 0)
(7.36695 9.16954e-05 0)
(7.26971 7.69039e-05 0)
(7.17427 1.78354e-06 0)
(7.08122 -9.98621e-06 0)
(6.9931 -6.96077e-05 0)
(6.90869 -7.55082e-05 0)
(6.8306 -0.00011839 0)
(6.75602 -0.000129464 0)
(6.68658 -0.000169357 0)
(6.61908 -0.000205683 0)
(6.55444 -0.000259354 0)
(6.4904 -0.000330003 0)
(6.42747 -0.000401113 0)
(6.36468 -0.000498275 0)
(6.30228 -0.000579165 0)
(6.24032 -0.0006895 0)
(6.17877 -0.000771002 0)
(6.11887 -0.000881696 0)
(6.05972 -0.000955658 0)
(6.00487 -0.0010536 0)
(5.9503 -0.00111471 0)
(5.90384 -0.00120369 0)
(5.8566 -0.00125715 0)
(5.82029 -0.00139616 0)
(5.7876 -0.00146554 0)
(5.76541 -0.00168808 0)
(5.76513 -0.00169828 0)
(5.75514 -0.0021356 0)
(5.79504 -0.00193165 0)
(5.8123 -0.00311666 0)
(5.81611 -0.00211981 0)
(5.85493 -0.00598256 0)
(5.81358 -0.00268222 0)
(5.76103 -0.00993094 0)
(5.76984 -0.00480337 0)
(5.68902 -0.0121427 0)
(5.50506 -0.00406194 0)
(5.5486 -0.014775 0)
(5.42586 -0.00774611 0)
(5.63459 -0.0397893 0)
(6.08315 -0.000364699 0)
(5.02531 0.0273597 0)
(4.7701 0.114426 0)
(0.149065 0.246362 0)
(-2.43841 0.0326679 0)
(13.9983 -1.20968 0)
(33.5092 -1.59775 0)
(43.9058 -0.168172 0)
(8.4557 2.40831 0)
(-20.2102 1.98962 0)
(-12.1765 0.00222908 0)
(-10.0482 -0.697238 0)
(-6.45568 -0.65313 0)
(1.36572 -0.775638 0)
(6.57872 -0.508476 0)
(7.14131 -0.39766 0)
(10.903 -0.226739 0)
(7.5024 -0.236137 0)
(12.2272 -1.10706 0)
(19.4043 -1.24481 0)
(22.9387 -0.0887924 0)
(8.39139 1.51858 0)
(-7.49678 2.11527 0)
(38.495 0.119267 0)
(27.0231 0.038328 0)
(21.4096 0.0146107 0)
(18.4242 0.00809789 0)
(16.606 0.00522555 0)
(15.3242 0.00401375 0)
(14.4102 0.00304754 0)
(13.6621 0.00264747 0)
(13.1063 0.00211205 0)
(12.6192 0.00192735 0)
(12.2547 0.0015914 0)
(11.9133 0.00149856 0)
(11.6561 0.00127675 0)
(11.4025 0.00120842 0)
(11.2086 0.00106197 0)
(11.0102 0.000991722 0)
(10.8529 0.000898755 0)
(10.6883 0.000814299 0)
(10.5505 0.000756848 0)
(10.4058 0.000654604 0)
(10.2771 0.000618263 0)
(10.1435 0.000500856 0)
(10.0183 0.000474178 0)
(9.89053 0.000347315 0)
(9.76659 0.000321578 0)
(9.64268 0.000192876 0)
(9.52102 0.000165918 0)
(9.4028 4.75999e-05 0)
(9.28792 2.61274e-05 0)
(9.17997 -6.78658e-05 0)
(9.07701 -8.09973e-05 0)
(8.98251 -0.000150478 0)
(8.89297 -0.00017337 0)
(8.81049 -0.000239733 0)
(8.73133 -0.000301987 0)
(8.65643 -0.000389147 0)
(8.58326 -0.000502072 0)
(8.51206 -0.000613693 0)
(8.44194 -0.000763896 0)
(8.37271 -0.000887702 0)
(8.30475 -0.00105438 0)
(8.23749 -0.00117639 0)
(8.17272 -0.00133988 0)
(8.10874 -0.00144833 0)
(8.05009 -0.00158991 0)
(7.99143 -0.00167804 0)
(7.94227 -0.00180635 0)
(7.89173 -0.001882 0)
(7.85373 -0.00208457 0)
(7.81847 -0.00217734 0)
(7.79467 -0.00251421 0)
(7.79365 -0.00252558 0)
(7.78229 -0.00316596 0)
(7.81909 -0.00298689 0)
(7.84646 -0.00467759 0)
(7.84194 -0.00336324 0)
(7.90223 -0.00891658 0)
(7.85588 -0.00407693 0)
(7.81389 -0.0142712 0)
(7.82035 -0.00722991 0)
(7.74897 -0.0167244 0)
(7.53383 -0.00627857 0)
(7.62029 -0.0212261 0)
(7.49071 -0.0117724 0)
(7.6916 -0.0549296 0)
(8.08082 0.00341113 0)
(6.90226 0.0481336 0)
(6.62701 0.18469 0)
(0.872578 0.272712 0)
(3.30494 -0.185682 0)
(18.9461 -1.76378 0)
(36.573 -1.97985 0)
(37.7341 0.431004 0)
(-1.72484 3.5226 0)
(-18.491 2.27936 0)
(-10.4713 -0.0747054 0)
(-6.82834 -0.967469 0)
(-3.64106 -0.914367 0)
(4.16841 -1.09329 0)
(7.50508 -0.675174 0)
(8.39998 -0.553122 0)
(11.5022 -0.294139 0)
(9.2626 -0.297637 0)
(12.1511 -1.50681 0)
(18.487 -1.61078 0)
(17.8904 0.378539 0)
(1.045 2.48754 0)
(-9.96018 2.58573 0)
(42.3494 0.137427 0)
(32.854 0.0530824 0)
(26.9646 0.0230032 0)
(23.4391 0.0132405 0)
(21.2033 0.00865865 0)
(19.5963 0.00665358 0)
(18.4422 0.00507949 0)
(17.4912 0.0043987 0)
(16.7806 0.00353071 0)
(16.1548 0.00321002 0)
(15.6835 0.00266452 0)
(15.2421 0.002499 0)
(14.9066 0.00213768 0)
(14.5776 0.00201857 0)
(14.3233 0.00177741 0)
(14.0659 0.00166111 0)
(13.8596 0.00150447 0)
(13.6473 0.00137093 0)
(13.4682 0.00127043 0)
(13.2834 0.0011136 0)
(13.1188 0.00104692 0)
(12.9507 0.000870224 0)
(12.7935 0.000819801 0)
(12.6354 0.000631326 0)
(12.4827 0.000584218 0)
(12.332 0.000395132 0)
(12.1847 0.000348375 0)
(12.0427 0.000176058 0)
(11.9053 0.000138471 0)
(11.7768 9.71345e-07 0)
(11.6546 -2.58498e-05 0)
(11.543 -0.000130947 0)
(11.438 -0.000174315 0)
(11.3419 -0.000277506 0)
(11.2508 -0.000377275 0)
(11.1654 -0.000509406 0)
(11.0831 -0.000677608 0)
(11.0037 -0.000840681 0)
(10.9265 -0.00105613 0)
(10.8507 -0.00123204 0)
(10.7769 -0.00146491 0)
(10.704 -0.00163407 0)
(10.6342 -0.00185651 0)
(10.565 -0.00200346 0)
(10.5018 -0.00219105 0)
(10.4379 -0.00230807 0)
(10.3844 -0.00247748 0)
(10.3284 -0.00257514 0)
(10.2862 -0.0028474 0)
(10.2449 -0.00295621 0)
(10.2156 -0.00342939 0)
(10.2075 -0.0034315 0)
(10.1892 -0.0042818 0)
(10.2132 -0.00421545 0)
(10.2403 -0.00641355 0)
(10.2203 -0.00486486 0)
(10.2895 -0.0122661 0)
(10.2332 -0.00572119 0)
(10.1975 -0.0190123 0)
(10.1972 -0.0101492 0)
(10.1258 -0.0212673 0)
(9.89656 -0.00889184 0)
(9.99501 -0.0279379 0)
(9.83863 -0.0158107 0)
(10.0119 -0.0701838 0)
(10.2374 0.0110151 0)
(8.9914 0.0724428 0)
(8.79172 0.274224 0)
(3.17146 0.297298 0)
(9.45029 -0.533918 0)
(22.187 -2.33464 0)
(36.9404 -2.26009 0)
(28.2155 1.31742 0)
(-8.94184 4.61635 0)
(-14.307 2.40719 0)
(-7.65314 -0.285667 0)
(-3.96156 -1.26212 0)
(-0.276465 -1.21086 0)
(6.74694 -1.3838 0)
(8.3779 -0.827912 0)
(9.56688 -0.702493 0)
(11.9122 -0.445142 0)
(10.6684 -0.27179 0)
(10.7605 -1.84151 0)
(14.8481 -1.84674 0)
(9.10053 1.17111 0)
(-4.83486 3.3567 0)
(-13.1247 2.9369 0)
(44.7492 0.150968 0)
(38.0985 0.0682848 0)
(32.7153 0.0336411 0)
(28.953 0.0204525 0)
(26.3892 0.0136935 0)
(24.4803 0.0105625 0)
(23.0841 0.00813509 0)
(21.9216 0.00702106 0)
(21.0421 0.00568378 0)
(20.2641 0.0051423 0)
(19.6707 0.00429991 0)
(19.1164 0.00401076 0)
(18.6889 0.00345082 0)
(18.2733 0.00324738 0)
(17.9468 0.00286943 0)
(17.621 0.00268295 0)
(17.3561 0.00243168 0)
(17.0883 0.00223045 0)
(16.8601 0.00206343 0)
(16.6293 0.00183697 0)
(16.4226 0.00172146 0)
(16.2152 0.00147287 0)
(16.0215 0.00138349 0)
(15.8296 0.00112253 0)
(15.6449 0.00104113 0)
(15.4646 0.000782363 0)
(15.2892 0.000704923 0)
(15.1214 0.000470793 0)
(14.9593 0.000407666 0)
(14.808 0.000219169 0)
(14.6645 0.000168832 0)
(14.5333 1.89496e-05 0)
(14.4102 -5.69306e-05 0)
(14.2977 -0.000208376 0)
(14.1919 -0.000359238 0)
(14.0932 -0.000548153 0)
(13.999 -0.000784232 0)
(13.9086 -0.0010085 0)
(13.8213 -0.00129842 0)
(13.7359 -0.00153275 0)
(13.6531 -0.0018367 0)
(13.5711 -0.00205573 0)
(13.4925 -0.00233684 0)
(13.4141 -0.00252192 0)
(13.3418 -0.00275065 0)
(13.2679 -0.00289433 0)
(13.2049 -0.00309942 0)
(13.1378 -0.00321478 0)
(13.0857 -0.0035557 0)
(13.0318 -0.00366431 0)
(12.9907 -0.00428593 0)
(12.9671 -0.00425442 0)
(12.9336 -0.00529505 0)
(12.937 -0.00542277 0)
(12.9481 -0.0080667 0)
(12.9067 -0.00642592 0)
(12.9675 -0.0157042 0)
(12.8917 -0.00741124 0)
(12.8534 -0.0238109 0)
(12.8426 -0.0133141 0)
(12.7512 -0.0253679 0)
(12.5294 -0.0116677 0)
(12.6092 -0.0340121 0)
(12.4107 -0.0193864 0)
(12.5708 -0.0827852 0)
(12.5214 0.0244422 0)
(11.3161 0.10283 0)
(10.9433 0.356752 0)
(7.34437 0.290938 0)
(13.9998 -0.907505 0)
(24.3256 -2.87348 0)
(34.9205 -2.23987 0)
(18.024 2.53199 0)
(-11.8431 5.46708 0)
(-9.91041 2.35499 0)
(-3.71044 -0.502852 0)
(-0.466883 -1.62207 0)
(3.35174 -1.52521 0)
(9.26051 -1.64325 0)
(9.13402 -0.986456 0)
(10.9337 -0.873255 0)
(11.4529 -0.532067 0)
(12.1669 -0.360555 0)
(10.1424 -1.70048 0)
(12.3215 -1.59498 0)
(1.65347 2.30546 0)
(-7.86861 4.30349 0)
(-14.7841 2.94026 0)
(45.5912 0.158157 0)
(42.0434 0.0814477 0)
(37.9818 0.0453573 0)
(34.5265 0.0295733 0)
(31.8979 0.0205561 0)
(29.8147 0.0160386 0)
(28.2336 0.0125264 0)
(26.8912 0.010795 0)
(25.8526 0.00884023 0)
(24.9274 0.00796065 0)
(24.2069 0.00672246 0)
(23.5358 0.00623299 0)
(23.007 0.00540618 0)
(22.4981 0.00506683 0)
(22.0892 0.00450241 0)
(21.6876 0.00421014 0)
(21.3545 0.00382647 0)
(21.024 0.00353289 0)
(20.7383 0.00326959 0)
(20.4547 0.00295656 0)
(20.199 0.00276805 0)
(19.9465 0.00243591 0)
(19.7104 0.00228735 0)
(19.4794 0.00194564 0)
(19.2579 0.00181285 0)
(19.0435 0.00147837 0)
(18.8358 0.00135598 0)
(18.6377 0.00105527 0)
(18.4469 0.000954322 0)
(18.2685 0.000709375 0)
(18.0992 0.000623026 0)
(17.9436 0.000419931 0)
(17.7976 0.000297331 0)
(17.6636 8.63364e-05 0)
(17.5378 -0.000129853 0)
(17.4201 -0.000386331 0)
(17.3083 -0.000700948 0)
(17.201 -0.000993361 0)
(17.0976 -0.00136246 0)
(16.9963 -0.00165671 0)
(16.898 -0.00202972 0)
(16.8004 -0.00229515 0)
(16.7062 -0.00262613 0)
(16.6115 -0.00284248 0)
(16.523 -0.00309799 0)
(16.4316 -0.00326067 0)
(16.3518 -0.00348648 0)
(16.2659 -0.00361115 0)
(16.1968 -0.00401178 0)
(16.1224 -0.00409874 0)
(16.0632 -0.004873 0)
(16.0165 -0.00476213 0)
(15.9595 -0.00597736 0)
(15.9396 -0.00634452 0)
(15.9209 -0.0093221 0)
(15.856 -0.0077892 0)
(15.8966 -0.0188351 0)
(15.7905 -0.0088464 0)
(15.7445 -0.0283884 0)
(15.722 -0.0163263 0)
(15.5914 -0.0287311 0)
(15.3966 -0.0145039 0)
(15.4405 -0.0386233 0)
(15.2072 -0.0228277 0)
(15.3661 -0.0890077 0)
(14.9955 0.0438184 0)
(13.888 0.147062 0)
(13.2336 0.403823 0)
(12.0435 0.220117 0)
(17.8568 -1.29567 0)
(25.668 -3.23664 0)
(32.2062 -2.13078 0)
(9.94724 3.92181 0)
(-11.1635 6.0422 0)
(-7.11523 2.12571 0)
(0.939995 -1.00135 0)
(3.86774 -2.0375 0)
(7.46628 -1.85719 0)
(12.188 -1.79071 0)
(10.3087 -1.05896 0)
(12.078 -0.959476 0)
(11.2901 -0.717534 0)
(11.7015 -0.335779 0)
(9.87617 -1.79042 0)
(6.54031 -1.06739 0)
(-3.36462 3.32807 0)
(-8.80851 4.45737 0)
(-11.2962 2.62664 0)
(45.1846 0.158802 0)
(44.1942 0.0899319 0)
(41.9212 0.0557974 0)
(39.3911 0.0393651 0)
(37.143 0.0288213 0)
(35.1716 0.0230377 0)
(33.574 0.01839 0)
(32.1639 0.0159133 0)
(31.0312 0.013234 0)
(30.0063 0.0118953 0)
(29.1831 0.0101725 0)
(28.4153 0.00939031 0)
(27.7923 0.00822946 0)
(27.1974 0.00768768 0)
(26.7057 0.00688515 0)
(26.2291 0.00644052 0)
(25.8241 0.00588324 0)
(25.4284 0.00546596 0)
(25.0804 0.00507253 0)
(24.7399 0.00465305 0)
(24.4299 0.00436324 0)
(24.1275 0.00393576 0)
(23.8439 0.00370408 0)
(23.5688 0.00327497 0)
(23.3055 0.00307065 0)
(23.0518 0.0026568 0)
(22.8069 0.00247294 0)
(22.5734 0.00210332 0)
(22.3489 0.00195063 0)
(22.1382 0.00164588 0)
(21.9379 0.0015101 0)
(21.7523 0.00124712 0)
(21.5777 0.00106362 0)
(21.4161 0.000783627 0)
(21.264 0.000489326 0)
(21.121 0.000157209 0)
(20.9849 -0.000243048 0)
(20.8541 -0.000606085 0)
(20.7278 -0.00105329 0)
(20.604 -0.00140271 0)
(20.4834 -0.00183521 0)
(20.3635 -0.00213629 0)
(20.247 -0.00249968 0)
(20.1297 -0.00273375 0)
(20.0187 -0.00299225 0)
(19.9041 -0.00316275 0)
(19.802 -0.0033851 0)
(19.6919 -0.00351145 0)
(19.6016 -0.00395617 0)
(19.502 -0.00400499 0)
(19.4226 -0.00494181 0)
(19.3501 -0.00467314 0)
(19.2666 -0.00610086 0)
(19.2271 -0.00671429 0)
(19.1739 -0.0098839 0)
(19.0901 -0.0087558 0)
(19.1115 -0.0212931 0)
(18.9701 -0.00973672 0)
(18.9245 -0.0326409 0)
(18.8928 -0.0187348 0)
(18.7188 -0.0312226 0)
(18.567 -0.0173098 0)
(18.5769 -0.0418359 0)
(18.34 -0.0256383 0)
(18.4833 -0.0875172 0)
(17.8062 0.0755339 0)
(16.7785 0.199745 0)
(16.1348 0.416162 0)
(16.7165 0.0740156 0)
(21.3249 -1.62036 0)
(27.4113 -3.5831 0)
(29.4506 -1.50609 0)
(4.85487 5.40711 0)
(-7.54223 6.46227 0)
(-5.11886 1.65758 0)
(5.3312 -1.70181 0)
(8.86374 -2.52074 0)
(11.8764 -2.17958 0)
(15.8499 -1.88106 0)
(13.0831 -1.0805 0)
(13.7516 -1.04773 0)
(11.1318 -0.84991 0)
(10.8566 -0.332336 0)
(10.1787 -1.51613 0)
(2.10076 -0.177189 0)
(-4.44772 4.08908 0)
(-6.56336 4.85544 0)
(-6.23013 3.93419 0)
(44.303 0.155214 0)
(44.6826 0.0926086 0)
(43.9932 0.0623092 0)
(42.7032 0.047412 0)
(41.2661 0.036861 0)
(39.7944 0.0306129 0)
(38.4718 0.025238 0)
(37.2164 0.0221517 0)
(36.1451 0.018813 0)
(35.1418 0.0169845 0)
(34.2993 0.0147587 0)
(33.5026 0.0136218 0)
(32.8315 0.0120913 0)
(32.1894 0.01129 0)
(31.641 0.010213 0)
(31.112 0.00957207 0)
(30.6498 0.00880745 0)
(30.2018 0.0082361 0)
(29.7996 0.00768222 0)
(29.4093 0.00713761 0)
(29.0493 0.00671973 0)
(28.7003 0.00618702 0)
(28.3711 0.00584905 0)
(28.0529 0.00532828 0)
(27.748 0.0050328 0)
(27.4547 0.00453837 0)
(27.1718 0.00427676 0)
(26.9017 0.00383786 0)
(26.6422 0.00361959 0)
(26.3973 0.00325314 0)
(26.1642 0.00305463 0)
(25.9466 0.00272637 0)
(25.7412 0.00246848 0)
(25.5496 0.00211157 0)
(25.3688 0.0017279 0)
(25.1981 0.00131413 0)
(25.0353 0.000823524 0)
(24.8788 0.00039045 0)
(24.7275 -0.000130417 0)
(24.5795 -0.000526569 0)
(24.4351 -0.00100528 0)
(24.2922 -0.00132752 0)
(24.1528 -0.00170232 0)
(24.0134 -0.00193942 0)
(23.8805 -0.00217405 0)
(23.7443 -0.00234664 0)
(23.6223 -0.0025389 0)
(23.491 -0.00267482 0)
(23.384 -0.00314762 0)
(23.2635 -0.00316583 0)
(23.1713 -0.00429477 0)
(23.0788 -0.00376059 0)
(22.9777 -0.00553221 0)
(22.9297 -0.00635943 0)
(22.8496 -0.0095895 0)
(22.7631 -0.00930989 0)
(22.7755 -0.0228537 0)
(22.6083 -0.0100065 0)
(22.5863 -0.0367027 0)
(22.5499 -0.0202818 0)
(22.3509 -0.0327926 0)
(22.2599 -0.020608 0)
(22.2536 -0.0436541 0)
(22.0531 -0.0285527 0)
(22.1249 -0.0729775 0)
(21.2338 0.120118 0)
(20.2471 0.258927 0)
(20.1106 0.368015 0)
(21.5623 -0.109585 0)
(25.1178 -1.94955 0)
(29.0662 -3.62206 0)
(26.0661 -0.526485 0)
(2.99227 6.75554 0)
(-2.21986 6.76697 0)
(-5.91023 2.74116 0)
(9.57662 -2.58822 0)
(14.0765 -3.04201 0)
(16.8701 -2.53374 0)
(20.1124 -1.93461 0)
(17.4421 -0.945732 0)
(17.3032 -0.749976 0)
(12.6126 -0.612848 0)
(9.47351 -0.424005 0)
(9.31007 -1.37888 0)
(2.39988 0.568531 0)
(-0.388349 4.43901 0)
(-2.16369 4.36357 0)
(-5.37799 2.89561 0)
(43.8025 0.151441 0)
(44.3662 0.0913769 0)
(44.4937 0.0640902 0)
(44.1823 0.0515594 0)
(43.623 0.0422877 0)
(42.8764 0.036704 0)
(42.0929 0.0314801 0)
(41.2507 0.02835 0)
(40.4629 0.0247608 0)
(39.6731 0.0226648 0)
(38.9663 0.0201071 0)
(38.2723 0.0186863 0)
(37.658 0.0168536 0)
(37.0587 0.0158071 0)
(36.5256 0.0144784 0)
(36.0065 0.0136379 0)
(35.5379 0.0126686 0)
(35.0819 0.011938 0)
(34.6622 0.011217 0)
(34.2541 0.0105453 0)
(33.8711 0.00998892 0)
(33.4994 0.00935285 0)
(33.1449 0.00889705 0)
(32.8018 0.00828887 0)
(32.4712 0.00789092 0)
(32.1524 0.0073205 0)
(31.8443 0.00697029 0)
(31.5491 0.00646502 0)
(31.265 0.00616996 0)
(30.9957 0.00574075 0)
(30.7391 0.0054665 0)
(30.4981 0.00506655 0)
(30.2703 0.00471931 0)
(30.0569 0.00427524 0)
(29.8553 0.00378814 0)
(29.6648 0.00328322 0)
(29.4834 0.00269346 0)
(29.3093 0.00218617 0)
(29.1416 0.00159049 0)
(28.9785 0.00115021 0)
(28.8199 0.000630976 0)
(28.6642 0.000294137 0)
(28.5128 -8.19284e-05 0)
(28.3631 -0.000320013 0)
(28.2204 -0.000518063 0)
(28.0764 -0.000709776 0)
(27.9478 -0.000861366 0)
(27.8109 -0.00105397 0)
(27.7022 -0.00155509 0)
(27.5773 -0.0016088 0)
(27.4902 -0.00297913 0)
(27.3927 -0.00208013 0)
(27.2972 -0.00446206 0)
(27.256 -0.00538731 0)
(27.1699 -0.00866265 0)
(27.1059 -0.00978994 0)
(27.12 -0.0235658 0)
(26.9566 -0.0101868 0)
(26.9804 -0.0409819 0)
(26.9472 -0.0210089 0)
(26.758 -0.0343721 0)
(26.7441 -0.0246093 0)
(26.7482 -0.0460014 0)
(26.5737 -0.0283931 0)
(26.5576 -0.0464586 0)
(25.5814 0.183328 0)
(24.8264 0.287608 0)
(25.2375 0.290369 0)
(26.8685 -0.320038 0)