/*--------------------------------*- C++ -*----------------------------------*\
| =========                 |                                                 |
| \\      /  F ield         | OpenFOAM: The Open Source CFD Toolbox           |
|  \\    /   O peration     | Version:  2306                                  |
|   \\  /    A nd           | Website:  www.openfoam.com                      |
|    \\/     M anipulation  |                                                 |
\*---------------------------------------------------------------------------*/
FoamFile
{
    version     2.0;
    format      ascii;
    arch        "LSB;label=32;scalar=64";
    class       volVectorField;
    location    "800";
    object      wallShearStress;
}
// * * * * * * * * * * * * * * * * * * * * * * * * * * * * * * * * * * * * * //

dimensions      [0 2 -2 0 0 0 0];

internalField   uniform (0 0 0);

boundaryField
{
    inlet
    {
        type            calculated;
        value           uniform (0 0 0);
    }
    outlet
    {
        type            calculated;
        value           uniform (0 0 0);
    }
    lowerWallStartup
    {
        type            symmetryPlane;
    }
    upperWallStartup
    {
        type            symmetryPlane;
    }
    upperWall
    {
        type            calculated;
        value           nonuniform List<vector> 
218
(
(-3.60003 0.0160871 0)
(-1.45396 0.000365113 0)
(-1.10752 7.17994e-05 0)
(-0.947241 5.20103e-05 0)
(-0.855826 2.89198e-05 0)
(-0.788922 2.69334e-05 0)
(-0.746476 2.27332e-05 0)
(-0.705384 1.61228e-05 0)
(-0.683069 2.27239e-05 0)
(-0.654562 7.97318e-06 0)
(-0.643869 2.52233e-05 0)
(-0.621528 -1.1991e-06 0)
(-0.61795 2.97765e-05 0)
(-0.598534 -1.30931e-05 0)
(-0.599758 3.63659e-05 0)
(-0.581487 -2.85662e-05 0)
(-0.585988 4.51479e-05 0)
(-0.567764 -4.82592e-05 0)
(-0.574431 5.62001e-05 0)
(-0.555642 -7.24344e-05 0)
(-0.563648 6.94433e-05 0)
(-0.544067 -0.000100984 0)
(-0.552789 8.46834e-05 0)
(-0.532428 -0.000133744 0)
(-0.541393 0.000102036 0)
(-0.520433 -0.00017044 0)
(-0.529341 0.000122301 0)
(-0.50821 -0.000210119 0)
(-0.516965 0.000146537 0)
(-0.496283 -0.000251379 0)
(-0.504847 0.00017513 0)
(-0.48508 -0.000293892 0)
(-0.493273 0.000207493 0)
(-0.474504 -0.000339256 0)
(-0.482002 0.000242716 0)
(-0.464116 -0.000389677 0)
(-0.470635 0.000280509 0)
(-0.453609 -0.000446524 0)
(-0.459041 0.00032165 0)
(-0.442965 -0.00051099 0)
(-0.447407 0.000368737 0)
(-0.432387 -0.000585644 0)
(-0.436139 0.000426699 0)
(-0.422272 -0.000674121 0)
(-0.425681 0.000501657 0)
(-0.412822 -0.000780059 0)
(-0.415749 0.000597454 0)
(-0.403354 -0.000908305 0)
(-0.403897 0.00071322 0)
(-0.393682 -0.00106849 0)
(-0.385831 0.000843892 0)
(-0.38089 -0.00127684 0)
(-0.365993 0.00154567 0)
(-0.29903 0.00378828 0)
(-0.335821 0.000596145 0)
(-0.324556 -0.00166453 0)
(-0.285833 0.000661053 0)
(-0.317755 -0.0012212 0)
(-0.241159 5.51457e-05 0)
(-0.254209 -0.000627437 0)
(-0.225505 -0.000314148 0)
(-0.195039 0.000239353 0)
(-0.142166 -0.00030438 0)
(-0.014519 0.00162684 0)
(0.0816365 -0.0023018 0)
(0.212625 -0.000305514 0)
(0.193537 -0.0030973 0)
(0.194961 -0.00248036 0)
(0.243121 -0.00116651 0)
(0.193393 -0.00470864 0)
(0.388607 0.00358733 0)
(0.409883 -0.00850626 0)
(0.747492 0.00532413 0)
(0.66697 -0.010136 0)
(0.879026 -0.000343596 0)
(0.023662 0.00871055 0)
(0.61953 -0.00207904 0)
(0.677445 0.0039622 0)
(0.523027 -0.00984744 0)
(0.873974 0.00609786 0)
(1.78832 4.93915 0)
(1.10176 0.00875111 0)
(0.890925 -0.0024024 0)
(1.14296 0.00404295 0)
(0.996474 -0.000277949 0)
(1.29448 0.0117913 0)
(1.13391 -0.0112305 0)
(1.63672 0.0189393 0)
(1.19431 -0.0242188 1.68243e-17)
(1.78827 0.0219795 0)
(1.2031 -0.0256539 -1.68379e-17)
(1.79581 0.0223972 1.68523e-17)
(1.25108 -0.0250999 0)
(1.87676 0.0215197 1.68622e-17)
(1.30721 -0.0258181 0)
(1.94321 0.0207903 0)
(1.31521 -0.0260708 0)
(1.94062 0.0202108 0)
(1.27164 -0.0256916 -1.68779e-17)
(1.88252 0.019852 0)
(1.22653 -0.0295965 1.69065e-17)
(1.70344 0.0259055 0)
(1.27522 -0.0178349 1.68985e-17)
(1.92276 0.0196341 -1.6912e-17)
(1.41124 -0.0176801 0)
(2.11519 0.0177064 -1.69168e-17)
(1.63803 -0.0137731 0)
(2.35613 0.0160083 1.69198e-17)
(1.82735 -0.011486 0)
(2.52799 0.0137354 0)
(1.91586 -0.0133599 0)
(2.61607 0.0136352 0)
(1.98454 -0.0135083 0)
(2.71899 0.0132493 0)
(2.10265 -0.0106583 0)
(2.88188 0.0114327 -1.69589e-17)
(2.24773 -0.00573075 1.69541e-17)
(3.03838 0.00889432 -1.69652e-17)
(2.41806 0.00173905 1.69593e-17)
(3.19448 0.00362139 0)
(2.60881 0.00630709 1.69651e-17)
(3.36386 -0.000137773 0)
(2.86487 0.0114121 1.69721e-17)
(3.58345 -8.22851e-06 0)
(3.22851 0.0170218 0)
(3.88118 -0.00331219 1.69883e-17)
(3.52588 0.0204409 0)
(4.08313 -0.00570589 1.69947e-17)
(3.68286 0.029995 0)
(4.06997 -0.00934122 1.69974e-17)
(3.68697 0.0403328 0)
(4.22578 -0.00243674 1.69948e-17)
(4.48996 0.0302925 0)
(5.23987 0.00422892 0)
(5.54359 0.00995041 1.69702e-17)
(5.66324 -0.0036867 0)
(5.30283 0.00276805 1.69939e-17)
(5.36503 2.41981e-05 0)
(5.46073 0.00789159 1.70007e-17)
(6.45848 0.00668071 0)
(6.31631 -0.0233102 1.69937e-17)
(4.68966 -0.0107633 0)
(3.33047 -0.00659214 0)
(3.91323 0.0100761 1.70781e-17)
(4.83058 0.0142776 0)
(6.4727 0.0111045 1.70096e-17)
(7.75032 -0.019221 0)
(7.10311 -0.0272497 1.70377e-17)
(3.33262 -0.0709243 0)
(-3.94464 -0.0794726 0)
(-10.852 -0.0814633 1.68867e-17)
(-15.6628 -0.0464369 1.68044e-17)
(-17.0368 -0.000843159 0)
(-15.8541 -0.0136183 1.67136e-17)
(-14.0644 0.181493 0)
(-0.50435 0.484543 1.66717e-17)
(17.8448 0.282583 0)
(23.7246 0.106396 1.64912e-17)
(15.8248 0.00787989 0)
(1.40081 0.32819 1.68928e-17)
(0.228991 -0.114149 1.70585e-17)
(8.2117 0.126753 0)
(15.3149 0.174793 1.66294e-17)
(19.0166 0.271701 0)
(15.1768 -0.0301349 1.64744e-17)
(-27.7781 0.391283 0)
(-9.04622 0.883533 0)
(9.67666 -0.0838845 1.6903e-17)
(-0.549563 -0.170201 -1.69324e-17)
(7.02133 0.0012908 1.69398e-17)
(2.25008 -0.127598 -1.69547e-17)
(-2.01505 -0.0997789 0)
(-3.19598 0.0892562 0)
(-3.04764 0.121712 0)
(2.36572 -0.0440998 -1.68942e-17)
(4.97352 0.08128 0)
(8.85816 0.0336074 0)
(13.3373 0.0618062 0)
(17.2704 0.0518709 0)
(21.7776 0.0573801 0)
(25.3149 0.0424907 0)
(28.1604 0.0329846 0)
(29.8273 0.011068 1.65902e-17)
(29.7494 -0.00713108 -1.66574e-17)
(28.3667 -0.0199007 0)
(26.3524 -0.0225005 0)
(24.3113 -0.0265335 4.49397e-18)
(21.665 -0.0234253 -3.95105e-18)
(18.9583 -0.0212028 -6.94381e-18)
(15.9555 -0.0175053 -6.09571e-18)
(13.4033 -0.00944267 -1.06913e-17)
(11.1937 -0.00697277 -9.36408e-18)
(9.37224 -0.00145777 -8.19374e-18)
(8.17396 0.00316396 0)
(7.06555 0.00812129 -1.25163e-17)
(6.81813 0.00185421 0)
(7.2663 0.0132983 1.90886e-17)
(9.96336 0.0176464 0)
(15.418 0.0113496 0)
(14.6016 0.000738295 0)
(16.7651 0.0428249 0)
(5.01952 -0.0313108 0)
(-10.8668 -0.0656355 0)
(-47.7611 -0.261656 -5.92038e-17)
(-76.3035 -0.456607 0)
(-86.2001 -0.420514 6.54462e-17)
(-52.0748 -0.103134 -4.92516e-17)
(-29.0602 -0.166296 4.36862e-17)
(-74.4691 -0.793249 0)
(-39.0399 0.0245758 4.83013e-17)
(46.8959 1.4617 0)
(9.1574 0.888491 0)
(-32.6788 -1.77534 0)
(-36.5314 -1.61464 0)
(-9.97123 0.961252 0)
(-13.2765 -1.80699 0)
(-34.4786 -9.9914 -1.44185e-16)
(-44.9152 -15.7782 0)
)
;
    }
    lowerWall
    {
        type            calculated;
        value           nonuniform List<vector> 
266
(
(-3.59996 -0.0160787 0)
(-1.45437 -0.000362118 0)
(-1.10656 -7.22987e-05 0)
(-0.947802 -4.31379e-05 0)
(-0.854088 -2.54085e-05 0)
(-0.790204 -2.19472e-05 0)
(-0.744234 -1.48597e-05 0)
(-0.707502 -1.46355e-05 0)
(-0.680471 -1.0936e-05 0)
(-0.657641 -1.10435e-05 0)
(-0.640929 -8.9998e-06 0)
(-0.625636 -8.71388e-06 0)
(-0.614575 -7.71315e-06 0)
(-0.603669 -6.69834e-06 0)
(-0.595874 -6.55314e-06 0)
(-0.587591 -4.77322e-06 0)
(-0.581539 -5.26285e-06 0)
(-0.574705 -2.74304e-06 0)
(-0.569383 -3.59019e-06 0)
(-0.563221 -4.23602e-07 0)
(-0.558004 -1.38214e-06 0)
(-0.552044 2.25887e-06 0)
(-0.546598 1.4181e-06 0)
(-0.54057 5.35162e-06 0)
(-0.534748 4.87236e-06 0)
(-0.528534 8.91716e-06 0)
(-0.522379 8.88357e-06 0)
(-0.516072 1.26872e-05 0)
(-0.509844 1.28186e-05 0)
(-0.503717 1.5849e-05 0)
(-0.497717 1.58186e-05 0)
(-0.491936 1.78623e-05 0)
(-0.486214 1.79607e-05 0)
(-0.480641 1.95238e-05 0)
(-0.474985 2.05661e-05 0)
(-0.469356 2.24366e-05 0)
(-0.463578 2.48499e-05 0)
(-0.457782 2.73094e-05 0)
(-0.451867 3.08984e-05 0)
(-0.445951 3.38566e-05 0)
(-0.439974 3.83123e-05 0)
(-0.434023 4.17269e-05 0)
(-0.428095 4.69293e-05 0)
(-0.422209 5.07621e-05 0)
(-0.416537 5.65431e-05 0)
(-0.410824 6.06285e-05 0)
(-0.405681 6.72144e-05 0)
(-0.400374 7.20946e-05 0)
(-0.396044 8.08815e-05 0)
(-0.392325 8.86017e-05 0)
(-0.390033 0.000102182 0)
(-0.390531 0.000123723 0)
(-0.390334 0.000151319 0)
(-0.397723 0.000168494 0)
(-0.397659 0.00024605 0)
(-0.401261 0.000248275 0)
(-0.399534 0.000450232 0)
(-0.39383 0.000352196 0)
(-0.3816 0.000729228 0)
(-0.383231 0.000499823 0)
(-0.366002 0.00100946 0)
(-0.353531 0.000498681 0)
(-0.344259 0.00121708 0)
(-0.328146 0.000655173 0)
(-0.377927 0.00296458 0)
(-0.444993 0.00160395 0)
(-0.281143 -9.49113e-05 0)
(-0.123849 -0.00302672 0)
(0.480539 -0.0101843 0)
(1.36743 -0.0154701 0)
(-0.0210931 0.0149835 0)
(-4.79399 0.0349011 0)
(-9.26727 0.0245241 0)
(-6.16797 -0.0572012 0)
(2.50603 -0.0900911 0)
(4.71226 -0.0301987 0)
(3.31108 0.0371595 0)
(1.3649 0.0215537 0)
(0.0337909 0.0311284 0)
(-0.963127 0.0262444 0)
(-1.11269 0.024875 0)
(-1.59206 0.0196062 0)
(-1.02504 0.0331649 0)
(-1.92077 0.00412367 0)
(-3.71076 0.0316018 0)
(-4.80559 0.0214713 0)
(-4.06811 -0.0856272 0)
(0.209829 -0.0158344 0)
(17.5405 -245.453 0)
(-1.20673 -2.04003 0)
(0.424952 -1.55606 -2.4311e-19)
(-0.671946 -0.857344 2.56087e-19)
(-0.297254 -0.336506 0)
(-0.389933 -0.0369557 0)
(-0.442006 0.0115968 0)
(-0.458965 -0.0157648 0)
(-0.472635 0.00195028 -0)
(-0.483408 0.0554241 2.83108e-18)
(-0.484944 0.124382 -2.19978e-18)
(-0.477337 0.190944 3.50254e-18)
(-0.487528 0.268541 -3.01419e-18)
(-0.57987 0.420327 0)
(-0.65181 0.612814 -6.55046e-18)
(-0.691128 0.843521 6.72667e-18)
(-0.688385 1.11775 0)
(-0.616583 1.43543 0)
(-0.425614 1.75247 0)
(-0.0797686 1.91635 -3.00742e-17)
(0.32804 1.63786 2.8031e-17)
(0.50931 0.994362 -5.2592e-17)
(0.389704 0.321422 4.65136e-17)
(0.302682 -0.00629974 0)
(0.33367 -0.341482 -8.60908e-17)
(0.361201 -0.854659 1.01973e-16)
(0.264261 -1.22531 0)
(0.135705 -1.42684 0)
(0.00461226 -1.4985 0)
(-0.119639 -1.46963 0)
(-0.225729 -1.37177 0)
(-0.306809 -1.23382 -0)
(-0.360505 -1.07869 1.12957e-16)
(-0.389712 -0.923808 1.45172e-22)
(-0.398455 -0.779377 -1.16988e-16)
(-0.392353 -0.651532 -0)
(-0.376328 -0.541617 0)
(-0.355059 -0.449564 0)
(-0.331342 -0.373831 0)
(-0.308127 -0.312251 0)
(-0.286089 -0.263068 -7.02465e-17)
(-0.266732 -0.223516 7.3154e-17)
(-0.249288 -0.193154 0)
(-0.235069 -0.168305 0)
(-0.222281 -0.15246 0)
(-0.213778 -0.133984 2.15967e-17)
(-0.204402 -0.137107 -2.25085e-17)
(-0.193293 -0.0584315 0)
(-3.58997 -9.60101 -0)
(-8.70164 -0.152777 1.30063e-19)
(-8.47746 -0.0911203 0)
(-2.11494 -0.061093 1.29862e-19)
(3.80602 -0.0383416 0)
(4.50117 0.00771187 0)
(-52.2781 108.132 0)
(-2.08941 0.0078436 0)
(-1.7841 0.0085945 0)
(-1.81651 0.0259562 1.3015e-19)
(-1.55681 0.0137133 0)
(1.42159 -0.0145303 0)
(4.83816 -0.0216313 0)
(7.12852 -0.0157735 0)
(8.46338 -0.00852592 0)
(9.09364 -0.00442451 0)
(9.24967 -0.000354186 0)
(9.12725 0.00240951 0)
(8.84325 0.00603459 0)
(8.38813 0.0089186 0)
(7.67687 0.00994648 -1.30511e-19)
(6.49642 0.0076243 0)
(4.23786 0.00595764 -1.30797e-19)
(2.80347 -0.00132951 0)
(2.32166 0.0122381 -1.31033e-19)
(0.979085 0.0257697 0)
(-0.460272 0.0302506 -1.31085e-19)
(-1.49194 0.0173434 0)
(-2.34395 0.0164143 0)
(-2.90665 0.00941006 0)
(-3.62479 0.0109336 -1.30974e-19)
(-4.36356 0.0156004 -1.3095e-19)
(-4.96961 0.0158616 -1.30856e-19)
(-6.19736 0.0266904 -1.30761e-19)
(-8.87029 0.0537281 -1.30747e-19)
(-7.23187 -0.0107931 0)
(-0.177445 -0.0739172 0)
(0.913863 -0.158747 -1.30764e-19)
(-6.11139 0.0428897 -1.30598e-19)
(-11.4711 0.0377541 -1.30322e-19)
(-11.4474 -0.00461937 -1.30032e-19)
(-7.66463 -0.0331302 -1.29933e-19)
(-3.35755 -0.0311202 -1.3002e-19)
(-1.26624 -0.00818337 0)
(-1.74117 0.013771 -1.3017e-19)
(-2.96108 0.016875 -1.30186e-19)
(-3.62778 0.0154651 -1.30146e-19)
(-3.62358 0.0196336 -1.30141e-19)
(-4.39575 0.0427732 -1.30121e-19)
(-4.47508 0.0287791 -1.30091e-19)
(-1.46061 -0.0103229 0)
(2.52585 -0.0266356 -1.29816e-19)
(5.18444 -0.0122585 -1.29717e-19)
(6.67401 -0.00311096 -1.29705e-19)
(7.38155 0.000874212 -1.2974e-19)
(7.54411 0.00290939 -1.29816e-19)
(7.33195 0.00527682 -1.29906e-19)
(6.85045 0.00562298 0)
(6.20851 0.00736651 -1.30115e-19)
(5.4701 0.00749574 -0)
(4.70732 0.00888823 0)
(3.94286 0.00887299 0)
(3.21512 0.0100098 1.30435e-19)
(2.52762 0.00926138 0)
(1.92393 0.00944844 0)
(1.42873 0.0111382 0)
(0.299491 -0.00171522 -0)
(0.66667 0.00780207 0)
(0.306835 0.0128654 0)
(-1171.42 306.287 3.38579e-15)
(-0.385398 0.0118566 0)
(-0.675814 0.0107958 0)
(-0.961073 0.0113245 0)
(-1.19507 0.0125306 1.30469e-19)
(-1.38247 0.0135179 0)
(-1.58983 0.0179678 0)
(-1.62557 0.0183236 0)
(-1.75452 0.0235019 0)
(-1.8844 0.0246233 0)
(-1.55184 0.0289171 0)
(-2.14512 0.0332021 1.30278e-19)
(-2.01824 0.0262494 0)
(-0.241408 0.0150902 0)
(-0.455034 0.0349569 1.30259e-19)
(-3.896 0.0667125 0)
(-6.44345 0.0559281 1.30188e-19)
(-5.97718 0.0338866 0)
(-3.11398 0.0101124 0)
(-0.276579 -0.000934279 -1.29585e-19)
(0.437769 0.0182453 0)
(-0.886688 0.0583707 1.3022e-19)
(-2.3685 0.070468 0)
(-2.8311 0.0639341 0)
(-1.97622 0.0549242 0)
(-0.237051 0.0609417 0)
(1.7619 0.0656487 0)
(3.84659 0.0933937 1.30151e-19)
(4.98116 0.120447 0)
(6.29371 0.0985617 0)
(5.7367 0.0639333 1.54374e-17)
(4.51472 0.064991 2.69316e-17)
(-0.20352 0.0328435 0)
(-6.26383 0.0339496 0)
(-6.23144 0.00967788 0)
(-5.95158 0.0193066 0)
(-7.23334 0.0262156 0)
(-0.929675 -0.0148872 -4.69135e-17)
(7.0081 -0.0288228 0)
(7.69899 -0.0207564 -7.10741e-17)
(5.76976 -0.00756096 6.2065e-17)
(4.16125 0.00466352 0)
(0.809643 0.00435657 0)
(0.0956175 0.00561605 0)
(3.46667 0.00267113 1.43303e-16)
(5.23995 -0.0031743 -1.2488e-16)
(3.31534 0.000917433 -0)
(-2.62459 0.0261203 1.87498e-16)
(-10.6276 0.0786757 0)
(-6.64233 0.0315804 2.75935e-16)
(-12.6981 0.101181 0)
(-19.1657 0.272114 0)
(-12.4543 0.311231 0)
(-48.5142 0.751945 0)
(-67.3432 0.788867 0)
(-37.2937 0.0571119 5.49408e-16)
(-24.0539 -0.0703796 -4.81252e-16)
(-36.0141 0.164308 0)
(-62.0201 0.749626 7.56432e-16)
(-59.3214 1.22767 0)
(-85.0888 1.36861 0)
)
;
    }
    front
    {
        type            empty;
    }
    back
    {
        type            empty;
    }
}


// ************************************************************************* //
