0.0508 	905.602 	45.72 	1.03476 	0 	-6.18301e-06 	-0.000809233 	0 	7.99072e-06 	0 	-1.8077e-06
