/*--------------------------------*- C++ -*----------------------------------*\
| =========                 |                                                 |
| \\      /  F ield         | OpenFOAM: The Open Source CFD Toolbox           |
|  \\    /   O peration     | Version:  2306                                  |
|   \\  /    A nd           | Website:  www.openfoam.com                      |
|    \\/     M anipulation  |                                                 |
\*---------------------------------------------------------------------------*/
FoamFile
{
    version     2.0;
    format      ascii;
    arch        "LSB;label=32;scalar=64";
    class       volScalarField;
    location    "1800";
    object      cp;
}
// * * * * * * * * * * * * * * * * * * * * * * * * * * * * * * * * * * * * * //

dimensions      [0 0 0 0 0 0 0];

internalField   nonuniform List<scalar> 
20540
(
1.4255
0.0919466
1.42548
0.0230817
1.42545
-0.0167409
1.42542
-0.0300919
1.42537
-0.0352332
1.42531
-0.0390574
1.42522
-0.04236
1.42512
-0.0450745
1.42499
-0.0473173
1.42483
-0.0492368
1.42462
-0.0509237
1.42437
-0.0524264
1.42406
-0.0537727
1.42367
-0.0549788
1.4232
-0.0560516
1.42262
-0.0569892
1.42192
-0.0577805
1.42106
-0.0584041
1.42003
-0.0588259
1.41878
-0.0589957
1.41731
-0.0588431
1.41556
-0.0582712
1.41355
-0.0571515
1.41128
-0.0553192
1.40881
-0.0525712
1.40628
-0.0486702
1.40397
-0.0433544
1.40239
-0.0363944
1.40232
-0.0278655
1.40437
-0.0188
1.40772
-0.0122126
1.41004
-0.00890225
1.40991
-0.00929745
1.40744
-0.0133424
1.40419
-0.0205094
1.40235
-0.029723
1.40256
-0.0382938
1.40421
-0.0453266
1.40655
-0.0507647
1.40911
-0.0548175
1.41161
-0.0577273
1.41393
-0.0597192
1.41599
-0.0609895
1.41779
-0.0617007
1.41932
-0.0619814
1.42061
-0.06193
1.4217
-0.0616198
1.4226
-0.0611041
1.42335
-0.0604202
1.42396
-0.0595932
1.42447
-0.0586379
1.42489
-0.0575609
1.42523
-0.0563609
1.4255
-0.0550289
1.42573
-0.053547
1.42591
-0.0518863
1.42606
-0.0499977
1.42618
-0.0477901
1.42627
-0.0451159
1.42634
-0.0418613
1.4264
-0.0380829
1.42645
-0.0329262
1.42648
-0.0194356
1.42651
0.0203278
1.42653
0.088253
-0.0294361
-0.00277269
-0.0426482
-0.0340895
-0.0486217
-0.0500695
-0.056922
-0.0608682
-0.0655548
-0.0696053
-0.0735518
-0.0772517
-0.0807715
-0.0841111
-0.0872905
-0.0903155
-0.0932012
-0.0959525
-0.0985804
-0.101089
-0.103489
-0.105782
-0.107977
-0.110076
-0.112086
-0.114011
-0.115854
-0.117619
-0.11931
-0.12093
-0.122483
-0.123971
-0.125398
-0.126766
-0.128077
-0.129335
-0.130541
-0.1317
-0.132812
-0.13388
-0.134908
-0.135899
-0.136854
-0.137778
-0.138675
-0.139547
-0.140401
-0.14124
-0.142071
-0.142899
-0.143733
-0.144579
-0.145447
-0.146346
-0.147285
-0.148278
-0.149335
-0.150472
-0.151706
-0.153055
-0.154541
-0.156192
-0.158026
-0.159737
-0.161173
-0.162666
-0.164242
-0.165899
-0.167639
-0.169464
-0.17138
-0.173389
-0.1755
-0.177714
-0.180032
-0.182467
-0.185005
-0.187691
-0.190481
-0.193504
-0.196629
-0.200188
-0.203802
-0.208297
-0.212649
-0.219145
-0.224629
-0.240219
-0.029476
-0.00277255
-0.0426476
-0.0340891
-0.0486214
-0.0500692
-0.0569218
-0.060868
-0.0655547
-0.0696052
-0.0735517
-0.0772516
-0.0807714
-0.084111
-0.0872904
-0.0903154
-0.0932011
-0.0959524
-0.0985803
-0.101089
-0.103489
-0.105782
-0.107977
-0.110076
-0.112086
-0.114011
-0.115854
-0.117619
-0.11931
-0.12093
-0.122483
-0.123971
-0.125398
-0.126766
-0.128077
-0.129335
-0.130541
-0.1317
-0.132812
-0.13388
-0.134908
-0.135899
-0.136854
-0.137778
-0.138675
-0.139547
-0.140401
-0.14124
-0.142071
-0.142899
-0.143733
-0.144579
-0.145447
-0.146346
-0.147285
-0.148278
-0.149335
-0.150472
-0.151706
-0.153055
-0.154541
-0.156192
-0.158026
-0.159737
-0.161173
-0.162666
-0.164242
-0.165899
-0.167639
-0.169464
-0.17138
-0.17339
-0.1755
-0.177714
-0.180032
-0.182467
-0.185006
-0.187692
-0.190482
-0.193505
-0.196629
-0.200189
-0.203804
-0.208298
-0.212651
-0.219147
-0.224637
-0.239987
-0.0295504
-0.00277376
-0.0426469
-0.0340884
-0.0486209
-0.0500688
-0.0569214
-0.0608677
-0.0655544
-0.0696049
-0.0735514
-0.0772514
-0.0807712
-0.0841108
-0.0872903
-0.0903153
-0.093201
-0.0959523
-0.0985802
-0.101089
-0.103489
-0.105782
-0.107977
-0.110076
-0.112086
-0.11401
-0.115854
-0.117619
-0.11931
-0.12093
-0.122483
-0.123971
-0.125398
-0.126765
-0.128077
-0.129335
-0.130541
-0.131699
-0.132812
-0.13388
-0.134908
-0.135899
-0.136854
-0.137778
-0.138675
-0.139547
-0.140401
-0.14124
-0.142071
-0.142899
-0.143733
-0.144579
-0.145447
-0.146346
-0.147285
-0.148278
-0.149335
-0.150472
-0.151706
-0.153055
-0.154541
-0.156192
-0.158026
-0.159737
-0.161173
-0.162666
-0.164242
-0.1659
-0.16764
-0.169465
-0.17138
-0.17339
-0.1755
-0.177715
-0.180033
-0.182468
-0.185006
-0.187693
-0.190483
-0.193506
-0.196631
-0.200191
-0.203806
-0.2083
-0.212654
-0.219148
-0.224658
-0.239655
-0.0296603
-0.00277776
-0.0426466
-0.0340874
-0.04862
-0.050068
-0.0569208
-0.0608671
-0.0655539
-0.0696045
-0.073551
-0.0772511
-0.0807709
-0.0841105
-0.08729
-0.090315
-0.0932008
-0.095952
-0.09858
-0.101089
-0.103488
-0.105782
-0.107976
-0.110076
-0.112086
-0.11401
-0.115853
-0.117619
-0.11931
-0.12093
-0.122483
-0.123971
-0.125398
-0.126765
-0.128077
-0.129335
-0.130541
-0.131699
-0.132811
-0.13388
-0.134908
-0.135899
-0.136854
-0.137778
-0.138675
-0.139547
-0.140401
-0.14124
-0.142071
-0.142899
-0.143733
-0.144579
-0.145447
-0.146346
-0.147285
-0.148278
-0.149335
-0.150472
-0.151706
-0.153055
-0.154541
-0.156192
-0.158026
-0.159737
-0.161173
-0.162667
-0.164243
-0.1659
-0.16764
-0.169465
-0.171381
-0.173391
-0.175501
-0.177716
-0.180034
-0.18247
-0.185008
-0.187695
-0.190485
-0.193509
-0.196634
-0.200194
-0.20381
-0.208303
-0.21266
-0.219144
-0.224697
-0.239214
-0.0298175
-0.00278708
-0.0426474
-0.0340863
-0.0486188
-0.0500669
-0.0569198
-0.0608662
-0.0655531
-0.0696037
-0.0735504
-0.0772504
-0.0807703
-0.08411
-0.0872895
-0.0903145
-0.0932003
-0.0959516
-0.0985796
-0.101089
-0.103488
-0.105781
-0.107976
-0.110075
-0.112086
-0.11401
-0.115853
-0.117618
-0.119309
-0.12093
-0.122483
-0.123971
-0.125397
-0.126765
-0.128077
-0.129334
-0.130541
-0.131699
-0.132811
-0.13388
-0.134908
-0.135898
-0.136854
-0.137778
-0.138674
-0.139547
-0.140401
-0.14124
-0.14207
-0.142899
-0.143732
-0.144579
-0.145447
-0.146345
-0.147285
-0.148278
-0.149335
-0.150472
-0.151706
-0.153056
-0.154541
-0.156192
-0.158027
-0.159738
-0.161174
-0.162667
-0.164244
-0.165901
-0.167641
-0.169467
-0.171382
-0.173393
-0.175503
-0.177718
-0.180036
-0.182472
-0.185011
-0.187698
-0.190488
-0.193513
-0.196638
-0.200199
-0.203816
-0.208308
-0.212671
-0.219134
-0.224743
-0.238678
-0.0300341
-0.00280478
-0.0426506
-0.0340857
-0.0486177
-0.0500655
-0.0569185
-0.060865
-0.065552
-0.0696028
-0.0735495
-0.0772496
-0.0807696
-0.0841092
-0.0872888
-0.0903139
-0.0931997
-0.0959511
-0.0985791
-0.101088
-0.103488
-0.105781
-0.107976
-0.110075
-0.112085
-0.11401
-0.115853
-0.117618
-0.119309
-0.120929
-0.122482
-0.123971
-0.125397
-0.126765
-0.128076
-0.129334
-0.130541
-0.131699
-0.132811
-0.13388
-0.134908
-0.135898
-0.136854
-0.137778
-0.138674
-0.139547
-0.1404
-0.14124
-0.14207
-0.142899
-0.143732
-0.144579
-0.145446
-0.146345
-0.147285
-0.148278
-0.149335
-0.150472
-0.151706
-0.153056
-0.154541
-0.156193
-0.158027
-0.159739
-0.161175
-0.162668
-0.164245
-0.165902
-0.167643
-0.169468
-0.171384
-0.173395
-0.175505
-0.17772
-0.180039
-0.182475
-0.185014
-0.187702
-0.190492
-0.193518
-0.196644
-0.200205
-0.203823
-0.208312
-0.212683
-0.219113
-0.224792
-0.238006
-0.030322
-0.00283361
-0.0426576
-0.0340863
-0.0486169
-0.0500641
-0.0569171
-0.0608636
-0.0655507
-0.0696015
-0.0735483
-0.0772485
-0.0807686
-0.0841083
-0.0872879
-0.0903131
-0.0931989
-0.0959503
-0.0985783
-0.101087
-0.103487
-0.10578
-0.107975
-0.110074
-0.112085
-0.114009
-0.115852
-0.117617
-0.119309
-0.120929
-0.122482
-0.12397
-0.125397
-0.126764
-0.128076
-0.129334
-0.13054
-0.131698
-0.132811
-0.133879
-0.134907
-0.135898
-0.136853
-0.137777
-0.138674
-0.139547
-0.1404
-0.141239
-0.14207
-0.142898
-0.143732
-0.144578
-0.145446
-0.146345
-0.147285
-0.148277
-0.149335
-0.150472
-0.151706
-0.153056
-0.154542
-0.156193
-0.158028
-0.159739
-0.161175
-0.162669
-0.164246
-0.165904
-0.167644
-0.16947
-0.171386
-0.173397
-0.175508
-0.177723
-0.180042
-0.182479
-0.185018
-0.187706
-0.190497
-0.193524
-0.196649
-0.200211
-0.203831
-0.208314
-0.212696
-0.219076
-0.224836
-0.237182
-0.030696
-0.00287612
-0.0426698
-0.0340887
-0.0486169
-0.0500629
-0.0569157
-0.0608621
-0.0655492
-0.0696001
-0.073547
-0.0772472
-0.0807673
-0.0841071
-0.0872868
-0.090312
-0.0931979
-0.0959494
-0.0985774
-0.101087
-0.103486
-0.10578
-0.107974
-0.110074
-0.112084
-0.114008
-0.115852
-0.117617
-0.119308
-0.120928
-0.122481
-0.123969
-0.125396
-0.126764
-0.128075
-0.129333
-0.13054
-0.131698
-0.13281
-0.133879
-0.134907
-0.135897
-0.136853
-0.137777
-0.138673
-0.139546
-0.1404
-0.141239
-0.14207
-0.142898
-0.143732
-0.144578
-0.145446
-0.146345
-0.147285
-0.148277
-0.149335
-0.150472
-0.151706
-0.153056
-0.154542
-0.156193
-0.158028
-0.15974
-0.161176
-0.16267
-0.164247
-0.165905
-0.167646
-0.169472
-0.171388
-0.173399
-0.175511
-0.177726
-0.180046
-0.182483
-0.185022
-0.187711
-0.190502
-0.193529
-0.196655
-0.200216
-0.203839
-0.208312
-0.212709
-0.219016
-0.224863
-0.236225
-0.0311751
-0.00293523
-0.0426889
-0.0340937
-0.0486182
-0.0500623
-0.0569144
-0.0608606
-0.0655476
-0.0695985
-0.0735454
-0.0772457
-0.0807659
-0.0841058
-0.0872855
-0.0903108
-0.0931967
-0.0959482
-0.0985763
-0.101085
-0.103485
-0.105779
-0.107973
-0.110073
-0.112083
-0.114008
-0.115851
-0.117616
-0.119307
-0.120928
-0.12248
-0.123969
-0.125395
-0.126763
-0.128075
-0.129332
-0.130539
-0.131697
-0.132809
-0.133878
-0.134906
-0.135897
-0.136852
-0.137776
-0.138673
-0.139546
-0.140399
-0.141238
-0.142069
-0.142898
-0.143731
-0.144578
-0.145446
-0.146345
-0.147284
-0.148277
-0.149335
-0.150472
-0.151706
-0.153056
-0.154542
-0.156194
-0.158029
-0.159741
-0.161177
-0.162671
-0.164249
-0.165907
-0.167648
-0.169474
-0.171391
-0.173402
-0.175513
-0.177729
-0.180049
-0.182486
-0.185026
-0.187715
-0.190506
-0.193534
-0.196661
-0.20022
-0.203845
-0.208304
-0.212719
-0.218927
-0.224848
-0.235167
-0.0317829
-0.00301464
-0.0427165
-0.0341021
-0.0486213
-0.0500624
-0.0569137
-0.0608592
-0.0655461
-0.0695968
-0.0735437
-0.077244
-0.0807642
-0.0841042
-0.087284
-0.0903093
-0.0931953
-0.0959468
-0.098575
-0.101084
-0.103484
-0.105777
-0.107972
-0.110072
-0.112082
-0.114007
-0.11585
-0.117615
-0.119306
-0.120927
-0.12248
-0.123968
-0.125395
-0.126762
-0.128074
-0.129332
-0.130538
-0.131697
-0.132809
-0.133877
-0.134906
-0.135896
-0.136852
-0.137776
-0.138672
-0.139545
-0.140398
-0.141238
-0.142068
-0.142897
-0.143731
-0.144577
-0.145445
-0.146344
-0.147284
-0.148277
-0.149334
-0.150472
-0.151706
-0.153056
-0.154542
-0.156194
-0.158029
-0.159741
-0.161178
-0.162672
-0.16425
-0.165908
-0.167649
-0.169476
-0.171393
-0.173404
-0.175516
-0.177732
-0.180052
-0.182489
-0.185029
-0.187718
-0.190509
-0.193537
-0.196664
-0.20022
-0.203848
-0.208286
-0.212721
-0.218803
-0.224762
-0.234038
-0.0325475
-0.00311911
-0.0427545
-0.0341151
-0.048627
-0.0500639
-0.0569137
-0.0608582
-0.0655447
-0.0695952
-0.0735419
-0.0772423
-0.0807625
-0.0841024
-0.0872822
-0.0903076
-0.0931937
-0.0959453
-0.0985735
-0.101083
-0.103482
-0.105776
-0.107971
-0.11007
-0.112081
-0.114005
-0.115848
-0.117614
-0.119305
-0.120925
-0.122478
-0.123967
-0.125393
-0.126761
-0.128073
-0.129331
-0.130537
-0.131696
-0.132808
-0.133877
-0.134905
-0.135895
-0.136851
-0.137775
-0.138671
-0.139544
-0.140398
-0.141237
-0.142068
-0.142896
-0.14373
-0.144576
-0.145444
-0.146343
-0.147283
-0.148276
-0.149334
-0.150472
-0.151706
-0.153056
-0.154542
-0.156194
-0.15803
-0.159742
-0.161179
-0.162673
-0.16425
-0.165909
-0.16765
-0.169477
-0.171394
-0.173405
-0.175517
-0.177734
-0.180053
-0.182491
-0.18503
-0.187719
-0.19051
-0.193537
-0.196663
-0.200214
-0.203844
-0.208253
-0.212704
-0.218635
-0.22457
-0.232865
-0.0335023
-0.0032546
-0.0428055
-0.0341336
-0.048636
-0.0500671
-0.0569148
-0.060858
-0.0655437
-0.0695938
-0.0735403
-0.0772405
-0.0807607
-0.0841006
-0.0872804
-0.0903058
-0.0931919
-0.0959435
-0.0985717
-0.101081
-0.103481
-0.105774
-0.107969
-0.110069
-0.112079
-0.114004
-0.115847
-0.117612
-0.119304
-0.120924
-0.122477
-0.123965
-0.125392
-0.12676
-0.128071
-0.129329
-0.130536
-0.131694
-0.132807
-0.133875
-0.134904
-0.135894
-0.13685
-0.137774
-0.13867
-0.139543
-0.140396
-0.141236
-0.142067
-0.142895
-0.143729
-0.144575
-0.145443
-0.146343
-0.147283
-0.148275
-0.149333
-0.150471
-0.151705
-0.153056
-0.154542
-0.156194
-0.158029
-0.159741
-0.161178
-0.162673
-0.16425
-0.165909
-0.16765
-0.169477
-0.171394
-0.173405
-0.175517
-0.177733
-0.180052
-0.182489
-0.185027
-0.187716
-0.190505
-0.19353
-0.196656
-0.200198
-0.203829
-0.208199
-0.212655
-0.218414
-0.224237
-0.231661
-0.0346864
-0.00342849
-0.0428721
-0.034159
-0.048649
-0.0500726
-0.0569174
-0.0608586
-0.0655434
-0.0695929
-0.0735391
-0.077239
-0.080759
-0.0840988
-0.0872785
-0.0903039
-0.09319
-0.0959416
-0.0985699
-0.101079
-0.103479
-0.105773
-0.107967
-0.110067
-0.112078
-0.114002
-0.115845
-0.117611
-0.119302
-0.120923
-0.122476
-0.123964
-0.125391
-0.126758
-0.12807
-0.129328
-0.130535
-0.131693
-0.132805
-0.133874
-0.134902
-0.135893
-0.136848
-0.137773
-0.138669
-0.139542
-0.140395
-0.141235
-0.142065
-0.142894
-0.143728
-0.144574
-0.145442
-0.146342
-0.147282
-0.148274
-0.149332
-0.15047
-0.151704
-0.153055
-0.154541
-0.156193
-0.158028
-0.15974
-0.161177
-0.162672
-0.164249
-0.165907
-0.167648
-0.169474
-0.171391
-0.173402
-0.175513
-0.177729
-0.180046
-0.182482
-0.185018
-0.187705
-0.190492
-0.193514
-0.196636
-0.200165
-0.203793
-0.208116
-0.212554
-0.218125
-0.223731
-0.230419
-0.0361443
-0.0036499
-0.0429579
-0.0341928
-0.048667
-0.0500809
-0.056922
-0.0608606
-0.0655441
-0.0695927
-0.0735383
-0.0772379
-0.0807576
-0.0840972
-0.0872769
-0.0903021
-0.0931882
-0.0959398
-0.098568
-0.101077
-0.103477
-0.105771
-0.107966
-0.110065
-0.112076
-0.114
-0.115844
-0.117609
-0.1193
-0.120921
-0.122474
-0.123962
-0.125389
-0.126757
-0.128068
-0.129326
-0.130533
-0.131691
-0.132804
-0.133873
-0.134901
-0.135891
-0.136847
-0.137771
-0.138668
-0.13954
-0.140394
-0.141233
-0.142064
-0.142893
-0.143726
-0.144573
-0.145441
-0.14634
-0.14728
-0.148273
-0.149331
-0.150468
-0.151702
-0.153053
-0.154539
-0.156191
-0.158026
-0.159737
-0.161174
-0.162668
-0.164245
-0.165903
-0.167643
-0.169469
-0.171385
-0.173395
-0.175505
-0.177718
-0.180034
-0.182467
-0.185
-0.187684
-0.190467
-0.193482
-0.196599
-0.200108
-0.203725
-0.207987
-0.212374
-0.217741
-0.22303
-0.229113
-0.0379251
-0.00392993
-0.0430669
-0.0342368
-0.0486911
-0.0500927
-0.056929
-0.0608643
-0.065546
-0.0695934
-0.0735383
-0.0772374
-0.0807567
-0.0840961
-0.0872755
-0.0903007
-0.0931866
-0.0959381
-0.0985663
-0.101075
-0.103475
-0.105769
-0.107964
-0.110063
-0.112074
-0.113998
-0.115842
-0.117607
-0.119299
-0.120919
-0.122472
-0.12396
-0.125387
-0.126755
-0.128067
-0.129325
-0.130531
-0.13169
-0.132802
-0.133871
-0.134899
-0.135889
-0.136845
-0.137769
-0.138666
-0.139539
-0.140392
-0.141232
-0.142062
-0.142891
-0.143725
-0.144571
-0.145439
-0.146338
-0.147278
-0.148271
-0.149329
-0.150466
-0.1517
-0.15305
-0.154536
-0.156187
-0.158022
-0.159732
-0.161168
-0.162662
-0.164238
-0.165894
-0.167634
-0.169458
-0.171373
-0.173381
-0.175488
-0.177699
-0.18001
-0.18244
-0.184968
-0.187646
-0.190422
-0.193425
-0.196533
-0.200014
-0.203607
-0.207794
-0.212087
-0.217226
-0.222122
-0.22769
-0.0400807
-0.00428202
-0.0432038
-0.0342932
-0.0487223
-0.0501087
-0.0569389
-0.06087
-0.0655495
-0.0695954
-0.0735393
-0.0772377
-0.0807566
-0.0840956
-0.0872748
-0.0902997
-0.0931855
-0.0959368
-0.0985649
-0.101074
-0.103474
-0.105767
-0.107962
-0.110062
-0.112072
-0.113997
-0.11584
-0.117605
-0.119297
-0.120917
-0.12247
-0.123959
-0.125385
-0.126753
-0.128065
-0.129323
-0.13053
-0.131688
-0.1328
-0.133869
-0.134897
-0.135888
-0.136843
-0.137768
-0.138664
-0.139537
-0.14039
-0.14123
-0.14206
-0.142889
-0.143723
-0.144569
-0.145437
-0.146336
-0.147276
-0.148268
-0.149325
-0.150463
-0.151696
-0.153045
-0.154531
-0.156181
-0.158014
-0.159723
-0.161158
-0.162651
-0.164225
-0.16588
-0.167618
-0.16944
-0.171352
-0.173357
-0.17546
-0.177666
-0.179971
-0.182394
-0.184914
-0.187581
-0.190348
-0.193333
-0.196424
-0.199864
-0.203415
-0.207502
-0.211656
-0.216529
-0.220997
-0.226089
-0.042662
-0.00472218
-0.0433741
-0.0343642
-0.048762
-0.0501298
-0.0569522
-0.0608782
-0.065555
-0.069599
-0.0735417
-0.0772392
-0.0807575
-0.0840961
-0.0872748
-0.0902995
-0.093185
-0.0959361
-0.0985641
-0.101073
-0.103473
-0.105766
-0.107961
-0.11006
-0.112071
-0.113995
-0.115838
-0.117604
-0.119295
-0.120916
-0.122469
-0.123957
-0.125384
-0.126752
-0.128063
-0.129321
-0.130528
-0.131686
-0.132798
-0.133867
-0.134895
-0.135886
-0.136841
-0.137766
-0.138662
-0.139535
-0.140388
-0.141228
-0.142058
-0.142887
-0.14372
-0.144567
-0.145434
-0.146333
-0.147272
-0.148264
-0.149321
-0.150458
-0.15169
-0.153039
-0.154523
-0.156171
-0.158003
-0.159708
-0.161142
-0.162633
-0.164204
-0.165857
-0.167591
-0.169409
-0.171317
-0.173317
-0.175413
-0.177612
-0.179908
-0.18232
-0.184828
-0.187479
-0.190229
-0.193186
-0.196249
-0.199631
-0.203118
-0.207071
-0.211041
-0.215597
-0.219638
-0.224251
-0.0457125
-0.0052692
-0.0435839
-0.0344527
-0.0488114
-0.0501567
-0.0569696
-0.0608895
-0.0655627
-0.0696045
-0.0735457
-0.0772421
-0.0807596
-0.0840976
-0.0872759
-0.0903002
-0.0931855
-0.0959363
-0.0985641
-0.101073
-0.103472
-0.105766
-0.10796
-0.11006
-0.11207
-0.113994
-0.115837
-0.117603
-0.119294
-0.120914
-0.122467
-0.123956
-0.125382
-0.12675
-0.128062
-0.12932
-0.130526
-0.131685
-0.132797
-0.133866
-0.134894
-0.135884
-0.13684
-0.137764
-0.13866
-0.139533
-0.140386
-0.141226
-0.142056
-0.142885
-0.143718
-0.144564
-0.145431
-0.146329
-0.147268
-0.148259
-0.149315
-0.150451
-0.151682
-0.153029
-0.154511
-0.156157
-0.157985
-0.159686
-0.161117
-0.162605
-0.164173
-0.16582
-0.16755
-0.169362
-0.171263
-0.173255
-0.175341
-0.177528
-0.179811
-0.182205
-0.184694
-0.187321
-0.190044
-0.192959
-0.195979
-0.199278
-0.202671
-0.206444
-0.210192
-0.214376
-0.218014
-0.222132
-0.0492586
-0.00594453
-0.04384
-0.0345614
-0.048872
-0.0501906
-0.0569916
-0.0609042
-0.0655732
-0.0696122
-0.0735516
-0.0772468
-0.0807633
-0.0841006
-0.0872784
-0.0903023
-0.0931871
-0.0959377
-0.0985651
-0.101074
-0.103473
-0.105766
-0.107961
-0.11006
-0.11207
-0.113994
-0.115837
-0.117602
-0.119294
-0.120914
-0.122467
-0.123955
-0.125382
-0.126749
-0.128061
-0.129319
-0.130526
-0.131684
-0.132796
-0.133865
-0.134893
-0.135883
-0.136839
-0.137763
-0.138659
-0.139532
-0.140385
-0.141224
-0.142054
-0.142882
-0.143715
-0.14456
-0.145427
-0.146325
-0.147262
-0.148253
-0.149307
-0.150441
-0.15167
-0.153014
-0.154493
-0.156135
-0.157958
-0.159653
-0.161079
-0.162563
-0.164124
-0.165765
-0.167486
-0.16929
-0.17118
-0.17316
-0.175231
-0.1774
-0.179662
-0.182031
-0.184492
-0.18708
-0.189765
-0.192617
-0.195572
-0.198754
-0.202018
-0.205561
-0.209049
-0.212818
-0.216076
-0.219694
-0.0532956
-0.00677173
-0.0441492
-0.0346935
-0.0489447
-0.0502322
-0.0570187
-0.0609229
-0.0655867
-0.0696226
-0.0735597
-0.0772535
-0.0807689
-0.0841054
-0.0872824
-0.0903058
-0.0931902
-0.0959404
-0.0985676
-0.101076
-0.103475
-0.105768
-0.107962
-0.110061
-0.112071
-0.113995
-0.115838
-0.117603
-0.119294
-0.120915
-0.122467
-0.123955
-0.125382
-0.12675
-0.128061
-0.129319
-0.130525
-0.131684
-0.132796
-0.133864
-0.134892
-0.135883
-0.136838
-0.137762
-0.138658
-0.139531
-0.140384
-0.141222
-0.142052
-0.14288
-0.143712
-0.144557
-0.145422
-0.146319
-0.147255
-0.148244
-0.149296
-0.150427
-0.151653
-0.152994
-0.154467
-0.156103
-0.157918
-0.159604
-0.161023
-0.1625
-0.164052
-0.165682
-0.167391
-0.169181
-0.171055
-0.173016
-0.175065
-0.177208
-0.179439
-0.18177
-0.18419
-0.186723
-0.189348
-0.192112
-0.19497
-0.197997
-0.201087
-0.204353
-0.207545
-0.210879
-0.213772
-0.216905
-0.0577693
-0.0077746
-0.0445188
-0.0348519
-0.0490306
-0.0502825
-0.0570513
-0.060946
-0.0656037
-0.069636
-0.0735705
-0.0772625
-0.0807766
-0.0841122
-0.0872884
-0.0903112
-0.0931951
-0.0959449
-0.0985717
-0.10108
-0.103478
-0.105771
-0.107965
-0.110064
-0.112074
-0.113998
-0.11584
-0.117605
-0.119296
-0.120916
-0.122469
-0.123957
-0.125383
-0.126751
-0.128062
-0.12932
-0.130527
-0.131685
-0.132797
-0.133865
-0.134893
-0.135883
-0.136838
-0.137762
-0.138658
-0.13953
-0.140383
-0.141221
-0.14205
-0.142877
-0.143709
-0.144552
-0.145417
-0.146311
-0.147245
-0.148231
-0.14928
-0.150408
-0.151629
-0.152963
-0.15443
-0.156056
-0.157859
-0.159532
-0.16094
-0.162407
-0.163944
-0.165559
-0.16725
-0.16902
-0.17087
-0.172803
-0.174819
-0.176923
-0.179109
-0.181386
-0.183744
-0.186199
-0.188736
-0.191379
-0.194099
-0.196929
-0.199797
-0.202746
-0.205611
-0.208509
-0.211047
-0.213726
-0.0625547
-0.00897322
-0.0449553
-0.0350393
-0.0491299
-0.0503421
-0.0570896
-0.0609741
-0.0656243
-0.0696528
-0.0735842
-0.0772743
-0.0807868
-0.0841213
-0.0872967
-0.0903187
-0.0932021
-0.0959513
-0.0985777
-0.101085
-0.103484
-0.105776
-0.10797
-0.110069
-0.112078
-0.114002
-0.115844
-0.117609
-0.1193
-0.12092
-0.122472
-0.12396
-0.125387
-0.126754
-0.128065
-0.129323
-0.130529
-0.131687
-0.132799
-0.133867
-0.134895
-0.135885
-0.13684
-0.137763
-0.138659
-0.139531
-0.140383
-0.14122
-0.142049
-0.142875
-0.143705
-0.144547
-0.145409
-0.146301
-0.147232
-0.148213
-0.149258
-0.150379
-0.151593
-0.152919
-0.154374
-0.155987
-0.157772
-0.159427
-0.160819
-0.162269
-0.163786
-0.165377
-0.167042
-0.168781
-0.170596
-0.172488
-0.174457
-0.176504
-0.178626
-0.180825
-0.183095
-0.185441
-0.187852
-0.190336
-0.192871
-0.19546
-0.198057
-0.200663
-0.203177
-0.205652
-0.207844
-0.210105
-0.0674351
-0.0103782
-0.0454637
-0.0352575
-0.0492418
-0.0504116
-0.0571335
-0.0610073
-0.0656489
-0.0696732
-0.0736011
-0.077289
-0.0807999
-0.0841331
-0.0873074
-0.0903287
-0.0932114
-0.0959601
-0.098586
-0.101093
-0.103491
-0.105783
-0.107977
-0.110075
-0.112084
-0.114008
-0.11585
-0.117615
-0.119305
-0.120925
-0.122477
-0.123965
-0.125391
-0.126759
-0.12807
-0.129327
-0.130533
-0.131691
-0.132803
-0.133871
-0.134899
-0.135888
-0.136843
-0.137766
-0.138661
-0.139532
-0.140383
-0.14122
-0.142047
-0.142872
-0.1437
-0.144539
-0.145398
-0.146286
-0.147212
-0.148188
-0.149225
-0.150338
-0.151541
-0.152853
-0.154293
-0.155885
-0.157644
-0.159272
-0.16064
-0.162065
-0.163553
-0.16511
-0.166736
-0.168431
-0.170194
-0.172027
-0.173927
-0.175894
-0.177924
-0.180015
-0.182161
-0.184361
-0.186602
-0.188882
-0.191182
-0.193491
-0.195775
-0.198022
-0.200172
-0.202244
-0.204098
-0.205968
-0.0720903
-0.0119829
-0.0460443
-0.0355072
-0.0493644
-0.0504908
-0.0571823
-0.0610458
-0.0656773
-0.0696973
-0.0736214
-0.077307
-0.0808159
-0.0841477
-0.087321
-0.0903414
-0.0932233
-0.0959713
-0.0985967
-0.101104
-0.103501
-0.105793
-0.107986
-0.110084
-0.112093
-0.114016
-0.115858
-0.117623
-0.119313
-0.120933
-0.122485
-0.123972
-0.125398
-0.126765
-0.128076
-0.129333
-0.13054
-0.131697
-0.132809
-0.133877
-0.134904
-0.135893
-0.136847
-0.13777
-0.138664
-0.139534
-0.140385
-0.14122
-0.142045
-0.142867
-0.143692
-0.144528
-0.145382
-0.146264
-0.147183
-0.14815
-0.149177
-0.150276
-0.151463
-0.152756
-0.154172
-0.155734
-0.157456
-0.159044
-0.160379
-0.161766
-0.163211
-0.164718
-0.166287
-0.167918
-0.169608
-0.171356
-0.17316
-0.175015
-0.176918
-0.178864
-0.180844
-0.182851
-0.184875
-0.186905
-0.188924
-0.190917
-0.192862
-0.19474
-0.196521
-0.198208
-0.19973
-0.20123
-0.0761034
-0.013753
-0.0466881
-0.0357867
-0.0494935
-0.050579
-0.0572346
-0.0610892
-0.0657093
-0.0697253
-0.073645
-0.0773282
-0.0808351
-0.0841655
-0.0873375
-0.0903569
-0.0932381
-0.0959854
-0.0986102
-0.101116
-0.103513
-0.105805
-0.107997
-0.110095
-0.112104
-0.114027
-0.115869
-0.117633
-0.119323
-0.120942
-0.122494
-0.123982
-0.125407
-0.126774
-0.128085
-0.129342
-0.130548
-0.131705
-0.132816
-0.133884
-0.134911
-0.1359
-0.136853
-0.137775
-0.138668
-0.139537
-0.140386
-0.141219
-0.142042
-0.14286
-0.143681
-0.144511
-0.145358
-0.146232
-0.14714
-0.148094
-0.149105
-0.150185
-0.151349
-0.152613
-0.153993
-0.155512
-0.157179
-0.158712
-0.159997
-0.16133
-0.162712
-0.164148
-0.165637
-0.167176
-0.168763
-0.170394
-0.172064
-0.173769
-0.175503
-0.177257
-0.179023
-0.180791
-0.18255
-0.184287
-0.185989
-0.187641
-0.189229
-0.19074
-0.192157
-0.193478
-0.194674
-0.195826
-0.0789984
-0.0156151
-0.0473699
-0.036091
-0.0496222
-0.0506746
-0.0572884
-0.061137
-0.0657442
-0.0697568
-0.0736718
-0.0773527
-0.0808575
-0.0841863
-0.087357
-0.0903754
-0.0932557
-0.0960022
-0.0986263
-0.101132
-0.103529
-0.105819
-0.108012
-0.110109
-0.112117
-0.11404
-0.115882
-0.117645
-0.119335
-0.120954
-0.122506
-0.123993
-0.125419
-0.126785
-0.128096
-0.129353
-0.130558
-0.131715
-0.132826
-0.133893
-0.13492
-0.135908
-0.136861
-0.137781
-0.138673
-0.13954
-0.140386
-0.141216
-0.142035
-0.142848
-0.143662
-0.144484
-0.145321
-0.146182
-0.147075
-0.14801
-0.148998
-0.15005
-0.15118
-0.152402
-0.153731
-0.155186
-0.156776
-0.158231
-0.159445
-0.160699
-0.161993
-0.163329
-0.164705
-0.166118
-0.167564
-0.169036
-0.17053
-0.172039
-0.173555
-0.175069
-0.176573
-0.178056
-0.179509
-0.18092
-0.182277
-0.183569
-0.184789
-0.185931
-0.186981
-0.187943
-0.18881
-0.189633
-0.0803311
-0.0174456
-0.0480385
-0.0364104
-0.04974
-0.0507748
-0.0573403
-0.0611879
-0.0657807
-0.0697912
-0.0737014
-0.07738
-0.0808827
-0.0842099
-0.0873793
-0.0903966
-0.0932759
-0.0960217
-0.0986451
-0.10115
-0.103546
-0.105836
-0.108028
-0.110125
-0.112133
-0.114055
-0.115897
-0.11766
-0.11935
-0.120969
-0.12252
-0.124007
-0.125432
-0.126798
-0.128109
-0.129365
-0.13057
-0.131727
-0.132838
-0.133904
-0.13493
-0.135917
-0.136869
-0.137788
-0.138677
-0.139542
-0.140384
-0.141209
-0.142022
-0.142828
-0.143633
-0.144443
-0.145266
-0.146108
-0.146979
-0.147886
-0.14884
-0.149852
-0.150932
-0.152094
-0.15335
-0.154716
-0.156197
-0.15754
-0.158655
-0.1598
-0.160971
-0.162171
-0.163395
-0.164639
-0.165898
-0.167166
-0.168435
-0.169698
-0.170948
-0.172177
-0.173374
-0.174531
-0.175639
-0.176693
-0.177685
-0.178608
-0.179459
-0.180237
-0.180942
-0.181579
-0.18215
-0.182676
-0.0798348
-0.0190623
-0.0486089
-0.036729
-0.0498326
-0.0508753
-0.0573861
-0.06124
-0.0658172
-0.0698271
-0.0737325
-0.0774094
-0.0809099
-0.0842356
-0.0874038
-0.09042
-0.0932984
-0.0960433
-0.098666
-0.10117
-0.103566
-0.105855
-0.108047
-0.110143
-0.112151
-0.114073
-0.115914
-0.117677
-0.119366
-0.120985
-0.122536
-0.124022
-0.125447
-0.126813
-0.128123
-0.129379
-0.130584
-0.13174
-0.13285
-0.133916
-0.134941
-0.135927
-0.136876
-0.137793
-0.13868
-0.13954
-0.140378
-0.141196
-0.142001
-0.142796
-0.143587
-0.14438
-0.145181
-0.145998
-0.146836
-0.147704
-0.148611
-0.149565
-0.150575
-0.151652
-0.152805
-0.154046
-0.155376
-0.156568
-0.157548
-0.158544
-0.159552
-0.160571
-0.161598
-0.162626
-0.16365
-0.164664
-0.16566
-0.166632
-0.167569
-0.168469
-0.169326
-0.170133
-0.170883
-0.171573
-0.172203
-0.172773
-0.173284
-0.173737
-0.174133
-0.174475
-0.174766
-0.175013
-0.0775778
-0.0202385
-0.0489783
-0.0370195
-0.0498865
-0.0509694
-0.0574215
-0.0612898
-0.0658512
-0.0698626
-0.0737635
-0.077439
-0.0809378
-0.0842621
-0.0874291
-0.0904443
-0.0933218
-0.0960658
-0.0986879
-0.101192
-0.103586
-0.105876
-0.108067
-0.110163
-0.11217
-0.114091
-0.115932
-0.117694
-0.119383
-0.121002
-0.122552
-0.124039
-0.125463
-0.126829
-0.128139
-0.129394
-0.130599
-0.131754
-0.132863
-0.133928
-0.134952
-0.135936
-0.136883
-0.137797
-0.138679
-0.139534
-0.140364
-0.141173
-0.141966
-0.142745
-0.143517
-0.144286
-0.145058
-0.145837
-0.14663
-0.147443
-0.148283
-0.149156
-0.150069
-0.151029
-0.152042
-0.153113
-0.15424
-0.155232
-0.156036
-0.156838
-0.157637
-0.15843
-0.159212
-0.159977
-0.160721
-0.161437
-0.162119
-0.162766
-0.16337
-0.163924
-0.164427
-0.164878
-0.165278
-0.165627
-0.165926
-0.166175
-0.166377
-0.166533
-0.166644
-0.166713
-0.166742
-0.166728
-0.0739711
-0.0208013
-0.0491097
-0.0372352
-0.049907
-0.0510442
-0.0574461
-0.0613321
-0.0658803
-0.0698942
-0.0737916
-0.0774663
-0.0809636
-0.0842869
-0.087453
-0.0904672
-0.093344
-0.0960873
-0.0987088
-0.101212
-0.103606
-0.105895
-0.108085
-0.110181
-0.112188
-0.114109
-0.115949
-0.117711
-0.1194
-0.121018
-0.122569
-0.124055
-0.125479
-0.126844
-0.128154
-0.129409
-0.130613
-0.131767
-0.132875
-0.133939
-0.13496
-0.135942
-0.136886
-0.137795
-0.138672
-0.139519
-0.140339
-0.141135
-0.141911
-0.142669
-0.143414
-0.14415
-0.14488
-0.145608
-0.146339
-0.147077
-0.147826
-0.14859
-0.149372
-0.150176
-0.151002
-0.151852
-0.152719
-0.153457
-0.154039
-0.154604
-0.155149
-0.155672
-0.156169
-0.156635
-0.157067
-0.15746
-0.15781
-0.158113
-0.15837
-0.158582
-0.158747
-0.158868
-0.158945
-0.158981
-0.158978
-0.158937
-0.158859
-0.158746
-0.1586
-0.158423
-0.158216
-0.157975
-0.0701866
-0.0208016
-0.0491161
-0.0373098
-0.0499272
-0.0510776
-0.0574637
-0.0613569
-0.0659
-0.0699152
-0.073811
-0.0774851
-0.0809817
-0.0843042
-0.0874697
-0.0904833
-0.0933597
-0.0961023
-0.0987235
-0.101226
-0.10362
-0.105908
-0.108099
-0.110194
-0.112201
-0.114121
-0.115961
-0.117723
-0.119412
-0.12103
-0.12258
-0.124066
-0.12549
-0.126855
-0.128164
-0.129419
-0.130622
-0.131776
-0.132883
-0.133945
-0.134964
-0.135943
-0.136883
-0.137787
-0.138656
-0.139494
-0.140302
-0.141083
-0.141839
-0.142572
-0.143285
-0.143981
-0.144662
-0.145331
-0.145989
-0.146639
-0.147283
-0.147921
-0.148554
-0.149181
-0.1498
-0.150409
-0.150996
-0.151467
-0.151821
-0.152145
-0.152438
-0.152699
-0.152926
-0.153114
-0.15326
-0.153362
-0.15342
-0.153434
-0.153407
-0.153338
-0.153231
-0.153088
-0.152911
-0.152702
-0.152463
-0.152196
-0.151903
-0.151586
-0.151246
-0.150885
-0.150508
-0.150106
-0.0677282
-0.0206597
-0.0490458
-0.0373023
-0.0499284
-0.0510812
-0.0574684
-0.0613642
-0.0659073
-0.0699232
-0.073819
-0.077493
-0.0809896
-0.0843118
-0.0874773
-0.0904905
-0.0933669
-0.0961092
-0.0987304
-0.101233
-0.103627
-0.105915
-0.108105
-0.1102
-0.112207
-0.114127
-0.115967
-0.117729
-0.119418
-0.121035
-0.122585