/*--------------------------------*- C++ -*----------------------------------*\
| =========                 |                                                 |
| \\      /  F ield         | OpenFOAM: The Open Source CFD Toolbox           |
|  \\    /   O peration     | Version:  2306                                  |
|   \\  /    A nd           | Website:  www.openfoam.com                      |
|    \\/     M anipulation  |                                                 |
\*---------------------------------------------------------------------------*/
FoamFile
{
    version     2.0;
    format      ascii;
    arch        "LSB;label=32;scalar=64";
    class       volScalarField;
    location    "1800";
    object      k;
}
// * * * * * * * * * * * * * * * * * * * * * * * * * * * * * * * * * * * * * //

dimensions      [0 2 -2 0 0 0 0];

internalField   nonuniform List<scalar> 
20540
(
486.19
793.924
486.161
793.896
486.049
793.794
485.843
793.604
485.525
793.311
485.069
792.892
484.448
792.319
483.627
791.562
482.562
790.578
481.201
789.321
479.481
787.729
477.324
785.73
474.635
783.232
471.297
780.123
467.169
776.266
462.075
771.489
455.805
765.579
448.1
758.271
438.65
749.238
427.085
738.07
412.972
724.264
395.808
707.2
375.039
686.127
350.072
660.144
320.324
628.203
285.293
589.121
244.681
541.62
198.59
484.389
147.9
416.133
95.4646
335.593
56.0977
254.693
34.2753
204.723
35.5499
207.541
59.2357
261.432
99.3673
342.445
151.157
420.125
200.896
486.202
246.145
541.726
286.113
587.878
320.701
625.888
350.179
656.972
375.008
682.264
395.738
702.776
412.929
719.381
427.115
732.814
438.78
743.68
448.346
752.473
456.175
759.593
462.574
765.36
467.795
770.033
472.049
773.818
475.509
776.881
478.316
779.357
480.585
781.352
482.413
782.953
483.875
784.233
485.037
785.246
485.949
786.042
486.656
786.657
487.192
787.123
487.586
787.466
487.863
787.706
488.043
787.862
488.141
787.947
488.17
787.973
4.83671
1.55119
1.21411
1.01587
0.910395
0.825418
0.766339
0.717271
0.678241
0.645296
0.617556
0.593574
0.572822
0.554596
0.538486
0.524199
0.5114
0.49989
0.489523
0.480114
0.471556
0.463737
0.456585
0.450017
0.443966
0.438381
0.433217
0.428426
0.423978
0.419839
0.41598
0.412376
0.409007
0.405852
0.402895
0.400119
0.397511
0.395058
0.392751
0.390578
0.388534
0.386608
0.384797
0.383095
0.3815
0.380007
0.378619
0.377332
0.376151
0.375079
0.374119
0.37328
0.372569
0.371998
0.371577
0.371323
0.371252
0.371382
0.371749
0.372364
0.373281
0.374518
0.376158
0.377871
0.379432
0.38117
0.383125
0.385284
0.387655
0.390246
0.393083
0.396164
0.399541
0.403172
0.407168
0.411418
0.41618
0.421091
0.426992
0.432534
0.440461
0.446509
0.458057
0.465362
0.482275
0.494781
0.523549
0.524195
21.4677
4.69362
3.25521
2.60025
2.26387
2.01118
1.83601
1.69492
1.58336
1.4906
1.4131
1.34668
1.28963
1.23984
1.1961
1.15751
1.12311
1.09232
1.0647
1.03972
1.01709
0.99648
0.977687
0.960475
0.944663
0.930104
0.916675
0.904244
0.892728
0.882031
0.872078
0.862798
0.854138
0.846041
0.838465
0.831358
0.824693
0.81843
0.812546
0.807007
0.801798
0.796893
0.792279
0.787939
0.783864
0.780043
0.776473
0.773148
0.770067
0.767238
0.764661
0.762354
0.76032
0.758586
0.757165
0.756092
0.755385
0.755082
0.755259
0.755883
0.757089
0.758911
0.761481
0.764262
0.766877
0.769835
0.773135
0.776807
0.780844
0.785274
0.790102
0.795347
0.801033
0.807185
0.813827
0.821042
0.828837
0.837171
0.846628
0.855739
0.868279
0.877171
0.895349
0.904721
0.932206
0.938749
0.996565
0.910279
50.7608
17.6447
13.6925
11.7933
10.7353
9.90186
9.29224
8.78338
8.36656
8.01022
7.70489
7.43747
7.20329
6.99535
6.80983
6.6439
6.49407
6.35842
6.23548
6.12325
6.02064
5.92646
5.83994
5.76016
5.68639
5.61807
5.55472
5.49576
5.44089
5.38969
5.34186
5.29708
5.25515
5.2158
5.17887
5.14412
5.11143
5.08064
5.05163
5.02425
4.99845
4.97409
4.95113
4.92948
4.90911
4.88996
4.87203
4.85528
4.83972
4.82539
4.81227
4.80047
4.78999
4.78098
4.77348
4.76767
4.76362
4.76148
4.76167
4.76397
4.76901
4.77698
4.78847
4.80105
4.81294
4.8264
4.84135
4.85801
4.87627
4.89629
4.918
4.94154
4.96686
4.99426
5.02344
5.0553
5.08897
5.12522
5.1652
5.20357
5.25553
5.2909
5.36355
5.39932
5.50294
5.51811
5.70647
5.33497
75.8314
25.219
18.7378
16.3263
15.1032
14.2024
13.5481
13.0073
12.5624
12.1812
11.8529
11.5638
11.3094
11.0823
10.8787
10.6956
10.5296
10.3786
10.2411
10.1151
9.99952
9.89301
9.79482
9.70398
9.61973
9.54147
9.46868
9.40077
9.33741
9.27815
9.22265
9.17059
9.12173
9.0758
9.0326
8.99188
8.95352
8.9173
8.88314
8.85084
8.82035
8.79152
8.7643
8.73858
8.71434
8.69149
8.67004
8.64994
8.63119
8.61382
8.59783
8.58331
8.57026
8.55883
8.54906
8.54115
8.53513
8.53119
8.5297
8.53061
8.53414
8.54086
8.5512
8.56293
8.5742
8.58713
8.60142
8.61745
8.63495
8.65424
8.67502
8.69763
8.72156
8.74782
8.7748
8.80532
8.83568
8.87018
8.9053
8.94071
8.98625
9.01628
9.07988
9.10691
9.19675
9.17982
9.35759
8.95775
99.2128
32.5676
22.1731
18.6481
17.0468
16.0086
15.2898
14.7186
14.2561
13.8646
13.5293
13.2352
12.9772
12.747
12.5409
12.3557
12.1877
12.035
11.896
11.7685
11.6515
11.5437
11.4444
11.3524
11.2671
11.1878
11.1141
11.0453
10.981
10.921
10.8647
10.8119
10.7623
10.7157
10.6719
10.6305
10.5916
10.5548
10.5201
10.4873
10.4563
10.4269
10.3992
10.373
10.3483
10.325
10.303
10.2824
10.2631
10.2451
10.2285
10.2133
10.1994
10.187
10.1762
10.1671
10.1597
10.1541
10.1507
10.1495
10.1506
10.1542
10.161
10.1694
10.1776
10.1874
10.1982
10.2105
10.2238
10.2388
10.2547
10.2723
10.2904
10.3111
10.3309
10.3552
10.3768
10.4045
10.4289
10.4568
10.4894
10.5101
10.5599
10.5728
10.6479
10.6
10.7507
10.4717
121.563
40.7516
25.9418
20.7239
18.4285
17.0989
16.2405
15.601
15.1006
14.6881
14.3404
14.0386
13.7758
13.5425
13.3344
13.148
12.9791
12.8258
12.6864
12.5587
12.4415
12.3336
12.2342
12.1422
12.0568
11.9775
11.9038
11.8349
11.7707
11.7106
11.6543
11.6015
11.5519
11.5053
11.4614
11.4201
11.3811
11.3443
11.3095
11.2767
11.2456
11.2162
11.1885
11.1622
11.1374
11.1139
11.0918
11.071
11.0514
11.0331
11.0161
11.0004
10.9859
10.9728
10.9611
10.9509
10.9422
10.9352
10.9299
10.9265
10.9251
10.9259
10.929
10.9339
10.9391
10.9456
10.9528
10.9613
10.9705
10.9811
10.9923
11.0049
11.0174
11.0325
11.0456
11.0637
11.0774
11.0984
11.1131
11.1345
11.1549
11.1683
11.2056
11.208
11.2656
11.2126
11.3016
11.154
143.394
49.7044
30.4869
23.2272
19.9282
18.106
16.9905
16.2137
15.6351
15.1769
14.8015
14.4823
14.2088
13.9685
13.756
13.5668
13.396
13.2417
13.1018
12.9738
12.8566
12.7487
12.6495
12.5577
12.4726
12.3937
12.3202
12.2517
12.1878
12.128
12.072
12.0195
11.9701
11.9238
11.8802
11.839
11.8003
11.7637
11.7291
11.6964
11.6655
11.6363
11.6086
11.5824
11.5577
11.5342
11.5121
11.4912
11.4715
11.4531
11.4358
11.4197
11.4048
11.3911
11.3786
11.3675
11.3577
11.3493
11.3423
11.337
11.3332
11.3313
11.3313
11.3327
11.3352
11.3386
11.3425
11.3475
11.3529
11.3595
11.3663
11.3745
11.3819
11.392
11.3994
11.4118
11.4193
11.4337
11.4414
11.4562
11.4667
11.4749
11.499
11.497
11.5333
11.4947
11.5174
11.4184
165.054
59.3304
35.8078
26.3755
21.8605
19.3506
17.837
16.8271
16.1071
15.5616
15.1309
14.7758
14.4789
14.2229
13.9998
13.8036
13.628
13.4705
13.3286
13.1993
13.0813
12.9731
12.8739
12.7822
12.6973
12.6186
12.5456
12.4774
12.414
12.3546
12.299
12.2469
12.1981
12.1521
12.1089
12.0682
12.0298
11.9935
11.9593
11.9269
11.8963
11.8674
11.84
11.814
11.7894
11.7661
11.7441
11.7233
11.7037
11.6851
11.6677
11.6514
11.6361
11.622
11.6089
11.5971
11.5862
11.5767
11.5682
11.5612
11.5553
11.551
11.5479
11.5469
11.5468
11.5474
11.5483
11.5502
11.5523
11.5555
11.5586
11.5627
11.566
11.5716
11.5748
11.5818
11.5851
11.593
11.5962
11.6043
11.608
11.6124
11.6238
11.6204
11.6363
11.6172
11.5927
11.5037
186.768
69.6128
41.824
30.1927
24.3549
21.0147
18.9709
17.6207
16.6791
15.9878
15.46
15.0389
14.6969
14.4095
14.1645
13.9529
13.7663
13.601
13.4537
13.3204
13.1998
13.0897
12.9892
12.8968
12.8115
12.7327
12.6597
12.5917
12.5285
12.4695
12.4143
12.3626
12.3142
12.2687
12.2259
12.1856
12.1477
12.1119
12.0781
12.0461
12.0159
11.9873
11.9602
11.9346
11.9103
11.8873
11.8655
11.8448
11.8253
11.8068
11.7894
11.773
11.7575
11.7431
11.7295
11.7171
11.7054
11.6949
11.6852
11.6768
11.6691
11.6627
11.6571
11.6539
11.6514
11.65
11.6482
11.6477
11.647
11.6473
11.6473
11.6479
11.6482
11.6496
11.6499
11.6522
11.6523
11.6549
11.6546
11.6574
11.6566
11.658
11.6584
11.6553
11.6556
11.6548
11.599
11.5139
208.669
80.5814
48.4826
34.6396
27.4374
23.1847
20.5131
18.7265
17.4798
16.5744
15.8957
15.3669
14.9481
14.6051
14.3197
14.0785
13.87
13.6886
13.5292
13.3869
13.2596
13.1445
13.0404
12.9452
12.8579
12.7776
12.7037
12.635
12.5715
12.5123
12.4571
12.4055
12.3573
12.312
12.2696
12.2296
12.192
12.1566
12.1232
12.0916
12.0618
12.0335
12.0068
11.9815
11.9576
11.9348
11.9133
11.8929
11.8735
11.8552
11.8378
11.8214
11.8058
11.7912
11.7773
11.7645
11.7522
11.741
11.7303
11.7207
11.7115
11.7035
11.6957
11.6908
11.6864
11.6834
11.6793
11.677
11.6736
11.6719
11.669
11.6676
11.6647
11.6637
11.6607
11.6601
11.6569
11.6564
11.6529
11.6521
11.6479
11.6463
11.6411
11.6385
11.6266
11.6278
11.5941
11.4829
230.822
92.2839
55.7689
39.6778
31.0898
25.8832
22.5249
20.2318
18.6089
17.423
16.5354
15.85
15.3142
14.883
14.5309
14.2392
13.992
13.781
13.5989
13.4389
13.2978
13.1721
13.0596
12.9579
12.8655
12.7813
12.7042
12.6332
12.5678
12.5072
12.451
12.3986
12.3498
12.3042
12.2616
12.2215
12.1839
12.1485
12.1153
12.0838
12.0543
12.0262
11.9998
11.9747
11.951
11.9285
11.9072
11.887
11.8678
11.8496
11.8323
11.816
11.8003
11.7856
11.7715
11.7583
11.7456
11.7338
11.7224
11.7119
11.7016
11.6924
11.6828
11.6766
11.6707
11.6665
11.6606
11.657
11.6514
11.6482
11.643
11.6401
11.6346
11.632
11.6264
11.6239
11.6179
11.6154
11.6089
11.6061
11.5986
11.5953
11.5856
11.5823
11.5649
11.5647
11.528
11.4378
253.234
104.771
63.6955
45.2898
35.2875
29.1021
25.0237
22.1806
20.1311
18.6113
17.4626
16.5721
15.876
15.3187
14.8677
14.4984
14.1898
13.9301
13.7095
13.5187
13.353
13.2075
13.0791
12.9645
12.8617
12.7689
12.685
12.6083
12.5383
12.474
12.4147
12.3598
12.309
12.2617
12.2178
12.1766
12.1382
12.1021
12.0684
12.0366
12.0067
11.9784
11.9519
11.9267
11.903
11.8805
11.8592
11.839
11.8198
11.8016
11.7843
11.7679
11.7522
11.7374
11.7231
11.7096
11.6965
11.6843
11.6722
11.6611
11.6499
11.6397
11.6288
11.6216
11.6145
11.6094
11.6022
11.5975
11.5904
11.5861
11.5791
11.5751
11.5678
11.564
11.5564
11.5527
11.5446
11.5407
11.5321
11.5279
11.5181
11.5133
11.5009
11.4955
11.477
11.4686
11.4472
11.3594
275.862
118.086
72.2911
51.4783
40.0172
32.8263
28.0052
24.5854
22.0775
20.187
18.7375
17.6014
16.7054
15.9851
15.4013
14.9239
14.5269
14.1952
13.9157
13.6765
13.4711
13.2928
13.1373
13.0003
12.8788
12.7705
12.6735
12.5859
12.5067
12.4346
12.3687
12.3083
12.2528
12.2016
12.1542
12.1102
12.0693
12.0312
11.9956
11.9623
11.9311
11.9018
11.8743
11.8483
11.8239
11.8008
11.779
11.7583
11.7388
11.7202
11.7026
11.6859
11.6698
11.6547
11.64
11.6263
11.6126
11.6001
11.5874
11.5756
11.5637
11.5527
11.5408
11.5326
11.5247
11.5189
11.5107
11.5053
11.4971
11.4919
11.4837
11.4789
11.4703
11.4657
11.4567
11.4521
11.4426
11.4378
11.4276
11.4223
11.411
11.405
11.3911
11.3838
11.3646
11.3518
11.3306
11.2723
298.612
132.26
81.5919
58.2613
45.2796
37.0474
31.4596
27.4428
24.4556
22.1707
20.3936
18.983
17.8564
16.9421
16.1951
15.5805
15.068
14.6393
14.2781
13.9699
13.7064
13.4792
13.2821
13.1098
12.9583
12.8244
12.7057
12.5993
12.5041
12.4182
12.3404
12.2696
12.2052
12.1461
12.092
12.042
11.996
11.9533
11.9138
11.8769
11.8427
11.8105
11.7807
11.7525
11.7263
11.7014
11.6782
11.6561
11.6354
11.6157
11.5971
11.5795
11.5626
11.5467
11.5312
11.5167
11.5023
11.4891
11.4756
11.4631
11.4503
11.4385
11.4257
11.4167
11.4081
11.4016
11.3927
11.3867
11.3777
11.3719
11.3628
11.3573
11.3479
11.3427
11.3327
11.3274
11.317
11.3114
11.3003
11.2942
11.2819
11.2748
11.26
11.2512
11.2313
11.2172
11.1912
11.1529
321.339
147.3
91.6351
65.6672
51.0889
41.768
35.3828
30.747
27.2622
24.5659
22.4429
20.7386
19.3602
18.2296
17.2961
16.5206
15.8692
15.3205
14.8558
14.4581
14.1173
13.8232
13.5682
13.3456
13.1505
12.9787
12.8269
12.6917
12.5713
12.4632
12.366
12.2782
12.1987
12.1263
12.0604
12
11.9446
11.8936
11.8467
11.8032
11.7631
11.7256
11.691
11.6585
11.6283
11.6
11.5735
11.5486
11.5252
11.5032
11.4823
11.4627
11.4439
11.4263
11.4092
11.3932
11.3775
11.3629
11.3481
11.3345
11.3205
11.3076
11.2937
11.2836
11.2743
11.2671
11.2576
11.2508
11.2413
11.2348
11.2251
11.219
11.2089
11.2032
11.1925
11.1867
11.1756
11.1695
11.1577
11.151
11.138
11.1302
11.1146
11.1049
11.0843
11.0698
11.0412
11.0137
343.847
163.186
102.452
73.729
57.4681
47.0008
39.7789
34.4965
30.4936
27.3696
24.886
22.874
21.2292
19.8671
18.7309
17.7775
16.9697
16.2833
15.6971
15.1923
14.7569
14.3792
14.0504
13.7625
13.5096
13.2865
13.0894
12.9138
12.7574
12.6173
12.4915
12.3782
12.2759
12.183
12.0988
12.0219
11.9517
11.8872
11.8282
11.7736
11.7235
11.677
11.6341
11.5941
11.5571
11.5225
11.4903
11.4601
11.4319
11.4054
11.3805
11.357
11.3348
11.3139
11.2939
11.2752
11.2568
11.2398
11.2229
11.2072
11.1912
11.1764
11.1609
11.1493
11.1391
11.1307
11.1206
11.1128
11.1027
11.0953
11.0851
11.0783
11.0676
11.0613
11.05
11.0438
11.0321
11.0256
11.0132
11.006
10.9924
10.984
10.968
10.9576
10.9366
10.9221
10.893
10.8704
365.879
179.859
114.064
82.48
64.4462
52.7667
44.6606
38.6973
34.1509
30.5797
27.7202
25.3874
23.4643
21.8596
20.5094
19.3665
18.3905
17.5538
16.8332
16.2081
15.6648
15.1904
14.7745
14.4083
14.085
13.7985
13.5441
13.3168
13.1139
12.9316
12.7677
12.6197
12.486
12.3646
12.2545
12.1539
12.0621
11.978
11.9011
11.8301
11.765
11.7046
11.6491
11.5974
11.5497
11.5051
11.4637
11.425
11.389
11.3552
11.3236
11.2939
11.266
11.2397
11.2147
11.1913
11.1687
11.1476
11.127
11.1078
11.0887
11.0708
11.0527
11.0388
11.0272
11.0171
11.0059
10.9966
10.9857
10.9771
10.9661
10.9582
10.947
10.9397
10.9279
10.921
10.9086
10.9017
10.8887
10.8812
10.867
10.8584
10.842
10.8313
10.8108
10.7953
10.7706
10.7444
387.117
197.209
126.471
91.9488
72.0539
59.0919
50.0476
43.3626
38.2414
34.1993
30.9451
28.2767
26.0632
24.2053
22.6318
21.2905
20.1376
19.142
18.2783
17.524
16.8637
16.283
15.7706
15.3165
14.9132
14.5536
14.2324
13.9442
13.6855
13.4521
13.2413
13.0505
12.8774
12.7197
12.5762
12.4449
12.3249
12.2147
12.1136
12.0203
11.9345
11.855
11.7818
11.7136
11.6507
11.5919
11.5375
11.4865
11.4391
11.3946
11.3532
11.3141
11.2776
11.2432
11.2107
11.1802
11.1511
11.1237
11.0975
11.0728
11.049
11.0265
11.0043
10.9869
10.9732
10.9607
10.9479
10.9365
10.9244
10.9139
10.9022
10.8926
10.8809
10.8721
10.8602
10.852
10.8397
10.8317
10.8189
10.8107
10.7968
10.7876
10.7724
10.7599
10.7439
10.7239
10.7073
10.6748
407.174
215.068
139.647
102.153
80.3193
66.0041
55.9635
48.5107
42.7784
38.2367
34.5651
31.5431
29.0246
26.9015
25.0948
23.5465
22.2093
21.0478
20.0344
19.1446
18.361
17.6677
17.0524
16.504
16.014
15.5747
15.1802
14.8243
14.5031
14.2119
13.9478
13.7074
13.4884
13.2882
13.1052
12.9372
12.7831
12.641
12.5103
12.3895
12.278
12.1745
12.0788
11.9896
11.907
11.8298
11.7581
11.691
11.6285
11.5698
11.515
11.4634
11.4152
11.3697
11.327
11.2867
11.2486
11.2127
11.1787
11.1463
11.1157
11.0864
11.0585
11.0362
11.0193
11.0034
10.988
10.9736
10.9595
10.9463
10.9331
10.921
10.9084
10.8972
10.885
10.8744
10.8625
10.852
10.8402
10.8293
10.8172
10.8052
10.7926
10.7776
10.7643
10.7442
10.7302
10.6972
425.584
233.187
153.526
113.091
89.2626
73.5289
62.4329
54.1628
47.7787
42.7045
38.589
35.1916
32.3507
29.948
27.8963
26.1312
24.6012
23.2668
22.0974
21.0666
20.1544
19.3438
18.621
17.9739
17.3929
16.8696
16.3973
15.9694
15.5813
15.228
14.906
14.6117
14.3425
14.0953
13.8684
13.6594
13.4668
13.2888
13.1244
12.9719
12.8306
12.6992
12.5772
12.4634
12.3576
12.2585
12.1662
12.0796
11.9988
11.9228
11.8517
11.7847
11.722
11.6628
11.6072
11.5547
11.5052
11.4584
11.4143
11.3723
11.3328
11.295
11.2594
11.231
11.2098
11.1896
11.1706
11.1525
11.1354
11.119
11.1035
11.0886
11.0743
11.0605
11.0472
11.0343
11.0217
11.0094
10.9973
10.985
10.973
10.9601
10.9479
10.9332
10.9207
10.9023
10.892
10.8552
441.791
251.23
167.997
124.736
98.8896
81.6845
69.477
60.3393
53.2601
47.6173
43.0277
39.2301
36.0463
33.3469
31.0361
29.0424
27.3098
25.7941
24.4617
23.2838
22.2379
21.3053
20.4708
19.7211
19.0457
18.4351
17.882
17.3791
16.9212
16.5029
16.1203
15.7693
15.447
15.1502
14.8767
14.6239
14.3902
14.1735
13.9727
13.7859
13.6123
13.4504
13.2996
13.1585
13.0269
12.9036
12.7882
12.6799
12.5784
12.4829
12.3933
12.3088
12.2295
12.1546
12.0841
12.0175
11.9547
11.8952
11.8393
11.786
11.736
11.6882
11.6433
11.6077
11.5812
11.5559
11.5325
11.51
11.4891
11.469
11.4503
11.4323
11.4153
11.399
11.3836
11.3687
11.3545
11.3406
11.3274
11.3141
11.3014
11.2882
11.2758
11.2619
11.2499
11.2335
11.2268
11.1827
455.133
268.754
182.878
137.018
109.182
90.4749
77.1085
67.0553
59.2375
52.9882
47.8923
43.667
40.1173
37.1019
34.5156
32.2796
30.3326
28.6259
27.1221
25.7897
24.604
23.5441
22.5934
21.7371
20.9637
20.2627
19.6258
19.0454
18.5153
18.0299
17.5846
17.175
16.7978
16.4495
16.1277
15.8295
15.5531
15.2961
15.0572
14.8346
14.6271
14.4331
14.252
14.0823
13.9235
13.7744
13.6346
13.5031
13.3796
13.2632
13.1538
13.0504
12.9532
12.8613
12.7747
12.6927
12.6154
12.5422
12.4731
12.4075
12.3458
12.2871
12.2317
12.188
12.1555
12.1247
12.096
12.0688
12.0433
12.0192
11.9966
11.9752
11.955
11.9359
11.9178
11.9007
11.8844
11.8688
11.854
11.8397
11.8259
11.8125
11.7995
11.7865
11.7744
11.7604
11.7557
11.7055
464.809
285.211
197.902
149.817
120.09
99.882
85.3246
74.3147
65.7172
58.8239
53.1888
48.5072
44.5671
41.2146
38.3349
35.8413
33.6667
31.7577
30.0728
28.5777
27.2449
26.0515
24.9791
24.0116
23.1361
22.3411
21.6174
20.9566
20.3519
19.7971
19.2871
18.8172
18.3835
17.9823
17.6108
17.2659
16.9455
16.6472
16.3693
16.1098
15.8674
15.6405
15.4282
15.229
15.0421
14.8664
14.7014
14.5459
14.3997
14.2617
14.1316
14.0088
13.8929
13.7833
13.6799
13.5819
13.4894
13.4017
13.3189
13.2404
13.1662
13.0959
13.0294
12.9772
12.9382
12.9014
12.867
12.8347
12.8043
12.7757
12.7489
12.7237
12.7
12.6778
12.6568
12.637
12.6184
12.6009
12.5842
12.5686
12.5536
12.5395
12.526
12.5133
12.5011
12.4888
12.484
12.4324
469.85
299.932
212.694
162.94
131.513
109.854
94.0971
82.102
72.6903
65.1186
58.9128
53.7468
49.3916
45.6805
42.4887
39.7214
37.3051
35.1817
33.3051
31.6381
30.1502
28.8164
27.6163
26.5322
25.5499
24.6567
23.8426
23.0983
22.4162
21.7895
21.2127
20.6804
20.1884
19.7328
19.3101
18.9173
18.5518
18.2111
17.8932
17.596
17.318
17.0575
16.8133
16.5839
16.3685
16.1657
15.9749
15.7951
15.6255
15.4655
15.3145
15.1717
15.0368
14.9092
14.7885
14.6742
14.5661
14.4636
14.3666
14.2748
14.1878
14.1055
14.0275
13.9665
13.9207
13.8777
13.8374
13.7996
13.7641
13.7308
13.6995
13.6703
13.6428
13.6171
13.5929
13.5704
13.5492
13.5294
13.5107
13.4934
13.4771
13.462
13.4476
13.4346
13.4221
13.4104
13.4045
13.3546
469.261
312.134
226.769
176.115
143.292
120.292
103.361
90.3711
80.1219
71.8447
65.0409
59.3651
54.5719
50.4819
46.96
43.9032
41.2315
38.8814
36.8026
34.9543
33.3031
31.8217
30.4874
29.2811
28.1869
27.1913
26.2829
25.4515
24.689
23.9877
23.3416
22.7448
22.1926
21.6808
21.2055
20.7634
20.3516
19.9674
19.6085
19.2727
18.9583
18.6635
18.3867
18.1266
17.882
17.6517
17.4347
17.23
17.0369
16.8545
16.6821
16.5191
16.365
16.219
16.0808
15.95
15.826
15.7085
15.5972
15.4917
15.3918
15.2972
15.2075
15.1373
15.0845
15.0351
14.9887
14.9452
14.9043
14.8661
14.8302
14.7966
14.7652
14.7358
14.7083
14.6826
14.6586
14.6363
14.6155
14.5961
14.5781
14.5615
14.5461
14.532
14.5188
14.5068
14.4993
14.4535
461.703
320.911
239.535
188.976
155.193
131.034
112.997
99.0303
87.9377
78.9394
71.5188
65.3137
60.0642
55.5782
51.711
48.351
45.4117
42.8241
40.5336
38.4954
36.6735
35.0377
33.5634
32.2296
31.019
29.9168
28.9102
27.9886
27.1426
26.3641
25.6463
24.9829
24.3687
23.799
23.2696
22.7768
22.3175
21.8887
21.4878
21.1126
20.761
20.4311
20.1212
19.8298
19.5555
19.2972
19.0536
18.8237
18.6066
18.4015
18.2076
18.0241
17.8504
17.6859
17.53
17.3823
17.2423
17.1096
16.9838
16.8645
16.7514
16.6442
16.5426
16.463
16.4032
16.3471
16.2945
16.2451
16.1988
16.1553
16.1147
16.0766
16.0409
16.0077
15.9766
15.9475
15.9205
15.8954
15.872
15.8503
15.8303
15.8118
15.7947
15.7791
15.7645
15.7523
15.7352
15.7017
445.766
325.311
250.333
201.078
166.892
141.837
122.815
107.922
96.0044
86.2869
78.2439
71.5005
65.7844
60.8922
56.6696
52.9973
49.782
46.9495
44.4404
42.2063
40.2081
38.4132
36.7945
35.3294
33.9989
32.7869
31.6796
30.6652
29.7336
28.876
28.0847
27.3532
26.6755
26.0466
25.462
24.9176
24.4099
23.9357
23.4922
23.0769
22.6875
22.322
21.9786
21.6555
21.3512
21.0645
20.7941
20.5388
20.2976
20.0695
19.8538
19.6497
19.4563
19.2731
19.0995
18.9349
18.7788
18.6307
18.4902
18.3569
18.2306
18.1107
17.9971
17.9079
17.8409
17.778
17.719
17.6636
17.6116
17.5628
17.5172
17.4744
17.4344
17.397
17.362
17.3295
17.2991
17.2708
17.2446
17.2202
17.1977
17.1769
17.1576
17.1398
17.1234
17.1088
17.0917
17.0606
420.083
324.624
258.534
211.915
177.98
152.359
132.523
116.796
104.102
93.6922
85.0405
77.7657
71.5858
66.288
61.7096
57.7239
54.2312
51.1521
48.4229
45.9916
43.8158
41.8604
40.0963
38.4989
37.0477
35.7253
34.5166
33.4089
32.3913
31.4541
30.5892
29.7893
29.048
28.3599
27.7199
27.1238
26.5677
26.0482
25.5622
25.1069
24.6798
24.2789
23.902
23.5473
23.2133
22.8984
22.6012
22.3206
22.0555
21.8047
21.5674
21.3428
21.1299
20.9282
20.7369
20.5555
20.3834
20.22
20.065
19.9178
19.7782
19.6457
19.5201
19.4213
19.347
19.2773
19.2118
19.1502
19.0925
19.0383
18.9875
18.9399
18.8953
18.8536
18.8146
18.7782
18.7442
18.7125
18.683
18.6556
18.6301
18.6063
18.5843
18.5639
18.545
18.5273
18.511
18.4809
383.874
318.536
263.707
220.988
187.957
162.137
141.7
125.271
111.887
100.842
91.6223
83.8461
77.2253
71.5399
66.6202
62.3329
58.5728
55.2557
52.3138
49.6917
47.3441
45.2335
43.3286
41.6032
40.0351
38.6057
37.299
36.1011
35.0002
33.9862
33.05
32.184
31.3814
30.636
29.9427
29.2967
28.694
28.1307
27.6037
27.1099
26.6466
26.2115
25.8025
25.4175
25.0548
24.7128
24.39
24.0852
23.797
23.5244
23.2664
23.0221
22.7905
22.571
22.3628
22.1652
21.9777
21.7996
21.6306
21.47
21.3176
21.1728
21.0355
20.9273
20.846
20.7695
20.6976
20.6301
20.5666
20.507
20.451
20.3985
20.3493
20.3031
20.2599
20.2195
20.1816
20.1462
20.1131
20.0821
20.0532
20.0262
20.001
19.9775
19.9557
19.9348
19.9177
19.8881
339.011
307.691
265.965
227.907
196.25
170.552
149.742
132.777
118.827
107.244
97.5348
89.3203
82.3109
76.282
71.0584
66.5019
62.5025
58.9721
55.8394
53.0459
50.544
48.2937
46.2622
44.4216
42.7484
41.2228
39.8278
38.5487
37.3729
36.2897
35.2895
34.3641
33.5062
32.7094
31.9682
31.2774
30.6328
30.0303
29.4664
28.938
28.4423
27.9766
27.5387
27.1265
26.7381
26.3718
26.0261
25.6995
25.3907
25.0985
24.822
24.56
24.3116
24.0761
23.8527
23.6406
23.4392
23.2479
23.0662
22.8934
22.7295
22.5734
22.4255
22.3088
22.2209
22.1382
22.0604
21.9872
21.9184
21.8536
21.7928
21.7356
21.6819
21.6314
21.584
21.5395
21.4977
21.4585
21.4217
21.3872
21.3549
21.3245
21.296
21.2693
21.2442
21.2206
21.1992
21.1721
303.415
292.926
266.409
231.952
201.502
176.05
155.08
137.805
123.503
111.574
101.543
93.0387
85.7701
79.5109
74.0829
69.3447
65.1836
61.5088
58.2467
55.337
52.7302
50.3852
48.2676
46.3487
44.6041
43.0131
41.558
40.2237
38.9971
37.8668
36.8231
35.8573
34.9619
34.1301
33.3563
32.6351
31.962
31.3328
30.744
30.1921
29.6743
29.1878
28.7303
28.2996
27.8938
27.511
27.1497
26.8083
26.4855
26.1801
25.8909
25.617
25.3572
25.1108
24.877
24.655
24.4442
24.2438
24.0534
23.8723
23.7003
23.5365
23.3812
23.2584
23.1659
23.0788
22.9967
22.9194
22.8467
22.7781
22.7136
22.6528
22.5956
22.5417
22.491
22.4432
22.3982
22.3559
22.3161
22.2785
22.2432
22.2099
22.1785
22.1489
22.121
22.0947
22.07
22.0439
284.694
283.729
266.707
233.81
203.967
178.66
157.63
140.215
125.75
113.658
103.475
94.8312
87.4385
81.0687
75.5425
70.7168
66.4779
62.7336
59.4092
56.4434
53.7862
51.3954
49.2364
47.2797
45.5007
43.8781
42.3941
41.0332
39.7821
38.6292
37.5645
36.5792
35.6657
34.8171
34.0276
33.2917
32.6049
31.9629
31.362
30.7988
30.2703
29.7739
29.307
28.8674
28.4531
28.0624
27.6935
27.345
27.0154
26.7034
26.408
26.128
25.8625
25.6106
25.3714
25.1441
24.9282
24.7228
24.5275
24.3415
24.1647
23.9961
23.8359
23.709
23.6133
23.523
23.4378
23.3574
23.2816
23.21
23.1425
23.0787
23.0186
22.9618
22.9081
22.8575
22.8098
22.7646
22.722
22.6818
22.6438
22.6078
22.5738
22.5417
22.5112
22.4824
22.4552
22.4287
285.834
284.463
266.97
233.961
204.068
178.73
157.681
140.254
125.78
113.682
103.495
94.8482
87.4531
81.0813
75.5536
70.7267
66.4868
62.7416
59.4165
56.4502
53.7924
51.4012
49.2418
47.2848
45.5055
43.8827
42.3985
41.0373
39.786
38.633
37.5681
36.5827
35.6691
34.8204
34.0308
33.2948
32.6079
31.9659
31.3649
30.8016
30.2731
29.7765
29.3096
28.8699
28.4556
28.0648
27.6958
27.3471
27.0174
26.7054
26.4098
26.1297
25.8641
25.6119
25.3725
25.145
24.9288
24.723
24.5274
24.341
24.1636
23.9945
23.8336
23.7061
23.6099
23.519
23.4333
23.3523
23.2758
23.2036
23.1353
23.0708
23.0099
22.9523
22.8979
22.8465
22.7978
22.7518
22.7083
22.6672
22.6282
22.5913
22.5564
22.5233
22.4919
22.4622
22.4339
22.4076
306.47
294.864
267.157
232.402
201.798
176.255
155.23
137.919
123.593
111.647
101.603
93.089
85.8132
79.5483
74.1158
69.3738
65.2098
61.5325
58.2683
55.3569
52.7486
50.4023
48.2837
46.3638
44.6183
43.0266
41.5708
40.2359
39.0088
37.8781
36.834
35.8678
34.972
34.1399
33.3658
32.6443
31.971
31.3416
30.7525
30.2004
29.6823
29.1957
28.738
28.3071
27.9011
27.518
27.1564
26.8147
26.4915
26.1857
25.896
25.6214
25.3609
25.1137
24.8789
24.6557
24.4435
24.2416
24.0495
23.8663
23.692
23.5256
23.3672
23.2416
23.1467
23.0571
22.9724
22.8923
22.8167
22.7451
22.6775
22.6135
22.553
22.4957
22.4415
22.3903
22.3417
22.2957
22.2522
22.211
22.1719
22.1348
22.0997
22.0664
22.0348
22.0048
21.9761
21.9502
342.799
309.972
267.163
228.67
196.792
170.959
150.063
133.037
119.044
107.428
97.6934
89.4592
82.4342
76.3925
71.1585
66.5931
62.5865
59.0498
55.9117
53.1136
50.6076
48.3538
46.3192
44.4758
42.8002
41.2723
39.8753
38.5943
37.417
36.3323
35.3308
34.4041
33.545
32.7472
32.0049
31.3133
30.6678
30.0645
29.4999
28.9708
28.4743
28.008
27.5694
27.1566
26.7676
26.4006
26.0542
25.7269
25.4173
25.1243
24.8468
24.5837
24.3341
24.0972
23.8722
23.6582
23.4548
23.2611
23.0767
22.9009
22.7335
22.5735
22.4212
22.3003
22.2089
22.1224
22.0407
21.9635
21.8904
21.8212
21.7557
21.6938
21.6351
21.5795
21.5269
21.4771
21.4298
21.385
21.3426
21.3024
21.2642
21.228
21.1936
21.161
21.13
21.1007
21.0725
21.0475
386.744
320.593
265.246
222.195
188.947
162.965
142.405
125.88
112.419
101.312
92.0421
84.2243
77.5691
71.8546
66.9103
62.6017
58.8234
55.4904
52.5346
49.9002
47.5419
45.4215
43.508
41.7748
40.1998
38.764
37.4514
36.2482
35.1426
34.1241
33.1839
32.3141
31.5079
30.7593
30.063
29.4142
28.8089
28.2432
27.7138
27.2178
26.7525
26.3155
25.9045
25.5177
25.1533
24.8095
24.485
24.1785
23.8885
23.6141
23.3542
23.1079
22.8741
22.6523
22.4415
22.2411
22.0504
21.8689
21.696
21.5312
21.374
21.2239
21.0807
20.9671
20.8811
20.7998
20.7229
20.6501
20.5812
20.5159
20.4542
20.3956
20.3402
20.2877
20.2379
20.1907
20.1459
20.1035
20.0632
20.0251
19.9888
19.9544
19.9218
19.8908
19.8613
19.8334
19.8064
19.7836
422.01
326.702
260.45
213.598
179.444
153.629
133.629
117.767
104.961
94.4587
85.7305
78.3914
72.1576
66.8138
62.1962
58.1763
54.6542
51.5492
48.7974
46.3459
44.1523
42.1808
40.4023
38.7919
37.329
35.9958
34.7774
33.6608
32.635
31.6903
30.8185
30.0121
29.2649
28.5712
27.9261
27.3252
26.7646
26.2409
25.7509
25.2918
24.8613
24.457
24.0769
23.7192
23.3822
23.0645
22.7645
22.4812
22.2133
21.9598
21.7196
21.492
21.2761
21.0712
20.8764
20.6913
20.5152
20.3474
20.1877
20.0352
19.8899
19.751
19.6185
19.5133
19.4337
19.3584
19.2871
19.2196
19.1557
19.0952
19.0378
18.9835
18.932
18.8831
18.8369
18.793
18.7513
18.7118
18.6743
18.6388
18.605
18.573
18.5426
18.5138
18.4862
18.4605
18.4348
18.4148
447.178
327.618
252.709
203.258
168.825
143.53
124.299
109.231
97.1665
87.3272
79.1826
72.3537
66.5654
61.6115
57.3361
53.6179
50.3627
47.4951
44.9551
42.6936
40.6711
38.8541
37.2158
35.7328
34.3862
33.1594
32.0387
31.0119
30.069
29.201
28.4001
27.6596
26.9737
26.3371
25.7452
25.1941
24.6801
24.2001
23.7511
23.3306
22.9363
22.5661
22.2182
21.8909
21.5826
21.292
21.0177
20.7587
20.5138
20.2822
20.0628
19.8549
19.6577
19.4705
19.2927
19.1236
18.9628
18.8096
18.6637
18.5245
18.3917
18.2649
18.1437
18.0476
17.9748
17.9059
17.8408
17.779
17.7206
17.6652
17.6127
17.5629
17.5157
17.471
17.4286
17.3884
17.3502
17.314
17.2796
17.247
17.2161
17.1867
17.1588
17.1324
17.1071
17.0837
17.0596
17.0423
463.019
323.65
242.44
191.652
157.562
133.107
114.815
100.633
89.3619
80.2151
72.6706
66.3613
61.0238
56.4624
52.5305
49.1143
46.1261
43.4955
41.167
39.095
37.243
35.5801
34.0814
32.7256
31.495
30.3744
29.3512
28.4141
27.554
26.7626
26.0327
25.3581
24.7335
24.1541
23.6157
23.1145
22.6473
22.2111
21.8033
21.4216
21.0637
20.728
20.4124
20.1158
19.8364
19.5732
19.3249
19.0904
18.8688
18.6593
18.4609
18.2729
18.0947
17.9256
17.7649
17.6122
17.467
17.3287
17.1969
17.0713
16.9514
16.8369
16.7275
16.6407
16.575
16.5128
16.454
16.3982
16.3454
16.2954
16.248
16.203
16.1604
16.12
16.0817
16.0453
16.0108
15.9781
15.947
15.9176
15.8896
15.8632
15.8379
15.8142
15.791
15.7704
15.748
15.7331
470.823
315.462
230.23
179.254
146.047
122.69
105.457
92.2168
81.7603
73.3118
66.3653
60.5696
55.6752
51.4984
47.9022
44.7807
42.0526
39.6528
37.5302
35.6427
33.9567
32.4438
31.0812
29.8491
28.7317
27.7147
26.7867
25.9374
25.1582
24.4417
23.7814
23.1715
22.607
22.0838
21.5978
21.1459
20.7246
20.3318
19.9645
19.6211
19.2992
18.9975
18.714
18.4477
18.197
17.961
17.7384
17.5284
17.3299
17.1425
16.9649
16.7969
16.6376
16.4865
16.343
16.2067
16.0771
15.9537
15.8362
15.7242
15.6173
15.5153
15.4178
15.3405
15.282
15.2266
15.1742
15.1246
15.0776
15.033
14.9908
14.9508
14.9129
14.8769
14.8428
14.8105
14.7798
14.7507
14.723
14.6969
14.672
14.6485
14.6259
14.6051
14.5842
14.5665
14.5458
14.5334
471.917
303.937
216.696
166.49
134.59
112.515
96.4143
84.1374
74.4946
66.7333
60.3695
55.0711
50.6043
46.7973
43.5234
40.6845
38.2059
36.0274
34.1022
32.3916
30.8649
29.4961
28.2642