/*--------------------------------*- C++ -*----------------------------------*\
| =========                 |                                                 |
| \\      /  F ield         | OpenFOAM: The Open Source CFD Toolbox           |
|  \\    /   O peration     | Version:  2306                                  |
|   \\  /    A nd           | Website:  www.openfoam.com                      |
|    \\/     M anipulation  |                                                 |
\*---------------------------------------------------------------------------*/
FoamFile
{
    version     2.0;
    format      ascii;
    arch        "LSB;label=32;scalar=64";
    class       volScalarField;
    location    "1800";
    object      nut;
}
// * * * * * * * * * * * * * * * * * * * * * * * * * * * * * * * * * * * * * //

dimensions      [0 2 -1 0 0 0 0];

internalField   nonuniform List<scalar> 
20540
(
0.27524
0.317548
0.275235
0.317642
0.275232
0.317767
0.275222
0.317914
0.275206
0.318086
0.275181
0.318285
0.275144
0.318518
0.275094
0.318792
0.275026
0.319117
0.274935
0.319504
0.274814
0.319966
0.274653
0.320519
0.27444
0.321185
0.274156
0.321983
0.273776
0.322942
0.273267
0.324088
0.272581
0.325453
0.27165
0.327067
0.270382
0.328956
0.268647
0.331137
0.266264
0.333605
0.26298
0.336318
0.258443
0.339166
0.252165
0.341927
0.243472
0.344193
0.23144
0.345246
0.214822
0.343854
0.191992
0.337906
0.16106
0.323874
0.121007
0.296739
0.0845224
0.255479
0.0591271
0.225085
0.0606436
0.22658
0.0871433
0.259021
0.12329
0.299344
0.162077
0.324732
0.191993
0.33816
0.214192
0.344034
0.230454
0.345477
0.242294
0.344481
0.250887
0.342233
0.257112
0.33944
0.261617
0.336516
0.264875
0.333693
0.267232
0.331092
0.268939
0.328767
0.270177
0.326731
0.271076
0.324973
0.271731
0.323471
0.27221
0.322198
0.272561
0.321124
0.272819
0.320222
0.27301
0.319465
0.273151
0.318831
0.273256
0.318299
0.273334
0.317853
0.273392
0.317477
0.273435
0.31716
0.273466
0.31689
0.273488
0.31666
0.273503
0.316462
0.273512
0.316291
0.273517
0.316144
0.273518
0.31602
0.273517
0.315926
6.77208e-07
2.17982e-07
1.70678e-07
1.42842e-07
1.28025e-07
1.16086e-07
1.07785e-07
1.00889e-07
9.54033e-08
9.07724e-08
8.6873e-08
8.35016e-08
8.05842e-08
7.80217e-08
7.57567e-08
7.37479e-08
7.19483e-08
7.03299e-08
6.88721e-08
6.75491e-08
6.63456e-08
6.52462e-08
6.42404e-08
6.33167e-08
6.24659e-08
6.16804e-08
6.09542e-08
6.02804e-08
5.96548e-08
5.90727e-08
5.853e-08
5.80231e-08
5.75493e-08
5.71056e-08
5.66898e-08
5.62993e-08
5.59325e-08
5.55875e-08
5.52631e-08
5.49575e-08
5.46699e-08
5.4399e-08
5.41444e-08
5.3905e-08
5.36806e-08
5.34707e-08
5.32753e-08
5.30945e-08
5.29283e-08
5.27775e-08
5.26424e-08
5.25245e-08
5.24244e-08
5.23441e-08
5.22849e-08
5.22492e-08
5.22392e-08
5.22575e-08
5.23091e-08
5.23956e-08
5.25245e-08
5.26986e-08
5.29293e-08
5.31703e-08
5.33897e-08
5.36342e-08
5.39091e-08
5.42128e-08
5.45463e-08
5.49107e-08
5.53098e-08
5.57431e-08
5.6218e-08
5.67287e-08
5.72907e-08
5.78884e-08
5.85582e-08
5.92488e-08
6.00787e-08
6.08581e-08
6.19729e-08
6.28235e-08
6.44474e-08
6.54747e-08
6.78531e-08
6.96115e-08
7.36582e-08
7.37445e-08
1.56641e-05
3.38939e-06
2.37922e-06
1.93166e-06
1.69974e-06
1.52463e-06
1.40191e-06
1.30237e-06
1.22304e-06
1.15665e-06
1.10087e-06
1.05281e-06
1.01135e-06
9.75008e-07
9.42963e-07
9.14603e-07
8.89239e-07
8.66472e-07
8.45999e-07
8.27444e-07
8.10592e-07
7.95216e-07
7.8117e-07
7.68284e-07
7.56427e-07
7.45494e-07
7.35396e-07
7.26036e-07
7.17355e-07
7.09283e-07
7.01764e-07
6.94747e-07
6.88193e-07
6.82059e-07
6.76316e-07
6.70924e-07
6.65864e-07
6.61105e-07
6.56632e-07
6.52418e-07
6.48454e-07
6.44717e-07
6.41202e-07
6.37893e-07
6.34784e-07
6.31867e-07
6.29141e-07
6.26599e-07
6.24244e-07
6.22078e-07
6.20104e-07
6.18334e-07
6.16771e-07
6.15435e-07
6.14338e-07
6.13503e-07
6.12945e-07
6.12692e-07
6.12803e-07
6.13249e-07
6.14134e-07
6.15485e-07
6.17398e-07
6.19474e-07
6.21428e-07
6.2364e-07
6.26106e-07
6.2885e-07
6.31865e-07
6.35175e-07
6.38777e-07
6.42691e-07
6.46926e-07
6.5151e-07
6.56445e-07
6.61817e-07
6.6759e-07
6.73792e-07
6.80767e-07
6.87527e-07
6.96762e-07
7.03272e-07
7.16727e-07
7.23443e-07
7.43859e-07
7.48602e-07
7.89614e-07
7.21388e-07
0.000103824
3.31281e-05
2.47269e-05
2.13813e-05
1.96191e-05
1.82921e-05
1.73237e-05
1.6518e-05
1.58545e-05
1.52847e-05
1.47934e-05
1.43605e-05
1.39794e-05
1.3639e-05
1.33339e-05
1.30596e-05
1.28109e-05
1.25848e-05
1.23791e-05
1.21906e-05
1.20177e-05
1.18586e-05
1.17119e-05
1.15763e-05
1.14506e-05
1.1334e-05
1.12255e-05
1.11244e-05
1.10301e-05
1.0942e-05
1.08595e-05
1.07821e-05
1.07096e-05
1.06414e-05
1.05773e-05
1.0517e-05
1.04601e-05
1.04065e-05
1.03559e-05
1.03082e-05
1.02631e-05
1.02205e-05
1.01803e-05
1.01424e-05
1.01066e-05
1.0073e-05
1.00415e-05
1.0012e-05
9.98453e-06
9.95917e-06
9.93591e-06
9.91491e-06
9.89617e-06
9.87993e-06
9.86629e-06
9.85552e-06
9.84773e-06
9.84316e-06
9.84264e-06
9.84553e-06
9.85302e-06
9.86552e-06
9.88387e-06
9.90415e-06
9.92349e-06
9.94555e-06
9.97004e-06
9.99737e-06
1.00273e-05
1.00602e-05
1.00959e-05
1.01346e-05
1.0176e-05
1.02212e-05
1.02686e-05
1.03215e-05
1.03759e-05
1.04369e-05
1.05012e-05
1.05662e-05
1.06514e-05
1.07092e-05
1.08355e-05
1.08881e-05
1.10848e-05
1.109e-05
1.14957e-05
1.04293e-05
0.000299234
9.86525e-05
6.77928e-05
5.77233e-05
5.31278e-05
5.01768e-05
4.81466e-05
4.65428e-05
4.52495e-05
4.41558e-05
4.32194e-05
4.23968e-05
4.16737e-05
4.10271e-05
4.04465e-05
3.99237e-05
3.94479e-05
3.90142e-05
3.86186e-05
3.82548e-05
3.79201e-05
3.7611e-05
3.73254e-05
3.70605e-05
3.68143e-05
3.65851e-05
3.63715e-05
3.61718e-05
3.59852e-05
3.58103e-05
3.56463e-05
3.54922e-05
3.53473e-05
3.52109e-05
3.50825e-05
3.49613e-05
3.48469e-05
3.47389e-05
3.46368e-05
3.45402e-05
3.44489e-05
3.43625e-05
3.42808e-05
3.42035e-05
3.41305e-05
3.40616e-05
3.39968e-05
3.3936e-05
3.38791e-05
3.38261e-05
3.37772e-05
3.37324e-05
3.36919e-05
3.3656e-05
3.36247e-05
3.35988e-05
3.35781e-05
3.35629e-05
3.3555e-05
3.35536e-05
3.35589e-05
3.35732e-05
3.35974e-05
3.36259e-05
3.3654e-05
3.36871e-05
3.37239e-05
3.37656e-05
3.3811e-05
3.38618e-05
3.39161e-05
3.39763e-05
3.40385e-05
3.41097e-05
3.41787e-05
3.42647e-05
3.43406e-05
3.44431e-05
3.45307e-05
3.46392e-05
3.47649e-05
3.48499e-05
3.50617e-05
3.51212e-05
3.54791e-05
3.53877e-05
3.62881e-05
3.30197e-05
0.000618815
0.000223337
0.000141647
0.000113959
0.000101968
9.52324e-05
9.09641e-05
8.7859e-05
8.54866e-05
8.35611e-05
8.19609e-05
8.0584e-05
7.9395e-05
7.83436e-05
7.74089e-05
7.65737e-05
7.58174e-05
7.51314e-05
7.45081e-05
7.39363e-05
7.34116e-05
7.29277e-05
7.24817e-05
7.20683e-05
7.16844e-05
7.13274e-05
7.09949e-05
7.06842e-05
7.0394e-05
7.01222e-05
6.98673e-05
6.96278e-05
6.94028e-05
6.9191e-05
6.89915e-05
6.88032e-05
6.86257e-05
6.84578e-05
6.82993e-05
6.81492e-05
6.80074e-05
6.78729e-05
6.77459e-05
6.76256e-05
6.75119e-05
6.74043e-05
6.73031e-05
6.72076e-05
6.7118e-05
6.70343e-05
6.69564e-05
6.68846e-05
6.68186e-05
6.67593e-05
6.67063e-05
6.66608e-05
6.66222e-05
6.65913e-05
6.6569e-05
6.65571e-05
6.65535e-05
6.65602e-05
6.65802e-05
6.66077e-05
6.66369e-05
6.66726e-05
6.6713e-05
6.67601e-05
6.68113e-05
6.68704e-05
6.69326e-05
6.70047e-05
6.70747e-05
6.71635e-05
6.72372e-05
6.73506e-05
6.74278e-05
6.75691e-05
6.76575e-05
6.78089e-05
6.79584e-05
6.80659e-05
6.83611e-05
6.84411e-05
6.89484e-05
6.88074e-05
7.01317e-05
6.44701e-05
0.00107967
0.000430905
0.000265897
0.000202504
0.000173995
0.000158732
0.00014955
0.00014333
0.000138826
0.000135353
0.000132586
0.000130279
0.000128344
0.000126667
0.000125204
0.000123916
0.000122762
0.000121726
0.000120793
0.000119943
0.000119167
0.000118455
0.000117802
0.000117198
0.00011664
0.000116121
0.00011564
0.000115191
0.000114772
0.000114381
0.000114014
0.000113669
0.000113346
0.000113043
0.000112757
0.000112487
0.000112233
0.000111993
0.000111766
0.000111552
0.000111349
0.000111157
0.000110975
0.000110803
0.000110641
0.000110487
0.000110342
0.000110205
0.000110076
0.000109955
0.000109842
0.000109737
0.00010964
0.000109551
0.000109471
0.000109401
0.000109339
0.000109287
0.000109245
0.000109216
0.000109199
0.000109195
0.000109204
0.000109226
0.000109253
0.000109288
0.000109329
0.000109378
0.000109432
0.000109497
0.000109564
0.000109648
0.000109722
0.000109831
0.000109906
0.000110051
0.00011013
0.000110315
0.000110409
0.000110615
0.000110793
0.000110941
0.000111338
0.000111465
0.000112107
0.000112059
0.000113476
0.00010552
0.00170887
0.000742413
0.00046368
0.000341786
0.000282471
0.000250198
0.000230981
0.000218404
0.000209629
0.000203141
0.000198161
0.000194151
0.000190896
0.00018815
0.000185809
0.000183792
0.000182016
0.000180445
0.00017905
0.000177791
0.000176655
0.00017562
0.000174678
0.000173814
0.000173018
0.000172283
0.000171604
0.000170972
0.000170386
0.000169839
0.000169328
0.00016885
0.000168402
0.000167982
0.000167587
0.000167215
0.000166866
0.000166535
0.000166224
0.00016593
0.000165652
0.000165389
0.00016514
0.000164905
0.000164682
0.000164472
0.000164273
0.000164085
0.000163908
0.000163742
0.000163586
0.000163441
0.000163306
0.000163182
0.000163068
0.000162968
0.000162876
0.0001628
0.000162734
0.000162685
0.000162648
0.000162631
0.000162629
0.000162643
0.000162668
0.000162703
0.000162743
0.000162796
0.000162854
0.000162929
0.000163004
0.000163103
0.000163187
0.000163322
0.000163409
0.00016359
0.000163695
0.000163925
0.00016406
0.000164325
0.00016456
0.000164786
0.00016528
0.000165533
0.00016627
0.00016631
0.000168028
0.00015705
0.00254427
0.00118075
0.000759847
0.00055476
0.000446583
0.000384652
0.000346978
0.000322354
0.000305392
0.000293121
0.000283931
0.000276739
0.000271047
0.000266366
0.000262471
0.000259191
0.000256359
0.000253898
0.000251751
0.00024984
0.000248139
0.000246607
0.000245228
0.000243974
0.000242829
0.000241781
0.000240818
0.000239928
0.000239106
0.000238344
0.000237635
0.000236974
0.000236358
0.000235781
0.000235242
0.000234734
0.000234258
0.00023381
0.000233389
0.00023299
0.000232616
0.000232261
0.000231927
0.00023161
0.000231312
0.000231029
0.000230763
0.000230511
0.000230274
0.000230051
0.000229841
0.000229647
0.000229464
0.000229298
0.000229143
0.000229005
0.000228879
0.000228772
0.000228677
0.000228606
0.000228548
0.000228516
0.000228501
0.000228516
0.000228542
0.000228578
0.000228621
0.000228684
0.000228752
0.000228845
0.000228939
0.000229061
0.000229171
0.000229342
0.000229466
0.000229695
0.000229856
0.000230137
0.000230366
0.000230682
0.000231038
0.000231364
0.000231991
0.000232348
0.000233299
0.000233648
0.000235466
0.000221567
0.00363535
0.00177427
0.00118119
0.000868092
0.0006908
0.000583233
0.000515153
0.000469694
0.000438127
0.000415346
0.000398431
0.000385388
0.000375216
0.000367012
0.000360309
0.000354765
0.000350067
0.000346051
0.000342609
0.000339592
0.000336945
0.00033459
0.0003325
0.00033062
0.00032892
0.00032738
0.000325978
0.000324692
0.000323515
0.000322429
0.000321426
0.000320497
0.000319635
0.000318832
0.000318085
0.000317384
0.00031673
0.000316116
0.000315542
0.000315
0.000314492
0.000314011
0.000313561
0.000313134
0.000312733
0.000312354
0.000311997
0.00031166
0.000311343
0.000311047
0.000310767
0.000310508
0.000310264
0.000310042
0.000309835
0.000309651
0.000309481
0.000309339
0.000309209
0.000309113
0.000309031
0.000308988
0.000308961
0.000308985
0.00030901
0.000309066
0.000309113
0.000309202
0.000309292
0.000309415
0.000309545
0.000309699
0.000309862
0.000310079
0.000310273
0.000310572
0.000310815
0.000311175
0.000311533
0.000311922
0.000312469
0.000312917
0.000313708
0.000314234
0.000315459
0.000316395
0.000318136
0.000302122
0.00504501
0.00255889
0.0017587
0.00131195
0.00104416
0.000873035
0.000759674
0.000681428
0.000625884
0.000585296
0.000554993
0.000531655
0.000513527
0.000499036
0.000487313
0.000477724
0.000469703
0.000462943
0.000457214
0.000452263
0.000447975
0.000444202
0.000440898
0.000437959
0.00043533
0.000432972
0.000430847
0.000428913
0.00042716
0.000425557
0.000424086
0.000422732
0.000421485
0.000420332
0.000419264
0.000418268
0.000417344
0.000416479
0.000415674
0.000414918
0.000414212
0.000413547
0.000412926
0.000412339
0.000411789
0.000411271
0.000410785
0.000410326
0.000409896
0.000409495
0.000409116
0.000408767
0.000408439
0.000408141
0.000407862
0.000407617
0.000407388
0.0004072
0.000407027
0.000406899
0.000406791
0.000406737
0.000406701
0.000406744
0.000406774
0.000406863
0.000406922
0.000407056
0.000407168
0.000407349
0.000407518
0.000407755
0.000407968
0.000408287
0.000408542
0.000408972
0.000409292
0.000409814
0.000410302
0.000410832
0.000411615
0.000412189
0.000413282
0.00041405
0.000415533
0.000416825
0.000419998
0.000400154
0.00685199
0.00357994
0.00252977
0.00192091
0.00154073
0.0012864
0.00111125
0.000985694
0.000893951
0.000825434
0.000773472
0.00073307
0.000701505
0.000676249
0.000655849
0.000639214
0.000625385
0.000613816
0.000604077
0.000595734
0.000588571
0.000582339
0.000576918
0.000572143
0.000567913
0.000564154
0.000560792
0.00055776
0.000555034
0.00055256
0.000550308
0.000548249
0.000546366
0.000544636
0.000543044
0.000541567
0.000540206
0.000538939
0.000537766
0.000536668
0.000535649
0.000534692
0.000533802
0.000532965
0.000532184
0.000531449
0.000530763
0.000530118
0.000529515
0.000528953
0.000528425
0.000527941
0.000527484
0.000527073
0.000526687
0.000526351
0.000526035
0.000525779
0.000525544
0.000525371
0.000525229
0.000525158
0.000525115
0.000525182
0.000525223
0.000525356
0.000525439
0.000525637
0.000525788
0.00052605
0.00052628
0.000526624
0.000526913
0.000527375
0.000527707
0.000528333
0.000528727
0.000529498
0.000530094
0.000530875
0.000531889
0.000532645
0.000534093
0.000535137
0.000536991
0.000538632
0.00054256
0.000519983
0.00915388
0.0048941
0.00353993
0.00273603
0.00221962
0.00186184
0.00160659
0.00141777
0.00127537
0.00116627
0.00108173
0.00101489
0.000961995
0.000919288
0.000884587
0.000856184
0.00083255
0.000812802
0.000796194
0.00078202
0.000769894
0.000759412
0.000750326
0.000742373
0.000735372
0.000729184
0.00072369
0.000718767
0.000714365
0.000710395
0.000706804
0.000703542
0.000700576
0.000697867
0.000695385
0.000693097
0.000691
0.000689058
0.000687268
0.000685601
0.00068406
0.00068262
0.000681286
0.000680036
0.000678875
0.000677787
0.000676774
0.000675824
0.000674939
0.000674117
0.000673347
0.000672641
0.000671978
0.000671383
0.000670825
0.000670338
0.000669883
0.000669515
0.000669178
0.000668926
0.000668727
0.000668616
0.000668559
0.000668644
0.0006687
0.000668881
0.000668998
0.00066927
0.000669482
0.000669839
0.000670162
0.00067063
0.000671033
0.000671667
0.000672114
0.000672984
0.000673481
0.000674571
0.000675292
0.00067641
0.000677683
0.000678656
0.000680585
0.000681858
0.000684274
0.00068592
0.000691714
0.000665295
0.0120705
0.00657192
0.00484481
0.00380663
0.00312708
0.00264375
0.00228947
0.00201968
0.00181086
0.00164669
0.00151646
0.00141139
0.00132681
0.00125753
0.0012006
0.00115357
0.00111416
0.00108109
0.00105316
0.00102929
0.00100886
0.000991212
0.000975918
0.000962558
0.000950828
0.000940487
0.000931338
0.000923172
0.000915889
0.000909348
0.000903456
0.000898126
0.000893298
0.000888903
0.000884899
0.000881223
0.000877863
0.000874765
0.000871919
0.000869281
0.00086685
0.000864588
0.000862498
0.000860547
0.00085874
0.000857053
0.000855485
0.000854018
0.000852658
0.000851395
0.000850216
0.000849134
0.000848123
0.000847214
0.000846363
0.000845613
0.000844923
0.000844354
0.000843835
0.000843432
0.000843123
0.000842914
0.00084282
0.000842887
0.000842957
0.00084317
0.000843332
0.000843671
0.000843968
0.000844417
0.000844873
0.000845464
0.000846034
0.000846848
0.000847472
0.000848599
0.000849272
0.000850703
0.000851633
0.000853115
0.000854723
0.000855996
0.000858441
0.000859974
0.000863075
0.000864791
0.000871971
0.000843482
0.0157474
0.00870063
0.00651198
0.00519209
0.0043181
0.00368449
0.00321049
0.00284122
0.00254894
0.00231358
0.00212326
0.00196627
0.00183764
0.00173041
0.00164106
0.00156626
0.00150289
0.00144926
0.00140361
0.00136435
0.00133058
0.00130133
0.00127589
0.00125362
0.00123405
0.00121679
0.00120152
0.00118791
0.00117577
0.00116488
0.00115508
0.00114624
0.00113824
0.00113097
0.00112436
0.00111832
0.0011128
0.00110772
0.00110306
0.00109876
0.00109481
0.00109113
0.00108775
0.00108459
0.00108168
0.00107896
0.00107644
0.00107409
0.00107191
0.00106989
0.00106801
0.00106627
0.00106466
0.00106321
0.00106184
0.00106062
0.00105952
0.00105858
0.00105773
0.00105704
0.00105651
0.00105608
0.00105588
0.00105585
0.00105592
0.00105611
0.00105632
0.00105668
0.00105709
0.0010576
0.00105823
0.00105892
0.00105972
0.0010607
0.00106158
0.00106294
0.00106391
0.00106564
0.00106694
0.00106874
0.00107083
0.00107242
0.00107548
0.00107731
0.00108121
0.00108312
0.0010915
0.00106048
0.020359
0.0113875
0.00862311
0.00696378
0.00585834
0.00504596
0.0044291
0.00394004
0.00354604
0.00322273
0.0029562
0.0027324
0.00254605
0.00238778
0.00225397
0.00214029
0.00204268
0.00195921
0.00188735
0.00182498
0.00177092
0.00172378
0.00168253
0.00164624
0.00161422
0.00158588
0.00156073
0.00153825
0.00151818
0.00150015
0.00148392
0.00146925
0.00145599
0.00144393
0.00143296
0.00142293
0.00141378
0.00140537
0.00139766
0.00139054
0.001384
0.00137793
0.00137234
0.00136714
0.00136233
0.00135786
0.00135371
0.00134985
0.00134627
0.00134293
0.00133984
0.00133698
0.00133433
0.0013319
0.00132966
0.00132763
0.0013258
0.00132418
0.0013227
0.0013215
0.00132051
0.00131966
0.00131921
0.00131891
0.00131893
0.00131898
0.00131923
0.00131952
0.00132005
0.00132054
0.00132138
0.00132211
0.0013232
0.00132429
0.00132553
0.00132706
0.00132849
0.00133042
0.00133228
0.00133433
0.00133707
0.00133901
0.00134278
0.00134498
0.00134981
0.00135196
0.00136189
0.00132734
0.0261109
0.0147636
0.0112761
0.00920703
0.00782592
0.00680138
0.00601507
0.00538345
0.00486765
0.00443811
0.00407843
0.00377222
0.00351279
0.00328939
0.00309798
0.00293288
0.00278915
0.00266488
0.00255655
0.0024615
0.00237834
0.0023052
0.00224065
0.00218344
0.00213266
0.00208744
0.00204711
0.0020109
0.00197843
0.00194914
0.0019227
0.00189875
0.00187704
0.00185726
0.00183925
0.00182275
0.00180767
0.0017938
0.00178107
0.00176931
0.00175849
0.00174846
0.00173921
0.00173059
0.00172264
0.00171522
0.00170835
0.00170193
0.001696
0.00169045
0.00168532
0.00168054
0.00167613
0.00167204
0.00166829
0.00166484
0.00166171
0.0016589
0.0016564
0.00165423
0.00165231
0.00165074
0.00164969
0.00164888
0.00164871
0.00164844
0.00164864
0.0016487
0.00164932
0.00164967
0.00165072
0.00165139
0.0016528
0.00165392
0.00165559
0.00165723
0.00165923
0.00166131
0.00166388
0.00166617
0.00166969
0.00167202
0.00167663
0.00167934
0.00168517
0.00168769
0.00169946
0.00166043
0.0332401
0.0189876
0.0145875
0.0120231
0.0103133
0.00903706
0.00805022
0.00724984
0.00658957
0.00603356
0.00556231
0.00515668
0.00480824
0.00450497
0.00424144
0.00401146
0.00380883
0.00363182
0.00347549
0.0033368
0.00321437
0.00310561
0.00300872
0.00292211
0.00284464
0.0027752
0.0027128
0.00265645
0.00260563
0.00255954
0.00251774
0.00247973
0.00244511
0.00241346
0.00238453
0.00235797
0.00233361
0.00231116
0.00229051
0.0022714
0.00225378
0.00223742
0.0022223
0.00220821
0.00219517
0.00218298
0.00217169
0.00216113
0.00215134
0.00214217
0.00213369
0.00212574
0.00211842
0.00211158
0.0021053
0.00209949
0.00209418
0.00208936
0.002085
0.0020812
0.0020778
0.00207491
0.00207261
0.00207095
0.00207026
0.00206943
0.00206936
0.00206897
0.00206953
0.00206957
0.00207072
0.00207123
0.00207292
0.00207396
0.0020761
0.00207778
0.0020804
0.00208263
0.00208598
0.00208856
0.00209297
0.00209578
0.00210139
0.00210473
0.00211184
0.00211474
0.00212903
0.00208369
0.0420107
0.0242499
0.0186938
0.0155309
0.0134289
0.0118539
0.0106298
0.00963005
0.00879913
0.00809366
0.00749023
0.00696654
0.00651187
0.00611276
0.00576212
0.00545311
0.0051784
0.00493541
0.00471906
0.00452506
0.00435244
0.00419753
0.00405821
0.00393261
0.00381943
0.00371722
0.00362463
0.00354043
0.00346405
0.0033943
0.00333072
0.00327259
0.00321937
0.00317048
0.0031256
0.00308422
0.00304613
0.00301089
0.00297835
0.00294816
0.00292023
0.00289423
0.00287013
0.00284763
0.00282675
0.00280721
0.00278907
0.00277204
0.00275625
0.0027414
0.00272765
0.00271471
0.00270277
0.00269156
0.00268125
0.00267163
0.00266284
0.00265471
0.00264741
0.00264072
0.00263498
0.00262987
0.00262546
0.00262232
0.00262068
0.00261889
0.00261818
0.00261706
0.00261727
0.00261678
0.00261787
0.00261802
0.00261992
0.00262074
0.00262342
0.002625
0.00262842
0.00263073
0.00263508
0.00263797
0.00264355
0.00264688
0.00265399
0.00265767
0.00266721
0.00266967
0.0026876
0.00263442
0.0527039
0.0307753
0.0237531
0.0198693
0.0172987
0.0153688
0.0138637
0.0126284
0.0115961
0.0107145
0.00995533
0.00929255
0.00871258
0.00820022
0.00774637
0.00734328
0.00698247
0.00666016
0.00637115
0.00611015
0.00587549
0.0056634
0.00547132
0.0052966
0.00513818
0.00499407
0.00486242
0.00474196
0.004632
0.00453086
0.00443822
0.00435305
0.00427459
0.00420214
0.00413531
0.00407341
0.00401618
0.00396301
0.0039137
0.00386781
0.00382518
0.00378537
0.00374834
0.00371366
0.00368137
0.00365106
0.00362284
0.00359629
0.00357159
0.0035483
0.00352669
0.00350629
0.0034874
0.00346961
0.0034532
0.00343779
0.0034237
0.00341051
0.00339866
0.00338759
0.00337796
0.00336933
0.0033617
0.0033561
0.00335286
0.00334944
0.00334761
0.00334516
0.00334466
0.00334315
0.00334394
0.00334331
0.0033453
0.0033456
0.00334871
0.00334997
0.00335422
0.00335635
0.00336195
0.00336477
0.00337202
0.00337536
0.00338466
0.00338831
0.00340042
0.00340331
0.00342386
0.00336352
0.0655978
0.0388238
0.0299438
0.0251976
0.0220672
0.0197152
0.0178768
0.0163628
0.0150928
0.0140037
0.0130614
0.0122354
0.0115084
0.0108633
0.0102885
0.00977501
0.00931308
0.00889745
0.00852257
0.00818223
0.00787384
0.00759338
0.00733787
0.00710412
0.00689052
0.00669495
0.00651546
0.00635013
0.00619835
0.00605774
0.00592858
0.00580905
0.00569827
0.00559551
0.00550027
0.00541163
0.00532932
0.0052525
0.00518097
0.00511418
0.00505186
0.00499344
0.00493892
0.00488768
0.00483983
0.00479477
0.00475268
0.00471296
0.0046759
0.00464086
0.00460823
0.00457736
0.00454868
0.00452156
0.00449648
0.00447281
0.00445111
0.00443063
0.00441218
0.0043948
0.00437958
0.00436549
0.00435322
0.00434387
0.00433831
0.00433239
0.0043288
0.00432435
0.00432259
0.00431961
0.00431955
0.00431796
0.00431951
0.00431926
0.00432237
0.0043234
0.00432813
0.00433033
0.00433682
0.00434005
0.00434859
0.00435264
0.00436364
0.00436824
0.00438253
0.00438645
0.00441006
0.00434117
0.0809333
0.0486886
0.0374598
0.0316964
0.0278972
0.0250428
0.0228084
0.0209642
0.0194132
0.0180796
0.0169219
0.0159043
0.0150054
0.0142052
0.0134894
0.0128473
0.0122678
0.0117437
0.0112688
0.0108362
0.0104419
0.0100816
0.00975185
0.00944887
0.00917044
0.00891414
0.0086779
0.00845926
0.00825746
0.00806994
0.00789637
0.00773517
0.00758523
0.0074455
0.0073154
0.00719381
0.00708047
0.00697414
0.00687491
0.00678195
0.00669476
0.0066128
0.00653601
0.00646366
0.00639584
0.00633181
0.00627179
0.00621502
0.00616185
0.00611149
0.00606441
0.00601978
0.00597815
0.00593872
0.00590209
0.00586743
0.00583551
0.0058053
0.00577791
0.00575225
0.0057289
0.0057074
0.00568907
0.00567455
0.00566556
0.00565639
0.00564994
0.00564305
0.005639
0.00563428
0.00563249
0.00562979
0.00563018
0.00562936
0.00563187
0.00563282
0.00563747
0.00564005
0.00564695
0.00565101
0.00566041
0.00566568
0.00567806
0.00568412
0.00570043
0.00570566
0.00573241
0.0056532
0.0988622
0.0606577
0.0465331
0.0395664
0.0349685
0.0315155
0.0288098
0.0265738
0.0246901
0.0230679
0.0216567
0.0204144
0.0193143
0.0183332
0.0174535
0.0166622
0.0159465
0.0152972
0.014707
0.0141678
0.0136748
0.0132227
0.0128074
0.0124247
0.0120717
0.0117454
0.0114436
0.0111634
0.0109036
0.0106616
0.0104365
0.0102267
0.010031
0.00984792
0.00967684
0.00951646
0.00936637
0.00922531
0.00909299
0.00896863
0.00885178
0.00874159
0.00863801
0.00854018
0.00844817
0.00836111
0.00827923
0.00820165
0.00812873
0.00805957
0.00799465
0.00793305
0.00787535
0.00782065
0.0077696
0.00772126
0.00767646
0.00763412
0.00759529
0.00755881
0.00752594
0.00749497
0.00746823
0.00744752
0.00743375
0.00742062
0.0074102
0.00740025
0.00739298
0.00738602
0.00738175
0.00737757
0.00737615
0.00737456
0.00737589
0.0073767
0.00738076
0.0073838
0.00739065
0.0073957
0.00740556
0.0074123
0.00742561
0.00743348
0.00745125
0.00745827
0.00748715
0.0073982
0.119371
0.0749819
0.057424
0.049024
0.0434731
0.0393066
0.0360391
0.0333376
0.0310595
0.0290962
0.0273865
0.0258805
0.0245452
0.0233533
0.0222833
0.0213191
0.0204461
0.0196526
0.0189299
0.0182689
0.0176629
0.017106
0.0165933
0.0161198
0.015682
0.0152763
0.0149
0.0145499
0.0142243
0.0139205
0.0136369
0.0133719
0.013124
0.0128916
0.0126739
0.0124692
0.0122772
0.0120963
0.0119262
0.0117659
0.0116149
0.0114722
0.0113377
0.0112105
0.0110905
0.0109767
0.0108695
0.0107677
0.0106717
0.0105806
0.0104948
0.0104134
0.0103368
0.0102641
0.0101961
0.0101316
0.0100715
0.0100148
0.00996238
0.00991312
0.00986835
0.00982651
0.00978931
0.00976117
0.00974155
0.00972356
0.00970827
0.00969446
0.00968324
0.00967334
0.00966595
0.00965971
0.00965595
0.00965311
0.00965279
0.00965311
0.00965614
0.00965937
0.00966573
0.0096716
0.00968143
0.00968953
0.00970317
0.00971286
0.00973113
0.00974037
0.00976951
0.00967479
0.142186
0.0918239
0.070399
0.06029
0.0536049
0.0485888
0.0446512
0.0413959
0.0386499
0.0362838
0.0342227
0.0324075
0.0307975
0.0293602
0.0280695
0.0269056
0.0258514
0.0248925
0.0240182
0.0232178
0.0224834
0.0218075
0.0211844
0.0206084
0.0200749
0.0195797
0.0191197
0.0186912
0.0182917
0.0179186
0.0175697
0.017243
0.0169369
0.0166494
0.0163795
0.0161255
0.0158866
0.0156613
0.0154491
0.0152486
0.0150594
0.0148805
0.0147115
0.0145513
0.0144
0.0142564
0.0141207
0.0139918
0.01387
0.0137543
0.0136449
0.0135412
0.0134432
0.0133504
0.013263
0.0131803
0.0131029
0.0130299
0.0129619
0.0128983
0.0128397
0.0127854
0.0127362
0.0126993
0.0126729
0.0126491
0.0126282
0.0126096
0.0125938
0.0125801
0.0125691
0.01256
0.0125534
0.0125486
0.0125461
0.0125453
0.0125468
0.0125496
0.0125549
0.0125611
0.0125701
0.0125792
0.0125921
0.0126035
0.0126206
0.0126323
0.0126599
0.0125642
0.166711
0.111176
0.0856998
0.0735662
0.0655403
0.0595153
0.0547794
0.050866
0.0475656
0.0447244
0.0422507
0.040074
0.0381442
0.0364222
0.0348765
0.0334829
0.0322207
0.0310727
0.0300256
0.0290669
0.0281869
0.0273767
0.0266292
0.0259378
0.0252971
0.024702
0.0241485
0.0236326
0.0231512
0.0227011
0.0222798
0.0218849
0.0215144
0.0211662
0.0208389
0.0205306
0.0202402
0.0199661
0.0197075
0.0194631
0.0192321
0.0190135
0.0188066
0.0186105
0.0184249
0.0182487
0.0180818
0.0179233
0.0177731
0.0176305
0.0174954
0.0173672
0.0172459
0.0171309
0.0170224
0.0169197
0.0168231
0.0167322
0.0166471
0.0165675
0.0164936
0.0164253
0.0163627
0.0163158
0.0162819
0.0162513
0.016224
0.0161997
0.0161786
0.0161603
0.0161448
0.016132
0.0161219
0.0161142
0.016109
0.016106
0.0161053
0.0161067
0.0161103
0.0161155
0.0161231
0.0161318
0.0161432
0.0161547
0.01617
0.0161824
0.0162075
0.0161164
0.191839
0.13273
0.103498
0.0889896
0.0794012
0.0721861
0.0665032
0.061811
0.0578569
0.0544582
0.0515028
0.048906
0.0466065
0.0445567
0.0427187
0.0410625
0.0395635
0.038201
0.0369584
0.0358212
0.0347775
0.0338167
0.0329302
0.0321102
0.0313502
0.0306441
0.0299872
0.0293748
0.028803
0.0282682
0.0277675
0.0272979
0.026857
0.0264426
0.0260526
0.0256852
0.0253388
0.0250118
0.0247031
0.024411
0.0241349
0.0238733
0.0236256
0.0233908
0.0231682
0.0229568
0.0227564
0.0225661
0.0223855
0.022214
0.0220513
0.0218968
0.0217504
0.0216116
0.0214803
0.021356
0.0212389
0.0211285
0.0210248
0.0209278
0.0208374
0.0207535
0.0206763
0.0206181
0.0205758
0.0205373
0.0205028
0.0204718
0.0204445
0.0204205
0.0203997
0.0203821
0.0203675
0.0203558
0.0203468
0.0203405
0.0203366
0.0203351
0.0203359
0.0203387
0.0203437
0.0203503
0.0203591
0.0203689
0.0203812
0.0203934
0.0204051
0.0203324
0.215906
0.155839
0.123756
0.106545
0.0951882
0.0865875
0.0797929
0.0741884
0.0694715
0.0654259
0.0619148
0.058836
0.0561144
0.0536922
0.0515234
0.0495714
0.0478065
0.0462038
0.0447433
0.0434076
0.0421823
0.0410549
0.0400151
0.0390535
0.0381625
0.0373349
0.036565
0.0358472
0.0351771
0.0345504
0.0339635
0.0334131
0.0328963
0.0324103
0.031953
0.0315221
0.0311157
0.030732
0.0303695
0.0300267
0.0297023
0.0293951
0.029104
0.0288279
0.0285661
0.0283175
0.0280816
0.0278575
0.0276448
0.0274426
0.0272507
0.0270684
0.0268955
0.0267314
0.026576
0.0264288
0.0262898
0.0261586
0.0260351
0.0259193
0.025811
0.0257102
0.025617
0.0255462
0.0254944
0.0254471
0.0254041
0.0253654
0.0253307
0.0252998
0.0252726
0.0252489
0.0252285
0.0252113
0.0251972
0.0251859
0.0251774
0.0251713
0.0251677
0.0251664
0.0251672
0.0251698
0.0251744
0.0251802
0.0251883
0.0251962
0.0252056
0.0251418
0.236665
0.179481
0.146013
0.126004
0.112664
0.102485
0.094413
0.0877623
0.0821741
0.0773942
0.0732563
0.069637
0.0664449
0.0636094
0.0610752
0.0587978
0.0567414
0.0548765
0.0531786
0.0516273
0.0502053
0.048898
0.047693
0.0465792
0.0455477
0.04459
0.0436993
0.0428693
0.0420945
0.0413701
0.0406919
0.0400559
0.0394588
0.0388975
0.0383692
0.0378714
0.037402
0.0369589
0.0365402
0.0361442
0.0357695
0.0354145
0.0350782
0.0347592
0.0344566
0.0341693
0.0338965
0.0336374
0.0333912
0.0331573
0.0329351
0.0327239
0.0325234
0.0323331
0.0321526
0.0319815
0.0318196
0.0316665
0.0315222
0.0313864
0.031259
0.0311399
0.0310293
0.0309445
0.030882
0.0308247
0.0307722
0.0307243
0.0306809
0.0306417
0.0306065
0.0305752
0.0305475
0.0305232
0.0305022
0.0304842
0.0304691
0.0304567
0.0304468
0.0304392
0.0304338
0.0304303
0.0304288
0.0304286
0.0304306
0.0304316
0.0304407
0.0303843
0.251388
0.202073
0.16923
0.146661
0.131144
0.119241
0.109761
0.101959
0.0954157
0.0898363
0.0850204
0.0808199
0.0771247
0.0738498
0.0709287
0.0683083
0.0659458
0.0638063
0.0618608
0.0600851
0.058459
0.0569654
0.0555896
0.0543189
0.0531427
0.0520514
0.0510369
0.0500919
0.0492102
0.0483861
0.0476148
0.0468917
0.046213
0.0455752
0.044975
0.0444096
0.0438765
0.0433733
0.0428979
0.0424483
0.0420229
0.04162
0.0412382
0.0408762
0.0405326
0.0402065
0.0398968
0.0396026
0.039323
0.0390572
0.0388046
0.0385645
0.0383364
0.0381196
0.0379138
0.0377184
0.0375333
0.0373579
0.0371922
0.0370357
0.0368884
0.03675