/*--------------------------------*- C++ -*----------------------------------*\
| =========                 |                                                 |
| \\      /  F ield         | OpenFOAM: The Open Source CFD Toolbox           |
|  \\    /   O peration     | Version:  2306                                  |
|   \\  /    A nd           | Website:  www.openfoam.com                      |
|    \\/     M anipulation  |                                                 |
\*---------------------------------------------------------------------------*/
FoamFile
{
    version     2.0;
    format      ascii;
    arch        "LSB;label=32;scalar=64";
    class       volScalarField;
    location    "1800";
    object      omega;
}
// * * * * * * * * * * * * * * * * * * * * * * * * * * * * * * * * * * * * * //

dimensions      [0 0 -1 0 0 0 0];

internalField   nonuniform List<scalar> 
20540
(
1766.42
2500.17
1766.35
2499.34
1765.96
2498.04
1765.28
2496.29
1764.22
2494.02
1762.73
2491.14
1760.71
2487.52
1758.04
2483
1754.6
2477.39
1750.24
2470.46
1744.75
2461.92
1737.92
2451.43
1729.47
2438.57
1719.09
2422.87
1706.39
2403.73
1690.93
2380.49
1672.18
2352.34
1649.55
2318.39
1622.33
2277.62
1589.76
2228.89
1550.98
2171.02
1505.09
2102.77
1451.15
2022.98
1388.26
1930.66
1315.65
1825.15
1232.68
1706.38
1139
1575.14
1034.36
1433.5
918.293
1284.86
788.917
1130.94
663.702
996.924
579.689
909.538
586.211
915.971
679.75
1009.31
805.962
1143.98
932.623
1293.76
1046.37
1437.79
1149.18
1574.63
1241.52
1701.64
1323.6
1816.9
1395.76
1919.66
1458.54
2009.97
1512.66
2088.39
1558.96
2155.82
1598.29
2213.32
1631.52
2262.03
1659.45
2303.04
1682.83
2337.4
1702.32
2366.08
1718.51
2389.94
1731.91
2409.72
1742.95
2426.07
1752.01
2439.57
1759.41
2450.68
1765.42
2459.8
1770.27
2467.28
1774.14
2473.39
1777.2
2478.38
1779.59
2482.43
1781.4
2485.71
1782.75
2488.34
1783.7
2490.45
1784.32
2492.1
1784.67
2493.35
1784.79
2494.17
7.14214e+06
7.11613e+06
7.11346e+06
7.11189e+06
7.11105e+06
7.11037e+06
7.1099e+06
7.10951e+06
7.1092e+06
7.10894e+06
7.10872e+06
7.10853e+06
7.10837e+06
7.10822e+06
7.10809e+06
7.10798e+06
7.10788e+06
7.10779e+06
7.10771e+06
7.10763e+06
7.10756e+06
7.1075e+06
7.10744e+06
7.10739e+06
7.10734e+06
7.1073e+06
7.10726e+06
7.10722e+06
7.10719e+06
7.10715e+06
7.10712e+06
7.10709e+06
7.10707e+06
7.10704e+06
7.10702e+06
7.107e+06
7.10698e+06
7.10696e+06
7.10694e+06
7.10692e+06
7.1069e+06
7.10689e+06
7.10687e+06
7.10686e+06
7.10685e+06
7.10684e+06
7.10683e+06
7.10682e+06
7.10681e+06
7.1068e+06
7.10679e+06
7.10678e+06
7.10678e+06
7.10677e+06
7.10677e+06
7.10677e+06
7.10677e+06
7.10677e+06
7.10677e+06
7.10678e+06
7.10678e+06
7.10679e+06
7.10681e+06
7.10682e+06
7.10683e+06
7.10685e+06
7.10686e+06
7.10688e+06
7.1069e+06
7.10692e+06
7.10694e+06
7.10697e+06
7.10699e+06
7.10702e+06
7.10705e+06
7.10709e+06
7.10713e+06
7.10717e+06
7.10721e+06
7.10726e+06
7.10732e+06
7.10737e+06
7.10746e+06
7.10751e+06
7.10764e+06
7.10776e+06
7.10782e+06
7.10826e+06
1.37051e+06
1.3848e+06
1.36818e+06
1.34612e+06
1.33189e+06
1.31913e+06
1.30964e+06
1.30141e+06
1.29462e+06
1.28872e+06
1.28362e+06
1.27913e+06
1.27516e+06
1.27162e+06
1.26844e+06
1.26559e+06
1.263e+06
1.26065e+06
1.25851e+06
1.25655e+06
1.25475e+06
1.25309e+06
1.25157e+06
1.25016e+06
1.24885e+06
1.24763e+06
1.24651e+06
1.24545e+06
1.24447e+06
1.24355e+06
1.24269e+06
1.24189e+06
1.24113e+06
1.24042e+06
1.23975e+06
1.23912e+06
1.23853e+06
1.23797e+06
1.23745e+06
1.23695e+06
1.23648e+06
1.23603e+06
1.23562e+06
1.23522e+06
1.23485e+06
1.2345e+06
1.23418e+06
1.23388e+06
1.2336e+06
1.23335e+06
1.23312e+06
1.23292e+06
1.23274e+06
1.2326e+06
1.23249e+06
1.23242e+06
1.23239e+06
1.2324e+06
1.23247e+06
1.23259e+06
1.23277e+06
1.23303e+06
1.23337e+06
1.23373e+06
1.23406e+06
1.23442e+06
1.23483e+06
1.23528e+06
1.23578e+06
1.23631e+06
1.2369e+06
1.23753e+06
1.23821e+06
1.23895e+06
1.23975e+06
1.24059e+06
1.24154e+06
1.24248e+06
1.24364e+06
1.24466e+06
1.24616e+06
1.24727e+06
1.24922e+06
1.25058e+06
1.2532e+06
1.254e+06
1.26209e+06
1.26184e+06
488911
532621
553748
551568
547186
541319
536389
531745
527707
524069
520833
517910
515280
512891
510716
508735
506917
505247
503711
502292
500980
499763
498633
497581
496601
495685
494829
494028
493276
492571
491908
491284
490696
490142
489619
489125
488658
488217
487800
487405
487031
486677
486343
486028
485731
485452
485191
484947
484723
484517
484331
484167
484025
483908
483817
483756
483727
483735
483780
483871
484015
484210
484473
484751
485004
485282
485590
485928
486298
486697
487130
487591
488095
488620
489202
489783
490460
491068
491869
492474
493413
494049
495000
495890
496440
497573
496399
511537
253419
255635
276398
282837
284281
283047
281393
279470
277625
275869
274249
272752
271381
270122
268964
267902
266924
266020
265187
264415
263700
263035
262417
261841
261304
260802
260332
259892
259479
259091
258727
258384
258060
257755
257467
257195
256938
256695
256465
256248
256042
255847
255662
255488
255324
255170
255025
254890
254765
254650
254546
254453
254372
254304
254249
254210
254188
254185
254201
254238
254304
254395
254520
254653
254775
254909
255054
255214
255389
255576
255779
255991
256226
256461
256733
256980
257295
257532
257895
258109
258486
258717
258968
259299
259216
259407
257869
271285
160327
145823
156538
163638
167178
168101
168086
167525
166764
165921
165070
164241
163451
162706
162008
161357
160751
160186
159660
159171
158715
158290
157893
157523
157176
156852
156547
156262
155994
155742
155505
155281
155070
154871
154684
154506
154338
154180
154029
153887
153752
153624
153504
153389
153282
153180
153084
152995
152911
152834
152764
152700
152643
152594
152552
152520
152497
152484
152484
152493
152518
152556
152613
152675
152732
152797
152866
152942
153025
153113
153210
153308
153418
153522
153649
153751
153896
153983
154142
154210
154350
154411
154472
154480
154433
154054
153293
162428
112594
94572.1
97563.7
102338
105914
107722
108596
108846
108774
108516
108159
107758
107335
106914
106502
106104
105725
105366
105026
104706
104404
104121
103854
103604
103368
103147
102938
102742
102557
102383
102219
102063
101917
101778
101647
101523
101406
101295
101189
101089
100994
100905
100819
100739
100662
100590
100522
100458
100398
100342
100291
100243
100200
100161
100128
100099
100076
100059
100049
100045
100048
100058
100079
100103
100126
100154
100182
100215
100250
100287
100327
100366
100411
100450
100500
100533
100585
100606
100654
100660
100683
100669
100645
100552
100489
100060
99594.6
105705
83911.8
66949.9
65749.8
67958.1
70549.5
72366.5
73558.1
74237.3
74584.5
74711.2
74694.3
74593.1
74432.2
74241.4
74032.8
73816
73598.1
73383.5
73174.1
72971.9
72777.8
72592.6
72416
72248.1
72088.8
71937.7
71794.5
71658.9
71530.4
71408.7
71293.4
71184.2
71080.7
70982.5
70889.3
70801
70717.2
70637.6
70562
70490.1
70421.9
70357.1
70295.5
70237.1
70181.6
70129
70079.2
70032.1
69987.7
69946
69907
69870.6
69837
69806.2
69778.3
69753.4
69731.8
69713.2
69698.6
69686.9
69679.4
69675
69675.6
69678.8
69682.6
69689.1
69695.8
69703.8
69712.2
69720.9
69730.2
69737.9
69747.4
69751.6
69760.1
69758.8
69759.7
69749.9
69739.1
69716.6
69681.3
69634.8
69573.3
69454.8
69364.8
69116
68544.2
72705.2
64873.1
50248.2
47125
47543.9
48950.7
50306.8
51406.8
52200.7
52742.5
53089.4
53290.8
53392.6
53418.5
53396
53338.5
53256.6
53160
53054.9
52943.9
52830.9
52717.8
52606.6
52497.4
52391.4
52289
52190.3
52095.6
52004.9
51918.1
51835.2
51756
51680.5
51608.5
51539.8
51474.4
51412.1
51352.7
51296
51242.1
51190.7
51141.7
51095
51050.5
51008.1
50967.7
50929.3
50892.7
50857.9
50825
50793.7
50764.2
50736.2
50710
50685.4
50662.5
50641.1
50621.6
50603.5
50587.6
50572.7
50559.8
50547.7
50537.8
50529.9
50523.6
50518.3
50512.8
50507.4
50501.3
50494.9
50487.5
50478.7
50469
50455.6
50442.4
50422.5
50401.5
50374.3
50338.1
50304.6
50243
50191.1
50104.5
50012.9
49877.3
49720.8
49232.9
51919.8
51375.6
39234.7
35408.5
34780.5
35256.2
36031.5
36825.7
37515.3
38069.1
38492.8
38802.1
39022.7
39169.3
39261.7
39312.2
39330.1
39324.9
39303.6
39268.4
39224.8
39174.8
39121.6
39065.3
39007.9
38950.1
38892.6
38835.9
38780.4
38726.2
38673.5
38622.5
38573.3
38525.8
38480.1
38436.1
38394
38353.4
38314.6
38277.3
38241.6
38207.5
38174.7
38143.3
38113.3
38084.6
38057.1
38030.7
38005.5
37981.5
37958.4
37936.4
37915.2
37895.1
37875.8
37857.3
37839.5
37822.7
37806.2
37790.6
37775.1
37760.2
37744.9
37729.9
37716.7
37705.5
37694.3
37682.5
37670.3
37657
37643
37627.2
37610.3
37591.5
37569.7
37547.3
37518.7
37489.5
37454.6
37410.4
37372.9
37304.8
37255.8
37163.1
37091.2
36948
36836.1
36459.3
38110.3
41361.5
31490.7
27567.2
26403.1
26277
26556.5
27002.5
27481.3
27928.2
28318
28641.2
28903.9
29108.8
29266.6
29384.9
29470
29529.3
29568.6
29590.6
29599.9
29599
29591.3
29576.8
29558
29536
29511.4
29485.4
29458.3
29430.4
29402.2
29374
29346
29318.3
29291.1
29264.5
29238.6
29213.4
29188.9
29165.1
29142.1
29119.8
29098.3
29077.5
29057.4
29038.1
29019.4
29001.4
28983.9
28967.1
28950.8
28935
28919.7
28904.7
28890.1
28875.8
28861.6
28847.6
28833.5
28819.4
28804.8
28790
28774.2
28757.5
28742.5
28729.5
28715.9
28701.6
28686.6
28670.3
28653.2
28634.2
28614.2
28592.1
28567.3
28542.2
28510.7
28480.7
28443.2
28400.7
28362.2
28298
28254.7
28167.5
28108.8
27980
27896
27605
28696.2
33686.8
25778.1
22045.1
20655.8
20178.6
20120.6
20269.8
20525.4
20816.5
21107.7
21378.2
21621.4
21830.6
22008.1
22155.8
22276.2
22373.5
22451.3
22511.9
22558.5
22593.4
22619.3
22636.8
22648
22654
22655.7
22654.1
22649.9
22643.3
22635
22625.4
22614.9
22603.5
22591.6
22579.3
22566.9
22554.2
22541.5
22528.9
22516.4
22504
22491.8
22479.9
22468.1
22456.6
22445.2
22434.2
22423.3
22412.6
22402
22391.6
22381.2
22370.9
22360.5
22350.1
22339.4
22328.5
22317.1
22305.2
22292.6
22279
22264.5
22248.1
22233.4
22220.4
22206.8
22192.1
22176.8
22159.9
22142.7
22123.1
22103.2
22080.8
22056.4
22031.8
22001
21973.3
21936.6
21899.6
21862.2
21806.5
21769.2
21692
21643.6
21536.5
21470.5
21247.4
21996.6
27664.1
21407.6
17993.4
16553.1
15898
15630.8
15575.6
15644.8
15784.6
15958
16143.2
16328.9
16503.2
16663.7
16807.5
16933.8
17043.7
17138.4
17218.8
17286.9
17343.9
17391.7
17431.2
17463.6
17490
17511.3
17528.2
17541.6
17551.7
17559.2
17564.5
17567.9
17569.8
17570.3
17569.8
17568.4
17566.2
17563.3
17560
17556.2
17552.1
17547.7
17543.1
17538.3
17533.4
17528.3
17523.1
17517.8
17512.4
17506.8
17501.1
17495.1
17489
17482.4
17475.6
17468.3
17460.4
17451.9
17442.6
17432.6
17421
17408.7
17393.8
17380.8
17368.7
17356.4
17342.6
17328.6
17312.5
17296.8
17278.1
17260
17238.8
17216.9
17194.1
17166.3
17141.7
17108.3
17077.2
17042.7
16996.3
16964.8
16898.5
16859.1
16772.5
16720.1
16549.1
17074.2
22854.2
17968.3
14921.4
13523.3
12797
12416.6
12232.1
12172.9
12191.7
12259.2
12356
12471
12590.6
12711.5
12828
12937.2
13038.4
13130.5
13213.2
13287.2
13352.8
13410.7
13461.5
13506
13544.8
13578.6
13607.9
13633.3
13655.3
13674.2
13690.5
13704.4
13716.4
13726.5
13735.2
13742.5
13748.6
13753.6
13757.8
13761.1
13763.8
13765.8
13767.3
13768.3
13768.9
13769
13768.8
13768.2
13767.3
13765.9
13764.2
13762.1
13759.6
13756.5
13753
13748.9
13744
13738.4
13731.8
13724.5
13715.3
13705.7
13693
13682.3
13671.7
13661.4
13649.1
13637.2
13622.7
13609.3
13592.3
13577
13557.7
13539.3
13518.7
13495.2
13473.4
13445.1
13418.5
13389
13350.5
13323.6
13269.5
13237.4
13167.5
13126.7
12994.2
13364
18962.7
15201.2
12529.5
11221.2
10486
10055
9799.01
9658.84
9594.42
9582.86
9604.85
9654.29
9717.03
9790.8
9868.71
9947.61
10026
10101.2
10172.4
10239.2
10301.1
10358
10410.1
10457.6
10500.6
10539.5
10574.7
10606.3
10634.9
10660.5
10683.5
10704.2
10722.8
10739.5
10754.5
10768
10780
10790.9
10800.6
10809.3
10817.1
10824.1
10830.3
10835.9
10840.8
10845.1
10848.9
10852.1
10854.8
10857
10858.6
10859.8
10860.3
10860.2
10859.7
10858.4
10856.2
10853.2
10849.3
10844.6
10837.9
10831.1
10821
10812.8
10803.9
10795.9
10785.3
10775.9
10763.2
10752.5
10737.6
10725.4
10708.4
10693.6
10675.3
10656.7
10637.1
10614.7
10591.4
10567.8
10535.7
10513.4
10469.7
10443.8
10387.6
10356.4
10253
10516.8
15783.7
12935.2
10626.7
9429.81
8720.71
8277.5
7988.72
7803.73
7688.08
7622.72
7591.83
7589.87
7604.04
7634.53
7673.61
7718.86
7768.78
7819.74
7871.22
7922.34
7971.76
8019.12
8064.18
8106.75
8146.67
8183.92
8218.55
8250.72
8280.47
8307.97
8333.35
8356.75
8378.3
8398.15
8416.42
8433.25
8448.74
8463
8476.13
8488.22
8499.35
8509.59
8519.01
8527.67
8535.6
8542.87
8549.47
8555.49
8560.87
8565.7
8569.9
8573.54
8576.52
8578.9
8580.52
8581.64
8581.6
8581.06
8579.48
8577.02
8572.85
8568.55
8560.97
8555.26
8548.09
8542.28
8533.48
8526.47
8515.8
8507.72
8494.98
8485.69
8471.05
8459.82
8443.8
8429.74
8412.29
8395.51
8374.93
8356.98
8330.15
8312.24
8277.31
8256.5
8211.74
8187.95
8107.28
8297.51
13168.7
11053.3
9085.76
8007.9
7343.31
6910.47
6613.2
6407.87
6264.55
6166.94
6101.86
6063.8
6043.39
6039.73
6046.15
6061.45
6084.18
6110.32
6139.95
6171.96
6204.69
6237.74
6270.69
6303.13
6334.65
6364.99
6394.07
6421.88
6448.25
6473.26
6496.87
6519.11
6540.02
6559.68
6578.13
6595.44
6611.65
6626.84
6641.05
6654.37
6666.81
6678.46
6689.33
6699.5
6708.96
6717.79
6725.96
6733.57
6740.52
6746.94
6752.71
6757.96
6762.51
6766.55
6769.77
6772.52
6774.25
6775.48
6775.45
6774.86
6773.06
6770.53
6765.47
6761.75
6756.27
6752.3
6745.29
6740.36
6731.67
6725.81
6715.32
6708.45
6696.27
6687.93
6674.35
6664.02
6648.92
6636.66
6618.97
6605.55
6583.49
6569.31
6541.69
6524.91
6489.91
6471.6
6409.65
6546.72
11007.1
9472.41
7819.3
6860.16
6248.86
5838.93
5547.75
5337.67
5182.57
5068.27
4983.57
4923.2
4880.02
4852.33
4835.48
4827.81
4828.37
4833.32
4843.42
4857.38
4873.38
4891.26
4910.57
4930.79
4951.41
4972.06
4992.65
5013.03
5032.9
5052.3
5071.08
5089.15
5106.54
5123.21
5139.15
5154.38
5168.89
5182.7
5195.82
5208.29
5220.1
5231.32
5241.91
5251.95
5261.4
5270.34
5278.7
5286.61
5293.92
5300.8
5307.07
5312.92
5318.1
5322.87
5326.88
5330.47
5333.19
5335.42
5336.69
5337.18
5336.75
5335.57
5332.75
5330.31
5326.46
5323.75
5318.5
5315.02
5308.3
5304.03
5295.8
5290.68
5280.95
5274.79
5263.66
5256.11
5243.53
5234.59
5219.93
5209.89
5192.14
5181.06
5159.44
5146.15
5119.15
5104.81
5058.91
5156.43
9214.71
8132.37
6765.39
5920.36
5365.6
4985.01
4708.23
4502.84
4346.05
4225.45
4131.39
4058.93
4002.41
3959.79
3927.68
3904.28
3888.77
3878.5
3873.3
3872.66
3874.55
3879.19
3886.1
3894.75
3904.55
3915.18
3926.6
3938.56
3950.72
3963.14
3975.52
3987.81
3999.96
4011.92
4023.61
4035.02
4046.09
4056.83
4067.2
4077.21
4086.83
4096.1
4104.96
4113.47
4121.57
4129.34
4136.67
4143.69
4150.24
4156.5
4162.25
4167.71
4172.59
4177.19
4181.14
4184.77
4187.66
4190.19
4191.86
4193.11
4193.21
4192.78
4191.39
4189.78
4187.18
4185.26
4181.5
4178.94
4173.97
4170.75
4164.53
4160.62
4153.13
4148.48
4139.7
4134.08
4124.03
4117.38
4105.7
4098.1
4084.21
4075.59
4058.94
4048.63
4028.15
4016.95
3983.95
4052.05
7725.68
6988.34
5879.08
5141.23
4643.09
4294.67
4036.7
3841.41
3689.04
3568.69
3472.02
3394.45
3331.35
3280.59
3239.56
3206.54
3180.72
3160.25
3144.55
3133.25
3125.01
3119.62
3116.69
3115.95
3116.67
3118.65
3121.95
3126.2
3131.07
3136.69
3142.64
3148.92
3155.49
3162.25
3169.09
3176
3182.89
3189.76
3196.55
3203.23
3209.77
3216.19
3222.43
3228.53
3234.39
3240.11
3245.56
3250.85
3255.83
3260.65
3265.1
3269.39
3273.26
3276.94
3280.13
3283.12
3285.52
3287.69
3289.13
3290.34
3290.64
3290.4
3289.55
3288.41
3286.55
3285.14
3282.36
3280.44
3276.7
3274.25
3269.53
3266.53
3260.82
3257.18
3250.51
3246.13
3238.44
3233.29
3224.37
3218.45
3207.94
3201.19
3188.67
3180.83
3165.58
3156.98
3133.95
3180.37
6487.78
6006.3
5127.16
4488.18
4045.04
3729.55
3492.4
3310.12
3165.66
3049.51
2954.42
2876.22
2811.04
2756.8
2711.4
2673.26
2641.58
2614.99
2592.81
2574.68
2559.67
2547.46
2537.66
2530.06
2524.18
2519.75
2516.68
2514.81
2513.78
2513.8
2514.26
2515.33
2516.99
2519.04
2521.41
2524.08
2526.93
2530
2533.19
2536.45
2539.78
2543.18
2546.56
2549.96
2553.3
2556.64
2559.86
2563.06
2566.09
2569.08
2571.85
2574.57
2577.01
2579.37
2581.39
2583.31
2584.8
2586.17
2586.99
2587.67
2587.65
2587.35
2586.46
2585.47
2583.92
2582.76
2580.54
2579
2576.1
2574.08
2570.52
2568.01
2563.78
2560.74
2555.81
2552.24
2546.54
2542.4
2535.8
2531.08
2523.36
2518.03
2508.9
2502.88
2491.87
2485.45
2469.81
2500.53
5458.71
5159.93
4484.73
3935.33
3544.79
3261.79
3046.12
2878.21
2743.5
2633.76
2542.72
2466.63
2402.22
2347.52
2300.77
2260.58
2226.14
2196.43
2170.74
2148.71
2129.67
2113.28
2099.17
2087.14
2076.86
2068.08
2060.63
2054.44
2049.2
2044.98
2041.48
2038.65
2036.46
2034.81
2033.61
2032.84
2032.38
2032.3
2032.42
2032.73
2033.27
2033.99
2034.81
2035.77
2036.78
2037.9
2039.01
2040.2
2041.34
2042.53
2043.62
2044.74
2045.7
2046.67
2047.43
2048.16
2048.61
2049.03
2049.06
2048.94
2048.56
2047.91
2046.61
2045.57
2044.14
2042.99
2041.16
2039.68
2037.43
2035.58
2032.9
2030.67
2027.53
2024.92
2021.29
2018.3
2014.12
2010.73
2005.92
2002.14
1996.57
1992.39
1985.85
1981.29
1973.51
1968.83
1958.48
1978.13
4603.71
4430.67
3930.07
3463
3122.31
2870.81
2676.47
2523.36
2399.23
2297.05
2211.43
2139.03
2077.08
2023.75
1977.57
1937.29
1902.15
1871.32
1844.17
1820.3
1799.22
1780.58
1764.08
1749.51
1736.6
1725.16
1715
1706.06
1698.09
1691.1
1684.9
1679.42
1674.59
1670.36
1666.63
1663.38
1660.52
1658.06
1655.92
1654.05
1652.45
1651.09
1649.92
1648.95
1648.11
1647.44
1646.84
1646.38
1645.96
1645.64
1645.32
1645.07
1644.78
1644.53
1644.18
1643.86
1643.39
1642.91
1642.21
1641.47
1640.43
1639.37
1637.82
1636.52
1635.17
1633.92
1632.34
1630.86
1629.02
1627.29
1625.17
1623.18
1620.77
1618.52
1615.78
1613.28
1610.18
1607.42
1603.91
1600.89
1596.89
1593.63
1589.02
1585.6
1580.19
1576.83
1570.11
1582.2
3893.8
3803.73
3446.32
3055.99
2762.39
2541.1
2367.55
2229.16
2115.85
2021.7
1942.15
1874.28
1815.72
1764.83
1720.35
1681.18
1646.61
1615.95
1588.64
1564.28
1542.49
1522.95
1505.37
1489.57
1475.32
1462.47
1450.83
1440.33
1430.79
1422.16
1414.33
1407.22
1400.75
1394.88
1389.54
1384.68
1380.25
1376.22
1372.54
1369.2
1366.13
1363.34
1360.78
1358.46
1356.31
1354.36
1352.54
1350.89
1349.33
1347.9
1346.53
1345.27
1344.03
1342.86
1341.68
1340.55
1339.36
1338.2
1336.92
1335.64
1334.18
1332.71
1330.98
1329.47
1328.14
1326.82
1325.37
1323.92
1322.31
1320.72
1318.95
1317.2
1315.25
1313.33
1311.2
1309.12
1306.78
1304.52
1301.94
1299.54
1296.67
1294.13
1290.91
1288.32
1284.65
1282.16
1277.86
1285.03
3304.47
3266.38
3021.26
2702.6
2453.37
2260.89
2107.38
1983.34
1880.74
1794.7
1721.45
1658.47
1603.75
1555.87
1513.7
1476.32
1443.06
1413.34
1386.66
1362.66
1341
1321.4
1303.61
1287.45
1272.73
1259.3
1247.02
1235.79
1225.48
1216.03
1207.34
1199.35
1191.98
1185.19
1178.92
1173.13
1167.77
1162.81
1158.21
1153.95
1149.98
1146.3
1142.87
1139.69
1136.7
1133.93
1131.31
1128.88
1126.57
1124.42
1122.35
1120.42
1118.54
1116.76
1115.02
1113.34
1111.67
1110.04
1108.37
1106.72
1105
1103.25
1101.39
1099.79
1098.46
1097.13
1095.75
1094.37
1092.92
1091.46
1089.94
1088.4
1086.78
1085.15
1083.44
1081.71
1079.89
1078.07
1076.13
1074.22
1072.15
1070.17
1067.94
1065.94
1063.51
1061.6
1058.82
1062.91
2814.82
2807.57
2646.08
2393.96
2186.32
2021.19
1886.86
1776.65
1684.45
1606.39
1539.4
1481.39
1430.67
1386.02
1346.46
1311.21
1279.66
1251.3
1225.71
1202.55
1181.51
1162.36
1144.88
1128.89
1114.23
1100.78
1088.38
1076.97
1066.42
1056.68
1047.66
1039.29
1031.52
1024.31
1017.59
1011.34
1005.51
1000.06
994.975
990.221
985.764
981.593
977.674
974
970.539
967.288
964.215
961.323
958.578
955.986
953.513
951.169
948.917
946.769
944.688
942.686
940.728
938.822
936.933
935.07
933.196
931.318
929.398
927.765
926.46
925.163
923.86
922.556
921.24
919.916
918.575
917.222
915.848
914.461
913.049
911.625
910.172
908.71
907.214
905.718
904.176
902.658
901.065
899.551
897.884
896.452
894.608
896.819
2406.72
2417.77
2314.39
2123.58
1954.54
1815.22
1699.12
1602.15
1519.92
1449.54
1388.64
1335.5
1288.75
1247.36
1210.5
1177.5
1147.82
1121.02
1096.74
1074.65
1054.52
1036.11
1019.23
1003.72
989.436
976.263
964.085
952.811
942.354
932.643
923.609
915.197
907.35
900.025
893.176
886.768
880.762
875.133
869.846
864.881
860.208
855.813
851.667
847.761
844.069
840.584
837.282
834.159
831.191
828.376
825.692
823.137
820.691
818.351
816.099
813.93
811.829
809.789
807.796
805.841
803.91
801.994
800.076
798.472
797.211
795.971
794.745
793.533
792.33
791.135
789.945
788.759
787.574
786.392
785.211
784.031
782.851
781.673
780.493
779.32
778.143
776.979
775.805
774.668
773.484
772.421
771.142
772.25
2064.63
2087.48
2022.79
1887.26
1753.29
1638.08
1539.17
1454.7
1381.92
1318.85
1263.74
1215.25
1172.33
1134.1
1099.88
1069.11
1041.32
1016.14
993.229
972.327
953.2
935.654
919.515
904.64
890.899
878.183
866.392
855.442
845.255
835.764
826.909
818.637
810.899
803.653
796.857
790.48
784.487
778.852
773.545
768.546
763.83
759.38
755.174
751.198
747.433
743.869
740.487
737.279
734.229
731.328
728.563
725.927
723.406
720.992
718.676
716.448
714.299
712.22
710.201
708.234
706.309
704.415
702.545
701
699.799
698.628
697.484
696.365
695.267
694.189
693.13
692.086
691.059
690.046
689.046
688.061
687.089
686.131
685.186
684.256
683.339
682.44
681.55
680.687
679.817
679.024
678.09
678.572
1775.01
1808.68
1770.62
1681.81
1579.73
1486.65
1403.65
1330.82
1266.85
1210.58
1160.86
1116.73
1077.37
1042.11
1010.39
981.736
955.76
932.131
910.57
890.838
872.732
856.075
840.717
826.525
813.384
801.194
789.865
779.32
769.489
760.31
751.727
743.692
736.161
729.093
722.453
716.208
710.328
704.789
699.563
694.631
689.97
685.563
681.392
677.442
673.697
670.145
666.772
663.567
660.518
657.615
654.848
652.207
649.684
647.269
644.954
642.731
640.593
638.529
636.535
634.6
632.72
630.883
629.086
627.616
626.482
625.385
624.323
623.293
622.293
621.32
620.374
619.453
618.556
617.681
616.828
615.997
615.188
614.398
613.629
612.88
612.15
611.441
610.749
610.081
609.42
608.817
608.1
608.24
1527.02
1576.35
1558.28
1506.8
1433.21
1359.74
1290.99
1228.65
1172.63
1122.5
1077.65
1037.44
1001.3
968.723
939.256
912.523
888.195
865.991
845.67
827.022
809.868
794.052
779.437
765.906
753.352
741.685
730.824
720.697
711.239
702.395
694.113
686.348
679.059
672.208
665.763
659.694
653.972
648.573
643.475
638.656
634.098
629.782
625.694
621.817
618.139
614.647
611.328
608.172
605.168
602.307
599.579
596.976
594.489
592.11
589.833
587.649
585.552
583.534
581.59
579.711
577.894
576.13
574.416
573.027
571.961
570.937
569.952
569.005
568.092
567.212
566.364
565.546
564.756
563.995
563.259
562.549
561.864
561.202
560.564
559.948
559.353
558.78
558.228
557.697
557.182
556.702
556.16
556.098
1319.22
1389.81
1388.91
1365
1315.97
1258.58
1201.76
1148.27
1098.98
1054.08
1013.35
976.472
943.059
912.743
885.185
860.076
837.144
816.149
796.883
779.161
762.825
747.733
733.763
720.806
708.768
697.565
687.12
677.369
668.252
659.716
651.714
644.202
637.144
630.504
624.251
618.356
612.794
607.542
602.577
597.881
593.435
589.223
585.229
581.44
577.843
574.425
571.176
568.085
565.142
562.338
559.665
557.115
554.679
552.351
550.124
547.991
545.947
543.984
542.098
540.282
538.533
536.843
535.211
533.897
532.895
531.937
531.021
530.146
529.308
528.507
527.74
527.005
526.302
525.628
524.983
524.365
523.773
523.206
522.663
522.143
521.646
521.17
520.714
520.279
519.862
519.465
519.066
518.868
1179.93
1270.48
1286.19
1274.59
1243.29
1195.91
1146.7
1098.93
1054.01
1012.49
974.446
939.722
908.075
879.227
852.904
828.846
806.817
786.605
768.022
750.901
735.095
720.474
706.925
694.346
682.646
671.748
661.58
652.079
643.189
634.86
627.046
619.708
612.807
606.312
600.191
594.419
588.969
583.82
578.951
574.343
569.979
565.843
561.919
558.196
554.66
551.299
548.104
545.063
542.168
539.41
536.781
534.274
531.88
529.594
527.41
525.32
523.32
521.404
519.568
517.805
516.114
514.486
512.923
511.672
510.722
509.819
508.96
508.143
507.366
506.627
505.924
505.255
504.618
504.012
503.436
502.888
502.366
501.871
501.399
500.95
500.524
500.118
499.732
499.365
499.016
498.684
498.364
498.121
1112.92
1214.72
1239.96
1233.05
1209.87
1167.23
1121.56
1076.45
1033.57
993.645
956.859
923.149
892.331
864.172
838.428
814.862
793.256
773.41
755.147
738.308
722.751
708.352
695
682.597
671.057
660.303
650.265
640.882
632.1
623.869
616.146
608.889
602.064
595.638
589.581
583.868
578.472
573.374
568.551
563.986
559.662
555.563
551.675
547.984
544.478
541.147
537.979
534.965
532.097
529.365
526.763
524.282
521.916
519.658
517.504
515.447
513.482
511.605
509.811
508.094
506.455
504.884
503.385
502.193
501.291
500.438
499.631
498.868
498.146
497.462
496.816
496.204
495.626
495.079
494.561
494.072
493.609
493.171
492.756
492.364
491.993
491.642
491.309
490.994
490.696
490.412
490.143
489.898
1115.43
1215.85
1240.52
1233.42
1209.95
1167.24
1121.55
1076.44
1033.56
993.638
956.855
923.148
892.333
864.176
838.434
814.869
793.265
773.42
755.158
738.319
722.763
708.364
695.012
682.61
671.07
660.316
650.278
640.896
632.114
623.883
616.159
608.902
602.077
595.651
589.595
583.881
578.486
573.387
568.565
564
559.676
555.578
551.69
548
544.495
541.165
537.999
534.988
532.122
529.393
526.795
524.319
521.959
519.71
517.564
515.518
513.567
511.704
509.928
508.233
506.617
505.074
503.607
502.444
501.567
500.739
499.959
499.223
498.529
497.875
497.258
496.676
496.127
495.61
495.123
494.663
494.23
493.821
493.436
493.073
492.73
492.406
492.1
491.811
491.538
491.279
491.035
490.79
1186.35
1273.38
1287.74
1275.55
1243.42
1195.93
1146.67
1098.89
1053.97
1012.47
974.434
939.721
908.083
879.243
852.925
828.871
806.846
786.636
768.056
750.936
735.132
720.513
706.964
694.385
682.686
671.788
661.62
652.12
643.23
634.901
627.087
619.748
612.848
606.352
600.232
594.46
589.01
583.862
578.993
574.385
570.022
565.887
561.965
558.244
554.711
551.354
548.164
545.131
542.246
539.5
536.887
534.399
532.03
529.773
527.623
525.576
523.627
521.77
520.003
518.321
516.723
515.202
513.76
512.624
511.769
510.966
510.211
509.501
508.834
508.207
507.619
507.066
506.547
506.059
505.601
505.171
504.767
504.388
504.031
503.696
503.38
503.084
502.805
502.542
502.294
502.059
501.84
501.601
1325.92
1391.84
1389.81
1364.78
1314.9
1257.58
1200.83
1147.43
1098.24
1053.41
1012.74
975.913
942.541
912.26
884.73
859.644
836.731
815.753
796.5
778.79
762.463
747.379
733.417
720.467
708.434
697.235
686.795
677.048
667.934
659.401
651.401
643.892
636.836
630.198
623.947
618.054
612.494
607.243
602.28
597.586
593.142
588.933
584.944
581.16
577.569
574.159
570.921
567.843
564.918
562.136
559.49
556.973
554.58
552.303
550.138
548.079
546.122
544.263
542.5
540.825
539.241
537.738
536.321
535.21
534.378
533.599
532.87
532.187
531.548
530.95
530.392
529.87
529.381
528.925
528.499
528.1
527.727
527.379
527.053
526.748
526.462
526.195
525.945
525.71
525.489
525.282
525.092
524.862
1525.96
1570.72
1552.11
1500.35
1427.13
1354.37
1286.21
1224.36
1168.72
1118.91
1074.3
1034.28
998.303
965.852
936.493
909.85
885.598
863.459
843.193
824.594
807.483
791.704
777.121
763.618
751.089
739.445
728.604
718.495
709.053
700.223
691.954
684.201
676.921
670.081
663.644
657.582
651.868
646.476
641.384
636.572
632.021
627.713
623.633
619.766
616.1
612.622
609.321
606.187
603.211
600.384
597.699
595.148
592.726
590.425
588.242
586.171
584.208
582.348
580.59
578.928
577.361
575.884
574.498
573.419
572.616
571.867
571.169
570.52
569.917
569.355
568.833
568.349
567.899
567.481
567.093
566.732
566.398
566.088
565.799
565.531
565.282
565.051
564.836
564.635
564.449
564.273
564.125
563.885
1762.55
1791.89
1754.18
1666.88
1566.7
1475.28
1393.56
1321.72
1258.51
1202.82
1153.56
1109.79
1070.73
1035.71
1004.19
975.709
949.876
926.371
904.914
885.273
867.245
850.657
835.359
821.22
808.125
795.976
784.683
774.17
764.366
755.212
746.651
738.636
731.121
724.069
717.442
711.209
705.34
699.811
694.594
689.671
685.019
680.622
676.462
672.525
668.795
665.262
661.912
658.737
655.725
652.869
650.16
647.592
645.157
642.851
640.667
638.602
636.651
634.81
633.076
631.446
629.919
628.488
627.156
626.129
625.37
624.666
624.016
623.416
622.862
622.352
621.881
621.449
621.051
620.685
620.349
620.041
619.758
619.498
619.26
619.041
618.84
618.657
618.488
618.333
618.191
618.058
617.956
617.684
2037.12
2055.85
1993.07
1861.78
1731.49
1619.08
1522.24
1439.32
1367.71
1305.51
1251.1
1203.16
1160.68
1122.82
1088.9
1058.38
1030.81
1005.8
983.047
962.278
943.264
925.815
909.76
894.958
881.279
868.618
856.872
845.962
835.808
826.347
817.515
809.265
801.542
794.311
787.526
781.159
775.173
769.544
764.243
759.249
754.537
750.093
745.894
741.928
738.177
734.63
731.274
728.099
725.092
722.248
719.556
717.011
714.605
712.333
710.189
708.171
706.272
704.492
702.825
701.269
699.823
698.484
697.249
696.312
695.626
694.999
694.425
693.902
693.426
692.994
692.602
692.248
691.928
691.64
691.382
691.149
690.941
690.755
690.589
690.442
690.31
690.194
690.091
690.001
689.92
689.853
689.8
689.518
2358.86
2366.99
2268.3
2085.29
1921.94
1786.71
1673.53
1578.68
1498.05
1428.87
1368.91
1316.5
1270.35
1229.45
1192.98
1160.31
1130.91
1104.34
1080.24
1058.33
1038.32
1020.03
1003.24
987.813
973.597
960.476
948.339
937.099
926.666
916.974
907.95
899.547
891.699
884.374
877.518
871.104
865.087
859.447
854.146
849.169
844.484
840.077
835.924
832.013
828.322
824.844
821.56
818.463
815.539
812.784
810.184
807.737
805.431
803.268
801.235
799.336
797.561
795.913
794.383
792.976
791.683
790.508
789.444
788.66
788.097
787.593
787.143
786.744
786.391
786.082
785.812
785.58
785.379
785.209
785.066
784.948
784.853
784.777
784.719
784.676
784.648
784.63
784.628
784.62
784.631
784.639
784.625
784.399
2739.87
2732.34
2580.37
2340.12
2140.44
1980.77
1850.25
1742.78
1652.61
1576.06
1510.27
1453.16
1403.18
1359.13
1320.04
1285.19
1253.95
1225.85
1200.46
1177.47
1156.56
1137.52
1120.12
1104.19
1089.57
1076.13
1063.75
1052.33
1041.77
1032.01
1022.95
1014.55
1006.74
999.486
992.717
986.416
980.525
975.031
969.885
965.077
960.567
956.347
952.382
948.668
945.177
941.902
938.824
935.937
933.224
930.682
928.297
926.069
923.983
922.045
920.239
918.576
917.035
915.634
914.353
913.206
912.179
911.284
910.503
909.971
909.603
909.297
909.04
908.837
908.674
908.56
908.471
908.434
908.397
908.404
908.433
908.49
908.566
908.656
908.761
908.874
908.999
909.129
909.269
909.411
909.558
909.709
909.851
909.587
3193.97