/*--------------------------------*- C++ -*----------------------------------*\
| =========                 |                                                 |
| \\      /  F ield         | OpenFOAM: The Open Source CFD Toolbox           |
|  \\    /   O peration     | Version:  2306                                  |
|   \\  /    A nd           | Website:  www.openfoam.com                      |
|    \\/     M anipulation  |                                                 |
\*---------------------------------------------------------------------------*/
FoamFile
{
    version     2.0;
    format      ascii;
    arch        "LSB;label=32;scalar=64";
    class       volScalarField;
    location    "1800";
    object      p;
}
// * * * * * * * * * * * * * * * * * * * * * * * * * * * * * * * * * * * * * //

dimensions      [0 2 -2 0 0 0 0];

internalField   nonuniform List<scalar> 
20540
(
1392.46
89.8153
1392.44
22.5467
1392.41
-16.3528
1392.38
-29.3943
1392.33
-34.4165
1392.27
-38.152
1392.19
-41.3781
1392.09
-44.0297
1391.96
-46.2205
1391.8
-48.0955
1391.6
-49.7433
1391.35
-51.2112
1391.05
-52.5262
1390.67
-53.7044
1390.21
-54.7524
1389.64
-55.6682
1388.96
-56.4412
1388.12
-57.0503
1387.11
-57.4623
1385.9
-57.6282
1384.45
-57.4791
1382.75
-56.9204
1380.78
-55.8268
1378.56
-54.0369
1376.15
-51.3526
1373.68
-47.5421
1371.43
-42.3495
1369.88
-35.5508
1369.81
-27.2196
1371.82
-18.3642
1375.09
-11.9295
1377.35
-8.69589
1377.23
-9.08194
1374.82
-13.0331
1371.64
-20.034
1369.84
-29.034
1370.05
-37.4062
1371.66
-44.2759
1373.95
-49.5879
1376.44
-53.5468
1378.89
-56.3891
1381.15
-58.3349
1383.17
-59.5758
1384.92
-60.2705
1386.42
-60.5447
1387.68
-60.4944
1388.74
-60.1914
1389.62
-59.6877
1390.35
-59.0197
1390.95
-58.2118
1391.45
-57.2787
1391.86
-56.2267
1392.19
-55.0545
1392.46
-53.7533
1392.68
-52.3058
1392.86
-50.6836
1393
-48.8388
1393.12
-46.6823
1393.21
-44.0701
1393.28
-40.8909
1393.34
-37.2001
1393.38
-32.163
1393.42
-18.9851
1393.44
19.8566
1393.46
86.2073
-28.7538
-2.70842
-41.6596
-33.2993
-47.4947
-48.9089
-55.6025
-59.4573
-64.0353
-67.9918
-71.8468
-75.461
-78.8992
-82.1614
-85.2671
-88.222
-91.0408
-93.7283
-96.2953
-98.7461
-101.09
-103.33
-105.474
-107.525
-109.488
-111.368
-113.168
-114.892
-116.544
-118.127
-119.644
-121.098
-122.491
-123.827
-125.108
-126.337
-127.515
-128.647
-129.733
-130.777
-131.781
-132.749
-133.682
-134.585
-135.46
-136.313
-137.146
-137.966
-138.778
-139.587
-140.401
-141.228
-142.075
-142.953
-143.871
-144.841
-145.873
-146.984
-148.189
-149.507
-150.958
-152.571
-154.363
-156.034
-157.437
-158.895
-160.435
-162.054
-163.753
-165.536
-167.407
-169.37
-171.431
-173.594
-175.859
-178.237
-180.717
-183.34
-186.066
-189.019
-192.071
-195.548
-199.078
-203.468
-207.72
-214.065
-219.422
-234.651
-28.7928
-2.70828
-41.659
-33.2989
-47.4944
-48.9086
-55.6023
-59.4571
-64.0351
-67.9917
-71.8467
-75.4609
-78.8991
-82.1613
-85.267
-88.2219
-91.0407
-93.7282
-96.2952
-98.746
-101.09
-103.33
-105.474
-107.525
-109.488
-111.368
-113.168
-114.892
-116.544
-118.127
-119.644
-121.098
-122.491
-123.827
-125.108
-126.337
-127.515
-128.647
-129.733
-130.777
-131.781
-132.749
-133.682
-134.585
-135.46
-136.313
-137.146
-137.966
-138.778
-139.587
-140.401
-141.228
-142.075
-142.953
-143.871
-144.841
-145.873
-146.984
-148.189
-149.507
-150.958
-152.571
-154.363
-156.034
-157.437
-158.895
-160.435
-162.054
-163.753
-165.536
-167.407
-169.37
-171.432
-173.595
-175.859
-178.238
-180.717
-183.341
-186.066
-189.02
-192.071
-195.549
-199.079
-203.47
-207.722
-214.067
-219.43
-234.424
-28.8655
-2.70947
-41.6584
-33.2982
-47.4939
-48.9082
-55.602
-59.4568
-64.0349
-67.9915
-71.8465
-75.4607
-78.899
-82.1611
-85.2669
-88.2218
-91.0406
-93.7281
-96.2951
-98.7459
-101.09
-103.33
-105.474
-107.524
-109.488
-111.368
-113.168
-114.892
-116.544
-118.127
-119.644
-121.098
-122.491
-123.827
-125.108
-126.337
-127.515
-128.647
-129.733
-130.777
-131.781
-132.749
-133.682
-134.585
-135.46
-136.313
-137.146
-137.966
-138.777
-139.587
-140.401
-141.228
-142.075
-142.953
-143.871
-144.841
-145.873
-146.984
-148.189
-149.508
-150.959
-152.571
-154.363
-156.034
-157.437
-158.896
-160.435
-162.054
-163.754
-165.536
-167.408
-169.371
-171.432
-173.595
-175.86
-178.239
-180.718
-183.342
-186.067
-189.021
-192.073
-195.551
-199.082
-203.472
-207.725
-214.068
-219.451
-234.1
-28.9728
-2.71337
-41.658
-33.2972
-47.493
-48.9074
-55.6013
-59.4562
-64.0344
-67.991
-71.8461
-75.4604
-78.8986
-82.1608
-85.2666
-88.2215
-91.0404
-93.7279
-96.2949
-98.7457
-101.09
-103.33
-105.474
-107.524
-109.488
-111.368
-113.168
-114.892
-116.544
-118.127
-119.644
-121.097
-122.491
-123.827
-125.108
-126.337
-127.515
-128.647
-129.733
-130.777
-131.781
-132.748
-133.682
-134.585
-135.46
-136.313
-137.146
-137.966
-138.777
-139.587
-140.401
-141.228
-142.075
-142.953
-143.871
-144.841
-145.873
-146.984
-148.189
-149.508
-150.959
-152.571
-154.363
-156.035
-157.437
-158.896
-160.436
-162.055
-163.754
-165.537
-167.408
-169.372
-171.433
-173.596
-175.861
-178.24
-180.72
-183.344
-186.069
-189.024
-192.076
-195.554
-199.085
-203.475
-207.731
-214.064
-219.488
-233.669
-29.1264
-2.72248
-41.6588
-33.2962
-47.4919
-48.9063
-55.6004
-59.4553
-64.0336
-67.9903
-71.8455
-75.4598
-78.8981
-82.1603
-85.2661
-88.221
-91.0399
-93.7275
-96.2945
-98.7454
-101.089
-103.329
-105.473
-107.524
-109.488
-111.367
-113.168
-114.892
-116.544
-118.127
-119.643
-121.097
-122.491
-123.827
-125.108
-126.336
-127.515
-128.646
-129.733
-130.777
-131.781
-132.748
-133.682
-134.584
-135.46
-136.312
-137.146
-137.966
-138.777
-139.587
-140.401
-141.227
-142.075
-142.953
-143.871
-144.841
-145.873
-146.984
-148.189
-149.508
-150.959
-152.572
-154.364
-156.035
-157.438
-158.897
-160.437
-162.056
-163.755
-165.538
-167.41
-169.373
-171.435
-173.598
-175.863
-178.243
-180.722
-183.347
-186.073
-189.027
-192.08
-195.559
-199.091
-203.479
-207.741
-214.054
-219.534
-233.145
-29.3379
-2.73976
-41.6619
-33.2956
-47.4907
-48.905
-55.5991
-59.4542
-64.0325
-67.9894
-71.8446
-75.459
-78.8973
-82.1596
-85.2654
-88.2204
-91.0393
-93.7269
-96.294
-98.7448
-101.089
-103.329
-105.473
-107.524
-109.487
-111.367
-113.167
-114.892
-116.544
-118.126
-119.643
-121.097
-122.49
-123.826
-125.107
-126.336
-127.515
-128.646
-129.732
-130.776
-131.781
-132.748
-133.681
-134.584
-135.46
-136.312
-137.146
-137.966
-138.777
-139.586
-140.401
-141.227
-142.075
-142.953
-143.871
-144.841
-145.873
-146.984
-148.189
-149.508
-150.959
-152.572
-154.364
-156.036
-157.438
-158.897
-160.438
-162.057
-163.757
-165.54
-167.411
-169.375
-171.437
-173.601
-175.866
-178.246
-180.726
-183.351
-186.077
-189.032
-192.085
-195.564
-199.099
-203.483
-207.753
-214.034
-219.581
-232.489
-29.6191
-2.76792
-41.6688
-33.2962
-47.4899
-48.9036
-55.5977
-59.4528
-64.0313
-67.9882
-71.8435
-75.4579
-78.8963
-82.1587
-85.2646
-88.2196
-91.0386
-93.7262
-96.2933
-98.7442
-101.088
-103.328
-105.472
-107.523
-109.487
-111.366
-113.167
-114.891
-116.543
-118.126
-119.643
-121.096
-122.49
-123.826
-125.107
-126.336
-127.514
-128.646
-129.732
-130.776
-131.78
-132.748
-133.681
-134.584
-135.459
-136.312
-137.145
-137.965
-138.777
-139.586
-140.4
-141.227
-142.075
-142.953
-143.871
-144.84
-145.873
-146.984
-148.189
-149.508
-150.959
-152.572
-154.365
-156.037
-157.439
-158.898
-160.439
-162.058
-163.758
-165.542
-167.413
-169.378
-171.44
-173.604
-175.869
-178.249
-180.729
-183.355
-186.081
-189.038
-192.091
-195.57
-199.106
-203.485
-207.766
-213.997
-219.625
-231.685
-29.9844
-2.80945
-41.6807
-33.2985
-47.4899
-48.9025
-55.5964
-59.4513
-64.0298
-67.9868
-71.8421
-75.4567
-78.8951
-82.1575
-85.2635
-88.2186
-91.0376
-93.7253
-96.2924
-98.7433
-101.087
-103.328
-105.471
-107.522
-109.486
-111.366
-113.166
-114.89
-116.542
-118.125
-119.642
-121.096
-122.489
-123.825
-125.106
-126.335
-127.514
-128.645
-129.732
-130.776
-131.78
-132.747
-133.681
-134.583
-135.459
-136.311
-137.145
-137.965
-138.776
-139.586
-140.4
-141.227
-142.074
-142.953
-143.871
-144.84
-145.873
-146.984
-148.189
-149.508
-150.96
-152.573
-154.365
-156.037
-157.44
-158.9
-160.44
-162.059
-163.76
-165.543
-167.416
-169.38
-171.442
-173.607
-175.872
-178.253
-180.733
-183.36
-186.086
-189.043
-192.097
-195.575
-199.114
-203.483
-207.779
-213.939
-219.65
-230.75
-30.4525
-2.86719
-41.6994
-33.3034
-47.4912
-48.9018
-55.5952
-59.4498
-64.0282
-67.9852
-71.8406
-75.4552
-78.8937
-82.1562
-85.2622
-88.2174
-91.0364
-93.7241
-96.2913
-98.7423
-101.086
-103.327
-105.471
-107.521
-109.485
-111.365
-113.165
-114.89
-116.542
-118.124
-119.641
-121.095
-122.489
-123.825
-125.106
-126.334
-127.513
-128.645
-129.731
-130.775
-131.779
-132.747
-133.68
-134.583
-135.458
-136.311
-137.145
-137.964
-138.776
-139.585
-140.399
-141.226
-142.074
-142.952
-143.87
-144.84
-145.873
-146.984
-148.189
-149.508
-150.96
-152.573
-154.366
-156.038
-157.441
-158.901
-160.441
-162.061
-163.762
-165.545
-167.418
-169.382
-171.445
-173.61
-175.875
-178.256
-180.737
-183.364
-186.09
-189.048
-192.102
-195.579
-199.12
-203.475
-207.789
-213.853
-219.636
-229.716
-31.0462
-2.94476
-41.7263
-33.3116
-47.4943
-48.902
-55.5944
-59.4485
-64.0267
-67.9835
-71.8389
-75.4535
-78.8921
-82.1546
-85.2607
-88.2159
-91.035
-93.7228
-96.29
-98.7411
-101.085
-103.325
-105.469
-107.52
-109.484
-111.364
-113.164
-114.889
-116.541
-118.124
-119.64
-121.094
-122.488
-123.824
-125.105
-126.334
-127.512
-128.644
-129.73
-130.774
-131.778
-132.746
-133.679
-134.582
-135.458
-136.31
-137.144
-137.964
-138.775
-139.585
-140.399
-141.226
-142.074
-142.952
-143.87
-144.84
-145.873
-146.984
-148.189
-149.508
-150.96
-152.574
-154.366
-156.039
-157.442
-158.902
-160.442
-162.062
-163.763
-165.547
-167.42
-169.385
-171.447
-173.612
-175.878
-178.259
-180.74
-183.367
-186.093
-189.051
-192.105
-195.579
-199.123
-203.458
-207.79
-213.731
-219.552
-228.613
-31.793
-3.04681
-41.7635
-33.3243
-47.4998
-48.9034
-55.5944
-59.4476
-64.0254
-67.982
-71.8372
-75.4518
-78.8904
-82.1529
-85.259
-88.2143
-91.0334
-93.7212
-96.2885
-98.7396
-101.084
-103.324
-105.468
-107.519
-109.483
-111.363
-113.163
-114.887
-116.54
-118.122
-119.639
-121.093
-122.487
-123.823
-125.104
-126.333
-127.511
-128.643
-129.729
-130.773
-131.778
-132.745
-133.678
-134.581
-135.457
-136.309
-137.143
-137.963
-138.775
-139.584
-140.398
-141.225
-142.073
-142.951
-143.869
-144.839
-145.872
-146.984
-148.189
-149.508
-150.96
-152.574
-154.367
-156.039
-157.442
-158.902
-160.443
-162.063
-163.764
-165.548
-167.421
-169.386
-171.449
-173.614
-175.879
-178.26
-180.741
-183.368
-186.094
-189.051
-192.104
-195.573
-199.119
-203.426
-207.774
-213.567
-219.365
-227.467
-32.7258
-3.17916
-41.8133
-33.3424
-47.5086
-48.9066
-55.5955
-59.4473
-64.0244
-67.9806
-71.8357
-75.4501
-78.8886
-82.1511
-85.2572
-88.2125
-91.0317
-93.7195
-96.2868
-98.7379
-101.082
-103.323
-105.467
-107.517
-109.481
-111.361
-113.162
-114.886
-116.538
-118.121
-119.638
-121.092
-122.486
-123.822
-125.103
-126.332
-127.51
-128.642
-129.728
-130.772
-131.776
-132.744
-133.677
-134.58
-135.456
-136.308
-137.142
-137.962
-138.774
-139.583
-140.397
-141.224
-142.072
-142.95
-143.869
-144.838
-145.872
-146.983
-148.189
-149.508
-150.96
-152.573
-154.366
-156.039
-157.442
-158.902
-160.443
-162.063
-163.764
-165.548
-167.421
-169.386
-171.448
-173.613
-175.878
-178.259
-180.738
-183.365
-186.089
-189.044
-192.097
-195.557
-199.104
-203.373
-207.726
-213.351
-219.039
-226.291
-33.8824
-3.34902
-41.8784
-33.3672
-47.5213
-48.9119
-55.5981
-59.4479
-64.0241
-67.9797
-71.8344
-75.4486
-78.887
-82.1494
-85.2554
-88.2107
-91.0299
-93.7177
-96.285
-98.7361
-101.08
-103.321
-105.465
-107.516
-109.48
-111.36
-113.16
-114.885
-116.537
-118.12
-119.637
-121.09
-122.484
-123.82
-125.101
-126.33
-127.509
-128.64
-129.727
-130.771
-131.775
-132.743
-133.676
-134.579
-135.455
-136.307
-137.141
-137.961
-138.772
-139.582
-140.396
-141.223
-142.071
-142.949
-143.868
-144.837
-145.871
-146.982
-148.188
-149.507
-150.959
-152.572
-154.365
-156.037
-157.441
-158.901
-160.441
-162.061
-163.762
-165.546
-167.418
-169.383
-171.445
-173.609
-175.873
-178.252
-180.73
-183.354
-186.077
-189.028
-192.078
-195.526
-199.069
-203.291
-207.627
-213.068
-218.545
-225.078
-35.3065
-3.56529
-41.9622
-33.4002
-47.5389
-48.92
-55.6026
-59.4499
-64.0248
-67.9795
-71.8337
-75.4475
-78.8856
-82.1479
-85.2538
-88.2089
-91.0281
-93.7159
-96.2832
-98.7343
-101.079
-103.319
-105.463
-107.514
-109.478
-111.358
-113.158
-114.883
-116.535
-118.118
-119.635
-121.089
-122.482
-123.819
-125.1
-126.329
-127.507
-128.639
-129.725
-130.769
-131.774
-132.741
-133.675
-134.577
-135.453
-136.306
-137.14
-137.959
-138.771
-139.58
-140.395
-141.222
-142.07
-142.948
-143.866
-144.836
-145.869
-146.981
-148.186
-149.505
-150.957
-152.57
-154.363
-156.034
-157.438
-158.898
-160.438
-162.057
-163.758
-165.541
-167.412
-169.376
-171.436
-173.599
-175.86
-178.238
-180.712
-183.334
-186.052
-188.997
-192.042
-195.47
-199.002
-203.166
-207.452
-212.694
-217.86
-223.802
-37.046
-3.83883
-42.0686
-33.4432
-47.5624
-48.9315
-55.6094
-59.4534
-64.0267
-67.9802
-71.8337
-75.447
-78.8848
-82.1468
-85.2525
-88.2075
-91.0265
-93.7142
-96.2815
-98.7326
-101.077
-103.317
-105.461
-107.512
-109.476
-111.356
-113.157
-114.881
-116.533
-118.116
-119.633
-121.087
-122.481
-123.817
-125.098
-126.327
-127.506
-128.637
-129.724
-130.768
-131.772
-132.74
-133.673
-134.576
-135.452
-136.304
-137.138
-137.958
-138.769
-139.579
-140.393
-141.22
-142.068
-142.946
-143.864
-144.834
-145.867
-146.978
-148.183
-149.502
-150.954
-152.567
-154.359
-156.029
-157.432
-158.891
-160.431
-162.049
-163.748
-165.53
-167.4
-169.362
-171.42
-173.58
-175.838
-178.211
-180.68
-183.296
-186.008
-188.942
-191.977
-195.378
-198.887
-202.977
-207.17
-212.19
-216.973
-222.412
-39.1516
-4.18276
-42.2023
-33.4983
-47.5929
-48.9472
-55.619
-59.459
-64.0301
-67.9822
-71.8347
-75.4474
-78.8846
-82.1463
-85.2517
-88.2066
-91.0254
-93.713
-96.2801
-98.7311
-101.075
-103.316
-105.46
-107.51
-109.474
-111.354
-113.155
-114.879
-116.531
-118.114
-119.631
-121.085
-122.479
-123.815
-125.096
-126.325
-127.504
-128.635
-129.722
-130.766
-131.77
-132.738
-133.671
-134.574
-135.45
-136.302
-137.136
-137.956
-138.768
-139.577
-140.391
-141.218
-142.066
-142.944
-143.862
-144.831
-145.864
-146.975
-148.18
-149.498
-150.949
-152.561
-154.351
-156.02
-157.422
-158.881
-160.418
-162.035
-163.732
-165.512
-167.38
-169.338
-171.392
-173.548
-175.8
-178.166
-180.628
-183.233
-185.935
-188.851
-191.87
-195.231
-198.7
-202.693
-206.75
-211.51
-215.874
-220.848
-41.6731
-4.61272
-42.3687
-33.5677
-47.6317
-48.9678
-55.6321
-59.4671
-64.0354
-67.9857
-71.837
-75.4488
-78.8855
-82.1467
-85.2518
-88.2063
-91.025
-93.7123
-96.2793
-98.7302
-101.074
-103.314
-105.458
-107.509
-109.473
-111.353
-113.153
-114.878
-116.53
-118.113
-119.63
-121.084
-122.477
-123.813
-125.095
-126.323
-127.502
-128.634
-129.72
-130.764
-131.769
-132.736
-133.67
-134.572
-135.448
-136.301
-137.134
-137.954
-138.765
-139.575
-140.389
-141.216
-142.063
-142.941
-143.859
-144.828
-145.86
-146.97
-148.174
-149.491
-150.941
-152.551
-154.34
-156.006
-157.406
-158.863
-160.398
-162.012
-163.706
-165.483
-167.346
-169.3
-171.347
-173.495
-175.738
-178.094
-180.544
-183.133
-185.819
-188.708
-191.7
-195.004
-198.41
-202.271
-206.149
-210.6
-214.547
-219.053
-44.6529
-5.14706
-42.5736
-33.6541
-47.68
-48.9941
-55.6491
-59.478
-64.043
-67.991
-71.8409
-75.4517
-78.8876
-82.1482
-85.2529
-88.2071
-91.0254
-93.7125
-96.2793
-98.73
-101.074
-103.314
-105.458
-107.508
-109.472
-111.352
-113.152
-114.877
-116.529
-118.112
-119.629
-121.082
-122.476
-123.812
-125.093
-126.322
-127.501
-128.632
-129.719
-130.763
-131.767
-132.734
-133.668
-134.571
-135.446
-136.299
-137.132
-137.952
-138.763
-139.573
-140.386
-141.213
-142.06
-142.937
-143.854
-144.823
-145.854
-146.963
-148.166
-149.482
-150.929
-152.537
-154.323
-155.985
-157.382
-158.836
-160.367
-161.976
-163.666
-165.436
-167.293
-169.239
-171.277
-173.413
-175.643
-177.982
-180.413
-182.978
-185.639
-188.486
-191.437
-194.658
-197.974
-201.659
-205.32
-209.407
-212.961
-216.983
-48.1168
-5.80673
-42.8237
-33.7603
-47.7391
-49.0271
-55.6705
-59.4924
-64.0532
-67.9986
-71.8466
-75.4562
-78.8912
-82.1512
-85.2553
-88.209
-91.027
-93.7138
-96.2804
-98.7309
-101.074
-103.314
-105.458
-107.509
-109.472
-111.352
-113.152
-114.876
-116.528
-118.111
-119.628
-121.082
-122.475
-123.811
-125.092
-126.321
-127.5
-128.631
-129.718
-130.762
-131.766
-132.733
-133.667
-134.569
-135.445
-136.297
-137.131
-137.95
-138.761
-139.57
-140.384
-141.21
-142.056
-142.933
-143.849
-144.816
-145.846
-146.954
-148.154
-149.468
-150.912
-152.516
-154.296
-155.952
-157.345
-158.795
-160.32
-161.922
-163.604
-165.366
-167.212
-169.146
-171.169
-173.288
-175.497
-177.811
-180.215
-182.744
-185.366
-188.153
-191.039
-194.147
-197.335
-200.796
-204.203
-207.885
-211.068
-214.602
-52.0602
-6.61476
-43.1259
-33.8893
-47.8102
-49.0678
-55.697
-59.5107
-64.0664
-68.0088
-71.8546
-75.4627
-78.8966
-82.1558
-85.2592
-88.2125
-91.0301
-93.7165
-96.2828
-98.733
-101.076
-103.316
-105.46
-107.51
-109.473
-111.353
-113.153
-114.877
-116.529
-118.112
-119.628
-121.082
-122.476
-123.812
-125.093
-126.321
-127.5
-128.631
-129.717
-130.761
-131.766
-132.733
-133.666
-134.569
-135.444
-136.296
-137.129
-137.949
-138.759
-139.568
-140.381
-141.206
-142.052
-142.927
-143.842
-144.807
-145.835
-146.94
-148.138
-149.447
-150.887
-152.485
-154.257
-155.905
-157.29
-158.734
-160.249
-161.841
-163.511
-165.26
-167.09
-169.006
-171.007
-173.1
-175.28
-177.557
-179.92
-182.395
-184.959
-187.659
-190.45
-193.407
-196.426
-199.616
-202.734
-205.99
-208.817
-211.877
-56.4302
-7.59438
-43.4868
-34.044
-47.8941
-49.1169
-55.7289
-59.5333
-64.083
-68.0219
-71.8652
-75.4716
-78.9042
-82.1624
-85.2651
-88.2178
-91.0349
-93.7209
-96.2868
-98.7367
-101.08
-103.319
-105.462
-107.513
-109.476
-111.355
-113.155
-114.879
-116.531
-118.114
-119.63
-121.084
-122.477
-123.813
-125.094
-126.322
-127.501
-128.632
-129.718
-130.762
-131.766
-132.733
-133.666
-134.569
-135.444
-136.296
-137.129
-137.948
-138.758
-139.565
-140.377
-141.202
-142.046
-142.92
-143.832
-144.795
-145.82
-146.921
-148.114
-149.417
-150.85
-152.439
-154.2
-155.834
-157.21
-158.642
-160.144
-161.721
-163.373
-165.102
-166.909
-168.797
-170.767
-172.822
-174.957
-177.181
-179.485
-181.883
-184.361
-186.943
-189.6
-192.364
-195.165
-198.047
-200.845
-203.675
-206.155
-208.772
-61.1047
-8.76522
-43.9132
-34.2271
-47.991
-49.1752
-55.7663
-59.5607
-64.1032
-68.0382
-71.8785
-75.4831
-78.9142
-82.1714
-85.2731
-88.2252
-91.0417
-93.7272
-96.2927
-98.7422
-101.085
-103.324
-105.467
-107.517
-109.48
-111.359
-113.159
-114.883
-116.535
-118.117
-119.633
-121.087
-122.48
-123.816
-125.097
-126.325
-127.503
-128.634
-129.721
-130.764
-131.768
-132.735
-133.668
-134.57
-135.445
-136.296
-137.129
-137.947
-138.756
-139.563
-140.374
-141.196
-142.038
-142.909
-143.819
-144.778
-145.798
-146.893
-148.079
-149.374
-150.796
-152.371
-154.115
-155.731
-157.091
-158.507
-159.99
-161.543
-163.17
-164.869
-166.642
-168.49
-170.413
-172.413
-174.485
-176.633
-178.85
-181.142
-183.498
-185.924
-188.4
-190.93
-193.466
-196.012
-198.467
-200.885
-203.027
-205.235
-65.8719
-10.1377
-44.4099
-34.4402
-48.1004
-49.243
-55.8092
-59.5932
-64.1272
-68.0581
-71.895
-75.4975
-78.9269
-82.1829
-85.2837
-88.2349
-91.0508
-93.7357
-96.3008
-98.7499
-101.092
-103.331
-105.474
-107.524
-109.486
-111.365
-113.165
-114.888
-116.54
-118.122
-119.638
-121.092
-122.485
-123.82
-125.101
-126.329
-127.508
-128.638
-129.724
-130.768
-131.772
-132.738
-133.671
-134.573
-135.447
-136.298
-137.129
-137.947
-138.755
-139.56
-140.369
-141.189
-142.028
-142.895
-143.8
-144.753
-145.766
-146.853
-148.028
-149.31
-150.716
-152.271
-153.99
-155.58
-156.917
-158.309
-159.762
-161.282
-162.871
-164.526
-166.249
-168.039
-169.895
-171.817
-173.8
-175.842
-177.939
-180.087
-182.277
-184.504
-186.75
-189.006
-191.237
-193.432
-195.532
-197.556
-199.367
-201.194
-70.4193
-11.7052
-44.977
-34.6842
-48.2202
-49.3204
-55.8568
-59.6307
-64.1549
-68.0818
-71.9148
-75.515
-78.9426
-82.1972
-85.2969
-88.2473
-91.0624
-93.7467
-96.3113
-98.76
-101.102
-103.34
-105.483
-107.532
-109.495
-111.373
-113.173
-114.896
-116.547
-118.129
-119.645
-121.099
-122.491
-123.827
-125.107
-126.335
-127.514
-128.644
-129.73
-130.773
-131.777
-132.743
-133.675
-134.576
-135.45
-136.3
-137.131
-137.946
-138.753
-139.555
-140.361
-141.178
-142.012
-142.874
-143.772
-144.716
-145.719
-146.793
-147.952
-149.215
-150.598
-152.124
-153.806
-155.358
-156.661
-158.017
-159.428
-160.9
-162.433
-164.026
-165.677
-167.384
-169.146
-170.959
-172.817
-174.718
-176.652
-178.613
-180.59
-182.572
-184.545
-186.492
-188.391
-190.226
-191.966
-193.614
-195.1
-196.566
-74.3393
-13.4342
-45.6059
-34.9572
-48.3463
-49.4066
-55.9079
-59.6732
-64.1862
-68.1091
-71.9379
-75.5357
-78.9614
-82.2145
-85.313
-88.2625
-91.0768
-93.7604
-96.3244
-98.7726
-101.114
-103.352
-105.494
-107.543
-109.505
-111.384
-113.183
-114.906
-116.557
-118.139
-119.655
-121.108
-122.5
-123.836
-125.116
-126.344
-127.522
-128.652
-129.738
-130.781
-131.784
-132.749
-133.681
-134.581
-135.454
-136.303
-137.132
-137.945
-138.749
-139.548
-140.35
-141.161
-141.989
-142.842
-143.729
-144.661
-145.649
-146.704
-147.841
-149.075
-150.424
-151.907
-153.536
-155.033
-156.288
-157.59
-158.941
-160.343
-161.798
-163.301
-164.851
-166.444
-168.076
-169.741
-171.435
-173.148
-174.873
-176.6
-178.318
-180.015
-181.677
-183.292
-184.843
-186.319
-187.703
-188.993
-190.162
-191.286
-77.1673
-15.2532
-46.2719
-35.2544
-48.472
-49.5
-55.9604
-59.7199
-64.2202
-68.1398
-71.9641
-75.5597
-78.9832
-82.2348
-85.3321
-88.2805
-91.094
-93.7769
-96.3402
-98.7878
-101.129
-103.366
-105.508
-107.557
-109.519
-111.397
-113.195
-114.918
-116.569
-118.151
-119.666
-121.119
-122.511
-123.846
-125.126
-126.354
-127.532
-128.662
-129.747
-130.79
-131.792
-132.757
-133.688
-134.587
-135.459
-136.306
-137.132
-137.943
-138.742
-139.537
-140.332
-141.135
-141.953
-142.794
-143.666
-144.579
-145.544
-146.572
-147.675
-148.869
-150.168
-151.589
-153.142
-154.563
-155.749
-156.974
-158.238
-159.543
-160.887
-162.268
-163.68
-165.118
-166.577
-168.051
-169.532
-171.011
-172.48
-173.929
-175.348
-176.726
-178.052
-179.314
-180.506
-181.621
-182.647
-183.586
-184.434
-185.237
-78.469
-17.0412
-46.925
-35.5664
-48.587
-49.5978
-56.0111
-59.7696
-64.2559
-68.1734
-71.993
-75.5864
-79.0078
-82.2579
-85.3539
-88.3012
-91.1138
-93.7959
-96.3585
-98.8055
-101.146
-103.383
-105.524
-107.573
-109.534
-111.412
-113.21
-114.933
-116.583
-118.164
-119.68
-121.132
-122.525
-123.859
-125.139
-126.366
-127.544
-128.674
-129.758
-130.8
-131.802
-132.766
-133.696
-134.594
-135.463
-136.307
-137.13
-137.936
-138.73
-139.517
-140.303
-141.095
-141.898
-142.721
-143.572
-144.458
-145.39
-146.378
-147.434
-148.569
-149.796
-151.13
-152.576
-153.889
-154.977
-156.095
-157.24
-158.412
-159.608
-160.823
-162.053
-163.291
-164.531
-165.765
-166.986
-168.186
-169.356
-170.485
-171.568
-172.597
-173.566
-174.468
-175.299
-176.059
-176.748
-177.37
-177.928
-178.442
-77.9843
-18.6204
-47.4822
-35.8776
-48.6775
-49.696
-56.0559
-59.8204
-64.2915
-68.2085
-72.0234
-75.615
-79.0344
-82.2831
-85.3778
-88.3241
-91.1357
-93.817
-96.3789
-98.8253
-101.165
-103.402
-105.542
-107.59
-109.551
-111.429
-113.227
-114.949
-116.599
-118.18
-119.695
-121.147
-122.539
-123.874
-125.153
-126.38
-127.557
-128.687
-129.771
-130.812
-131.813
-132.776
-133.704
-134.599
-135.465
-136.306
-137.124
-137.923
-138.709
-139.486
-140.259
-141.033
-141.816
-142.614
-143.432
-144.281
-145.166
-146.098
-147.085
-148.137
-149.263
-150.475
-151.774
-152.939
-153.896
-154.869
-155.854
-156.849
-157.852
-158.857
-159.857
-160.847
-161.82
-162.769
-163.685
-164.564
-165.401
-166.189
-166.922
-167.596
-168.211
-168.768
-169.267
-169.709
-170.096
-170.43
-170.715
-170.957
-75.7795
-19.7693
-47.843
-36.1614
-48.7302
-49.7879
-56.0904
-59.8691
-64.3248
-68.2432
-72.0537
-75.644
-79.0616
-82.3089
-85.4025
-88.3478
-91.1586
-93.839
-96.4003
-98.846
-101.185
-103.421
-105.562
-107.609
-109.57
-111.447
-113.244
-114.966
-116.616
-118.197
-119.712
-121.164
-122.555
-123.889
-125.168
-126.395
-127.572
-128.7
-129.784
-130.824
-131.823
-132.785
-133.71
-134.602
-135.465
-136.299
-137.11
-137.901
-138.675
-139.437
-140.191
-140.942
-141.695
-142.456
-143.231
-144.026
-144.846
-145.699
-146.591
-147.529
-148.517
-149.564
-150.665
-151.634
-152.419
-153.203
-153.983
-154.757
-155.521
-156.269
-156.996
-157.695
-158.361
-158.993
-159.583
-160.124
-160.615
-161.056
-161.447
-161.788
-162.08
-162.323
-162.521
-162.673
-162.781
-162.848
-162.877
-162.863
-72.2565
-20.3191
-47.9713
-36.3721
-48.7502
-49.861
-56.1145
-59.9104
-64.3532
-68.2741
-72.0812
-75.6707
-79.0869
-82.3332
-85.4258
-88.3702
-91.1803
-93.86
-96.4207
-98.8658
-101.205
-103.44
-105.58
-107.627
-109.587
-111.464
-113.261
-114.983
-116.632
-118.213
-119.727
-121.179
-122.57
-123.904
-125.183
-126.409
-127.585
-128.713
-129.795
-130.834
-131.832
-132.791
-133.713
-134.601
-135.457
-136.285
-137.086
-137.864
-138.621
-139.362
-140.09
-140.809
-141.522
-142.233
-142.947
-143.668
-144.399
-145.146
-145.91
-146.695
-147.502
-148.332
-149.179
-149.9
-150.468
-151.02
-151.553
-152.064
-152.549
-153.004
-153.426
-153.81
-154.152
-154.448
-154.699
-154.906
-155.067
-155.185
-155.261
-155.296
-155.293
-155.253
-155.177
-155.067
-154.924
-154.75
-154.549
-154.313
-68.5597
-20.3194
-47.9775
-36.4449
-48.7699
-49.8936
-56.1317
-59.9346
-64.3725
-68.2945
-72.1
-75.689
-79.1045
-82.3501
-85.4422
-88.3859
-91.1956
-93.8747
-96.4351
-98.8797
-101.218
-103.453
-105.593
-107.64
-109.6
-111.476
-113.273
-114.995
-116.644
-118.224
-119.739
-121.19
-122.581
-123.915
-125.193
-126.419
-127.594
-128.721
-129.803
-130.84
-131.836
-132.792
-133.71
-134.593
-135.442
-136.261
-137.05
-137.813
-138.551
-139.267
-139.964
-140.644
-141.309
-141.962
-142.605
-143.24
-143.869
-144.492
-145.11
-145.723
-146.328
-146.923
-147.496
-147.956
-148.302
-148.618
-148.905
-149.16
-149.381
-149.564
-149.707
-149.807
-149.863
-149.878
-149.851
-149.784
-149.679
-149.539
-149.366
-149.162
-148.929
-148.668
-148.382
-148.072
-147.74
-147.388
-147.019
-146.627
-66.1583
-20.1808
-47.909
-36.4376
-48.7711
-49.8971
-56.1363
-59.9418
-64.3796
-68.3024
-72.1078
-75.6967
-79.1122
-82.3575
-85.4496
-88.393
-91.2026
-93.8814
-96.4418
-98.8861
-101.225
-103.46
-105.599
-107.646
-109.606
-111.482
-113.279
-115
-116.649
-118.23
-119.744
-121.195
-122.586
-123.919
-125.198
-126.423
-127.598
-128.724
-129.804
-130.84
-131.834
-132.787
-133.702
-134.579
-135.422
-136.231
-137.008
-137.755
-138.473
-139.164
-139.829
-140.469
-141.086
-141.679
-142.25
-142.799
-143.324
-143.825
-144.3
-144.746
-145.157
-145.528
-145.848
-146.07
-146.214
-146.322
-146.393
-146.428
-146.426
-146.382
-146.297
-146.169
-146.002
-145.796
-145.553
-145.278
-144.972
-144.638
-144.279
-143.899
-143.497
-143.078
-142.643
-142.194
-141.732
-141.261
-140.782
-140.289
-66.2778
-20.1249
-47.8817
-36.4005
-48.7552
-49.8819
-56.129
-59.9349
-64.3754
-68.2986
-72.1051
-75.6943
-79.1104
-82.3557
-85.4482
-88.3916
-91.2016
-93.8803
-96.441
-98.8852
-101.224
-103.459
-105.599
-107.645
-109.605
-111.481
-113.279
-115
-116.649
-118.229
-119.744
-121.195
-122.586
-123.919
-125.197
-126.422
-127.596
-128.722
-129.801
-130.836
-131.827
-132.778
-133.688
-134.561
-135.396
-136.196
-136.96
-137.692
-138.389
-139.055
-139.688
-140.288
-140.856
-141.39
-141.89
-142.353
-142.777
-143.16
-143.497
-143.783
-144.011
-144.176
-144.265
-144.272
-144.236
-144.159
-144.044
-143.891
-143.699
-143.468
-143.197
-142.888
-142.543
-142.165
-141.756
-141.321
-140.863
-140.384
-139.888
-139.378
-138.856
-138.324
-137.784
-137.239
-136.689
-136.137
-135.584
-135.026
-68.8488
-20.1423
-47.8919
-36.3297
-48.7232
-49.8469
-56.1099
-59.9135
-64.3596
-68.2831
-72.0918
-75.6817
-79.0988
-82.3448
-85.438
-88.3819
-91.1925
-93.8714
-96.4327
-98.877
-101.216
-103.451
-105.591
-107.638
-109.598
-111.474
-113.272
-114.993
-116.643
-118.223
-119.738
-121.189
-122.58
-123.913
-125.191
-126.416
-127.59
-128.715
-129.793
-130.827
-131.816
-132.764
-133.671
-134.538
-135.366
-136.157
-136.91
-137.626
-138.304
-138.944
-139.546
-140.109
-140.63
-141.107
-141.539
-141.921
-142.25
-142.522
-142.731
-142.871
-142.933
-142.913
-142.797
-142.617
-142.427
-142.193
-141.92
-141.609
-141.26
-140.876
-140.457
-140.005
-139.522
-139.011
-138.477
-137.922
-137.349
-136.763
-136.167
-135.563
-134.954
-134.342
-133.729
-133.117
-132.507
-131.902
-131.302
-130.702
-72.5822
-20.0052
-47.8204
-36.1743
-48.674
-49.7814
-56.078
-59.8747
-64.3316
-68.2548
-72.0672
-75.6583
-79.0773
-82.3244
-85.4189
-88.3635
-91.1751
-93.8546
-96.4167
-98.8614
-101.201
-103.437
-105.577
-107.624
-109.585
-111.461
-113.259
-114.981
-116.631
-118.211
-119.726
-121.177
-122.568
-123.902
-125.18
-126.405
-127.578
-128.703
-129.78
-130.813
-131.8
-132.746
-133.649
-134.511
-135.333
-136.116
-136.857
-137.559
-138.219
-138.836
-139.409
-139.936
-140.414
-140.839
-141.208
-141.517
-141.76
-141.932
-142.026
-142.035
-141.953
-141.771
-141.481
-141.142
-140.822
-140.458
-140.055
-139.614
-139.138
-138.63
-138.093
-137.528
-136.938
-136.327
-135.698
-135.054
-134.398
-133.734
-133.065
-132.394
-131.724
-131.056
-130.392
-129.735
-129.086
-128.445
-127.815
-127.189
-76.0793
-19.341
-47.6061
-35.8966
-48.6194
-49.6804
-56.0383
-59.8204
-64.2946
-68.2168
-72.0345
-75.6272
-79.0486
-82.2971
-85.3933
-88.3389
-91.1518
-93.832
-96.3951
-98.8404
-101.181
-103.417
-105.558
-107.605
-109.567
-111.444
-113.242
-114.964
-116.614
-118.195
-119.71
-121.162
-122.553
-123.887
-125.164
-126.39
-127.563
-128.688
-129.764
-130.796
-131.782
-132.726
-133.626
-134.485
-135.301
-136.077
-136.809
-137.5
-138.144
-138.743
-139.293
-139.791
-140.234
-140.617
-140.936
-141.186
-141.361
-141.453
-141.458
-141.367
-141.173
-140.869
-140.449
-139.992
-139.576
-139.116
-138.619
-138.086
-137.519
-136.923
-136.3
-135.656
-134.992