/*--------------------------------*- C++ -*----------------------------------*\
| =========                 |                                                 |
| \\      /  F ield         | OpenFOAM: The Open Source CFD Toolbox           |
|  \\    /   O peration     | Version:  2306                                  |
|   \\  /    A nd           | Website:  www.openfoam.com                      |
|    \\/     M anipulation  |                                                 |
\*---------------------------------------------------------------------------*/
FoamFile
{
    version     2.0;
    format      ascii;
    arch        "LSB;label=32;scalar=64";
    class       surfaceScalarField;
    location    "1800";
    object      phi;
}
// * * * * * * * * * * * * * * * * * * * * * * * * * * * * * * * * * * * * * //

dimensions      [0 3 -1 0 0 0 0];

oriented        oriented;

internalField   nonuniform List<scalar> 
40747
(
9.17965e-06
5.70084e-06
3.18296e-06
5.99669e-06
1.11122e-05
1.259e-05
4.14355e-06
1.01516e-05
1.34545e-05
2.09122e-05
3.94246e-06
1.36555e-05
1.62945e-05
3.09616e-05
3.01999e-06
1.7217e-05
1.97403e-05
4.30902e-05
1.4587e-06
2.13016e-05
2.39238e-05
5.77192e-05
-7.79679e-07
2.61622e-05
2.90071e-05
7.53504e-05
-3.79271e-06
3.20201e-05
3.51897e-05
9.65803e-05
-7.72082e-06
3.91178e-05
4.27181e-05
0.000122115
-1.27443e-05
4.77416e-05
5.18976e-05
0.000152784
-1.90851e-05
5.82384e-05
6.31085e-05
0.000189559
-2.70104e-05
7.10337e-05
7.68261e-05
0.000233564
-3.68364e-05
8.66521e-05
9.36479e-05
0.00028609
-4.89323e-05
0.000105744
0.000114329
0.000348591
-6.37215e-05
0.000129118
0.00013983
0.000422677
-8.16792e-05
0.000157788
0.000171378
0.000510079
-0.000103324
0.000193023
0.000210555
0.000612578
-0.000129201
0.000236431
0.000259407
0.000731881
-0.000159842
0.000290049
0.000320599
0.000869417
-0.000195719
0.000356476
0.000397621
0.00102602
-0.000237145
0.000439047
0.000495055
0.00120141
-0.000284152
0.000542062
0.00061894
0.00139354
-0.000336294
0.000671081
0.000777238
0.00159747
-0.000392387
0.000833331
0.000980439
0.00180398
-0.000450154
0.00103821
0.00124231
0.00199755
-0.000505755
0.00129791
0.00158081
0.00215377
-0.000553171
0.00162823
0.00201915
0.00223595
-0.000583356
0.00204933
0.00258686
0.00219113
-0.000582891
0.0025864
0.00332087
0.00194544
-0.000531304
0.00326928
0.00426366
0.00140189
-0.000396886
0.00412925
0.00427974
0.000686663
-0.000208685
0.00409153
0.0043959
-0.000144729
2.30828e-05
0.00416413
0.00438826
-0.000968488
0.000252626
0.00415872
0.00426051
-0.00166449
0.000436457
0.00407668
0.00410919
-0.00216642
0.000561891
0.00398376
0.00322189
-0.00238745
0.000610545
0.00317324
0.00252624
-0.00241728
0.000610835
0.00252595
0.00198426
-0.00232479
0.000581415
0.00201368
0.00156284
-0.00216
0.000534781
0.00160947
0.00123519
-0.00195797
0.000479531
0.00129044
0.000980096
-0.00174246
0.00042152
0.00103811
0.000780979
-0.00152881
0.000364587
0.000837911
0.000625008
-0.0013264
0.000311099
0.000678496
0.000502324
-0.00114039
0.000262364
0.000551059
0.000405377
-0.00097315
0.000218958
0.000448784
0.000328399
-0.000825191
0.000180968
0.000366389
0.00026698
-0.000695891
0.000148177
0.000299771
0.000217744
-0.000583971
0.000120191
0.00024573
0.000178096
-0.000487822
9.65295e-05
0.000201758
0.000146037
-0.000405715
7.66843e-05
0.000165882
0.000120013
-0.000335936
6.01572e-05
0.00013654
9.88168e-05
-0.000276866
4.64819e-05
0.000112492
8.14989e-05
-0.00022702
3.52356e-05
9.27451e-05
6.73114e-05
-0.000185066
2.60437e-05
7.65033e-05
5.56611e-05
-0.000149829
1.85799e-05
6.31249e-05
4.60746e-05
-0.000120287
1.25645e-05
5.209e-05
3.81724e-05
-9.55538e-05
7.76078e-06
4.29761e-05
3.16488e-05
-7.48718e-05
3.97164e-06
3.5438e-05
2.62564e-05
-5.75943e-05
1.03651e-06
2.91915e-05
2.1794e-05
-4.31728e-05
-1.16955e-06
2.40001e-05
1.8098e-05
-3.11432e-05
-2.7323e-06
1.96607e-05
1.50342e-05
-2.11145e-05
-3.68139e-06
1.59833e-05
1.24929e-05
-1.27576e-05
-3.92837e-06
1.27399e-05
1.03838e-05
-5.79657e-06
-3.03229e-06
9.48768e-06
8.63251e-06
5.60022e-06
2.59365e-06
3.40305e-06
1.99829e-06
5.9535e-07
1.80904e-06
1.89246e-07
1.69137e-06
1.17678e-07
1.60815e-06
8.32071e-08
1.54353e-06
6.46254e-08
1.49196e-06
5.15653e-08
1.44883e-06
4.31293e-08
1.41233e-06
3.65022e-08
1.38078e-06
3.1545e-08
1.35323e-06
2.755e-08
1.32891e-06
2.43268e-08
1.30731e-06
2.16041e-08
1.28795e-06
1.93606e-08
1.27054e-06
1.7408e-08
1.25481e-06
1.57361e-08
1.24051e-06
1.43075e-08
1.22749e-06
1.30327e-08
1.21558e-06
1.19132e-08
1.20465e-06
1.0935e-08
1.1946e-06
1.00629e-08
1.18532e-06
9.28054e-09
1.17676e-06
8.57655e-09
1.16882e-06
7.94871e-09
1.16144e-06
7.3828e-09
1.15459e-06
6.86608e-09
1.14819e-06
6.39901e-09
1.14223e-06
5.97344e-09
1.13665e-06
5.58323e-09
1.13143e-06
5.22684e-09
1.12654e-06
4.90094e-09
1.12195e-06
4.59991e-09
1.11763e-06
4.32194e-09
1.11357e-06
4.06433e-09
1.10975e-06
3.82695e-09
1.10614e-06
3.60598e-09
1.10274e-06
3.39965e-09
1.09954e-06
3.20647e-09
1.09651e-06
3.02547e-09
1.09365e-06
2.85479e-09
1.09095e-06
2.69279e-09
1.08841e-06
2.5382e-09
1.08601e-06
2.38925e-09
1.08375e-06
2.24478e-09
1.08164e-06
2.10287e-09
1.07966e-06
1.96184e-09
1.07782e-06
1.81964e-09
1.07612e-06
1.67532e-09
1.07458e-06
1.52505e-09
1.07318e-06
1.36795e-09
1.07195e-06
1.20007e-09
1.07089e-06
1.0196e-09
1.07003e-06
8.22731e-10
1.06936e-06
6.04494e-10
1.06893e-06
3.62838e-10
1.06874e-06
9.22692e-11
1.06883e-06
-2.07062e-10
1.06924e-06
-5.44086e-10
1.06999e-06
-9.24647e-10
1.07114e-06
-1.33754e-09
1.07274e-06
-1.82217e-09
1.07486e-06
-2.33983e-09
1.07754e-06
-2.96436e-09
1.07966e-06
-2.44417e-09
1.08203e-06
-2.8026e-09
1.0847e-06
-3.12156e-09
1.08766e-06
-3.46122e-09
1.09091e-06
-3.78615e-09
1.09445e-06
-4.12081e-09
1.09831e-06
-4.46773e-09
1.10251e-06
-4.80569e-09
1.10707e-06
-5.12809e-09
1.112e-06
-5.46441e-09
1.11733e-06
-5.80613e-09
1.12308e-06
-6.18526e-09
1.12929e-06
-6.65756e-09
1.13602e-06
-7.11326e-09
1.14336e-06
-7.74255e-09
1.15142e-06
-8.26946e-09
1.16038e-06
-8.96443e-09
1.17065e-06
-9.72229e-09
1.18183e-06
-1.00581e-08
1.19651e-06
-1.24424e-08
1.21088e-06
-1.09111e-08
1.23455e-06
-1.89098e-08
1.26083e-06
-1.75751e-08
1.29685e-06
-2.88636e-08
-8.0439e-07
2.10528e-06
8.47437e-06
5.08031e-06
7.31578e-06
1.75394e-06
6.72314e-06
7.81876e-07
6.32468e-06
5.16139e-07
6.03974e-06
3.68139e-07
5.8135e-06
2.9087e-07
5.63219e-06
2.32868e-07
5.4791e-06
1.96214e-07
5.34897e-06
1.66632e-07
5.23596e-06
1.44553e-07
5.1369e-06
1.2661e-07
5.04916e-06
1.12075e-07
4.97101e-06
9.97532e-08
4.90083e-06
8.95584e-08
4.83758e-06
8.06645e-08
4.7803e-06
7.30211e-08
4.72814e-06
6.64821e-08
4.68056e-06
6.06276e-08
4.63701e-06
5.54801e-08
4.59699e-06
5.09722e-08
4.56013e-06
4.69479e-08
4.52609e-06
4.3332e-08
4.49462e-06
4.00734e-08
4.46542e-06
3.7165e-08
4.43829e-06
3.45391e-08
4.41303e-06
3.21406e-08
4.38948e-06
2.99688e-08
4.36748e-06
2.79902e-08
4.34691e-06
2.61726e-08
4.32764e-06
2.45133e-08
4.30957e-06
2.29932e-08
4.29259e-06
2.15899e-08
4.27663e-06
2.02922e-08
4.26162e-06
1.90902e-08
4.24747e-06
1.79814e-08
4.23413e-06
1.69498e-08
4.22154e-06
1.5986e-08
4.20966e-06
1.5084e-08
4.19844e-06
1.42388e-08
4.18785e-06
1.34422e-08
4.17784e-06
1.26865e-08
4.16839e-06
1.1966e-08
4.15949e-06
1.12726e-08
4.15111e-06
1.0601e-08
4.14324e-06
9.94251e-09
4.13587e-06
9.28947e-09
4.12902e-06
8.63278e-09
4.12268e-06
7.96826e-09
4.11687e-06
7.27862e-09
4.11161e-06
6.56032e-09
4.10695e-06
5.79604e-09
4.1029e-06
4.97853e-09
4.09953e-06
4.09052e-09
4.09688e-06
3.11525e-09
4.09505e-06
2.0324e-09
4.09408e-06
8.39908e-10
4.0941e-06
-4.94045e-10
4.09521e-06
-1.97367e-09
4.09757e-06
-3.65994e-09
4.10129e-06
-5.47724e-09
4.10659e-06
-7.60628e-09
4.11366e-06
-9.90997e-09
4.12271e-06
-1.26208e-08
4.12986e-06
-1.02885e-08
4.13801e-06
-1.18522e-08
4.14712e-06
-1.31562e-08
4.15724e-06
-1.46037e-08
4.16828e-06
-1.59324e-08
4.18042e-06
-1.74211e-08
4.19357e-06
-1.88093e-08
4.20792e-06
-2.03396e-08
4.22339e-06
-2.16938e-08
4.24017e-06
-2.32541e-08
4.25821e-06
-2.4764e-08
4.27772e-06
-2.65162e-08
4.29879e-06
-2.85737e-08
4.32155e-06
-3.05982e-08
4.34657e-06
-3.34699e-08
4.37359e-06
-3.56084e-08
4.40416e-06
-3.94347e-08
4.43767e-06
-4.2075e-08
4.47571e-06
-4.58608e-08
4.52198e-06
-5.44544e-08
4.57016e-06
-5.2617e-08
4.64321e-06
-8.33984e-08
4.72637e-06
-8.48473e-08
4.85545e-06
-1.45709e-07
-1.59492e-06
5.64922e-06
1.35647e-05
5.17111e-06
1.28755e-05
2.4432e-06
1.21914e-05
1.46596e-06
1.16372e-05
1.07031e-06
1.12221e-05
7.83213e-07
1.08822e-05
6.30767e-07
1.06066e-05
5.08519e-07
1.0371e-05
4.3179e-07
1.01693e-05
3.68351e-07
9.99287e-06
3.20954e-07
9.83738e-06
2.82095e-07
9.69897e-06
2.50499e-07
9.57514e-06
2.23582e-07
9.46348e-06
2.01233e-07
9.36248e-06
1.81666e-07
9.27073e-06
1.64793e-07
9.1869e-06
1.50322e-07
9.11022e-06
1.37327e-07
9.03984e-06
1.25872e-07
8.97501e-06
1.15817e-07
8.91516e-06
1.06822e-07
8.85979e-06
9.87237e-08
8.80847e-06
9.141e-08
8.76079e-06
8.48715e-08
8.71639e-06
7.89579e-08
8.675e-06
7.35486e-08
8.63635e-06
6.86424e-08
8.60019e-06
6.41671e-08
8.56633e-06
6.005e-08
8.53458e-06
5.62872e-08
8.50475e-06
5.28359e-08
8.47671e-06
4.96468e-08
8.45032e-06
4.66945e-08
8.42546e-06
4.39575e-08
8.40202e-06
4.14303e-08
8.3799e-06
3.90776e-08
8.35901e-06
3.68778e-08
8.33927e-06
3.4818e-08
8.32061e-06
3.28864e-08
8.30298e-06
3.10651e-08
8.28632e-06
2.93365e-08
8.27058e-06
2.76876e-08
8.25573e-06
2.61001e-08
8.24174e-06
2.45621e-08
8.22859e-06
2.30541e-08
8.21629e-06
2.15584e-08
8.20482e-06
2.00545e-08
8.19421e-06
1.85328e-08
8.18447e-06
1.69545e-08
8.17566e-06
1.53112e-08
8.16782e-06
1.35643e-08
8.16101e-06
1.16976e-08
8.15531e-06
9.6741e-09
8.15083e-06
7.45815e-09
8.14768e-06
5.00494e-09
8.14599e-06
2.30864e-09
8.14592e-06
-6.98741e-10
8.14765e-06
-4.03514e-09
8.15144e-06
-7.83041e-09
8.1575e-06
-1.19644e-08
8.16614e-06
-1.67348e-08
8.1777e-06
-2.19784e-08
8.19256e-06
-2.80844e-08
8.20435e-06
-2.27565e-08
8.21767e-06
-2.60471e-08
8.23253e-06
-2.89131e-08
8.249e-06
-3.20656e-08
8.26703e-06
-3.50131e-08
8.28674e-06
-3.82426e-08
8.30812e-06
-4.13213e-08
8.33134e-06
-4.46743e-08
8.35642e-06
-4.7786e-08
8.38349e-06
-5.12624e-08
8.41263e-06
-5.47513e-08
8.44394e-06
-5.85836e-08
8.47778e-06
-6.32031e-08
8.51391e-06
-6.73842e-08
8.55366e-06
-7.38654e-08
8.59574e-06
-7.79472e-08
8.64349e-06
-8.70435e-08
8.69443e-06
-9.1876e-08
8.75253e-06
-1.01832e-07
8.82044e-06
-1.18378e-07
8.89191e-06
-1.1806e-07
8.99061e-06
-1.7426e-07
9.11274e-06
-1.92264e-07
9.24754e-06
-2.69425e-07
-2.29034e-06
9.94408e-06
1.82798e-05
4.10833e-06
1.81748e-05
2.54823e-06
1.75972e-05
2.04357e-06
1.6978e-05
1.68942e-06
1.64787e-05
1.28254e-06
1.60533e-05
1.05616e-06
1.57031e-05
8.58729e-07
1.54005e-05
7.34377e-07
1.51399e-05
6.28927e-07
1.49111e-05
5.49828e-07
1.47087e-05
4.8442e-07
1.45282e-05
4.31041e-07
1.43664e-05
3.85385e-07
1.42203e-05
3.47367e-07
1.4088e-05
3.14002e-07
1.39676e-05
2.85165e-07
1.38575e-05
2.60388e-07
1.37568e-05
2.38107e-07
1.36642e-05
2.18431e-07
1.35789e-05
2.01139e-07
1.35001e-05
1.85652e-07
1.34272e-05
1.71692e-07
1.33595e-05
1.59072e-07
1.32967e-05
1.47777e-07
1.32381e-05
1.37554e-07
1.31835e-05
1.28196e-07
1.31324e-05
1.197e-07
1.30847e-05
1.11946e-07
1.30399e-05
1.04807e-07
1.2998e-05
9.82784e-08
1.29585e-05
9.22866e-08
1.29214e-05
8.67479e-08
1.28865e-05
8.16176e-08
1.28536e-05
7.68592e-08
1.28226e-05
7.24631e-08
1.27933e-05
6.83697e-08
1.27657e-05
6.4541e-08
1.27395e-05
6.09547e-08
1.27148e-05
5.75902e-08
1.26914e-05
5.44171e-08
1.26694e-05
5.14046e-08
1.26485e-05
4.85301e-08
1.26288e-05
4.57622e-08
1.26103e-05
4.30794e-08
1.25928e-05
4.04488e-08
1.25765e-05
3.78395e-08
1.25613e-05
3.5215e-08
1.25472e-05
3.2559e-08
1.25343e-05
2.98049e-08
1.25226e-05
2.69371e-08
1.25122e-05
2.38892e-08
1.25032e-05
2.06329e-08
1.24957e-05
1.71067e-08
1.24897e-05
1.32501e-08
1.24856e-05
8.98877e-09
1.24833e-05
4.3062e-09
1.24833e-05
-9.10905e-10
1.24856e-05
-6.6943e-09
1.24906e-05
-1.32573e-08
1.24987e-05
-2.04835e-08
1.25102e-05
-2.87262e-08
1.25255e-05
-3.78577e-08
1.25453e-05
-4.84588e-08
1.2561e-05
-3.9144e-08
1.25786e-05
-4.46139e-08
1.25983e-05
-4.94926e-08
1.26201e-05
-5.48414e-08
1.26439e-05
-5.99182e-08
1.26699e-05
-6.53811e-08
1.26981e-05
-7.06849e-08
1.27287e-05
-7.6379e-08
1.27617e-05
-8.18397e-08
1.27973e-05
-8.77804e-08
1.28356e-05
-9.39245e-08
1.28766e-05
-1.00345e-07
1.29209e-05
-1.08372e-07
1.29679e-05
-1.15066e-07
1.30197e-05
-1.263e-07
1.3074e-05
-1.32496e-07
1.31355e-05
-1.48368e-07
1.32005e-05
-1.55719e-07
1.32741e-05
-1.73201e-07
1.33592e-05
-1.99396e-07
1.34472e-05
-1.99854e-07
1.35683e-05
-2.8739e-07
1.37102e-05
-3.19036e-07
1.38628e-05
-4.10737e-07
-2.92715e-06
1.45001e-05
2.33671e-05
2.04281e-06
2.38379e-05
2.07747e-06
2.34746e-05
2.40679e-06
2.28545e-05
2.30957e-06
2.22951e-05
1.84192e-06
2.17892e-05
1.562e-06
2.1362e-05
1.28599e-06
2.09867e-05
1.1097e-06
2.06604e-05
9.55213e-07
2.03719e-05
8.38253e-07
2.01159e-05
7.4048e-07
1.98867e-05
6.60241e-07
1.96808e-05
5.91269e-07
1.94946e-05
5.33626e-07
1.93257e-05
4.82907e-07
1.91719e-05
4.3896e-07
1.90312e-05
4.01129e-07
1.89022e-05
3.67068e-07
1.87837e-05
3.3694e-07
1.86745e-05
3.10429e-07
1.85735e-05
2.86665e-07
1.848e-05
2.65228e-07
1.83932e-05
2.4583e-07
1.83126e-05
2.28455e-07
1.82374e-05
2.12721e-07
1.81673e-05
1.98311e-07
1.81018e-05
1.85219e-07
1.80405e-05
1.73266e-07
1.79831e-05
1.62258e-07
1.79292e-05
1.52185e-07
1.78786e-05
1.42937e-07
1.7831e-05
1.34386e-07
1.77861e-05
1.26464e-07
1.77439e-05
1.19113e-07
1.7704e-05
1.1232e-07
1.76664e-05
1.05994e-07
1.76309e-05
1.00076e-07
1.75973e-05
9.45314e-08
1.75656e-05
8.93288e-08
1.75356e-05
8.44215e-08
1.75072e-05
7.97622e-08
1.74804e-05
7.53156e-08
1.74551e-05
7.10338e-08
1.74312e-05
6.68829e-08
1.74088e-05
6.2813e-08
1.73879e-05
5.87763e-08
1.73683e-05
5.4716e-08
1.73502e-05
5.06067e-08
1.73336e-05
4.63475e-08
1.73185e-05
4.19124e-08
1.73052e-05
3.72008e-08
1.72935e-05
3.21677e-08
1.72838e-05
2.67215e-08
1.72761e-05
2.07709e-08
1.72707e-05
1.42052e-08
1.72677e-05
6.99158e-09
1.72676e-05
-1.04108e-09
1.72704e-05
-9.94421e-09
1.72767e-05
-2.00069e-08
1.7287e-05
-3.11767e-08
1.73015e-05
-4.38404e-08
1.7321e-05
-5.79157e-08
1.73461e-05
-7.4226e-08
1.7366e-05
-5.98579e-08
1.73885e-05
-6.80465e-08
1.74134e-05
-7.54361e-08
1.7441e-05
-8.35188e-08
1.74712e-05
-9.12847e-08
1.75041e-05
-9.95331e-08
1.75398e-05
-1.07648e-07
1.75784e-05
-1.16249e-07
1.76201e-05
-1.24696e-07
1.7665e-05
-1.33678e-07
1.77134e-05
-1.43214e-07
1.77649e-05
-1.52748e-07
1.78208e-05
-1.65101e-07
1.78797e-05
-1.74695e-07
1.79445e-05
-1.91884e-07
1.80122e-05
-2.00452e-07
1.80886e-05
-2.24553e-07
1.8169e-05
-2.3481e-07
1.82594e-05
-2.61261e-07
1.83625e-05
-2.97988e-07
1.84701e-05
-3.00809e-07
1.86125e-05
-4.21058e-07
1.87799e-05
-4.70251e-07
1.89625e-05
-5.81128e-07
-3.4431e-06
1.94789e-05
2.92353e-05
-1.03032e-06
3.0278e-05
1.03481e-06
3.02e-05
2.48479e-06
2.96497e-05
2.85984e-06
2.90713e-05
2.42034e-06
2.85019e-05
2.1314e-06
2.80019e-05
1.78591e-06
2.75516e-05
1.56008e-06
2.71541e-05
1.35267e-06
2.67991e-05
1.1932e-06
2.64818e-05
1.05782e-06
2.61963e-05
9.45728e-07
2.59389e-05
8.48695e-07
2.57054e-05
7.67164e-07
2.54931e-05
6.95164e-07
2.52995e-05
6.3257e-07
2.51221e-05
5.78546e-07
2.49594e-05
5.29825e-07
2.48097e-05
4.86649e-07
2.46716e-05
4.48597e-07
2.45438e-05
4.14451e-07
2.44255e-05
3.83621e-07
2.43156e-05
3.55699e-07
2.42134e-05
3.30664e-07
2.41182e-05
3.07979e-07
2.40293e-05
2.87196e-07
2.39463e-05
2.683e-07
2.38685e-05
2.5104e-07
2.37957e-05
2.35139e-07
2.37273e-05
2.20582e-07
2.36631e-05
2.07212e-07
2.36026e-05
1.94848e-07
2.35457e-05
1.8339e-07
2.34921e-05
1.72757e-07
2.34415e-05
1.62925e-07
2.33937e-05
1.53769e-07
2.33486e-05
1.45203e-07
2.33059e-05
1.37176e-07
2.32656e-05
1.29643e-07
2.32275e-05
1.22537e-07
2.31914e-05
1.1579e-07
2.31574e-05
1.0935e-07
2.31252e-05
1.0315e-07
2.30949e-05
9.7139e-08
2.30665e-05
9.1246e-08
2.30398e-05
8.54027e-08
2.30149e-05
7.95261e-08
2.29919e-05
7.3579e-08
2.29707e-05
6.74188e-08
2.29516e-05
6.10056e-08
2.29345e-05
5.41963e-08
2.29196e-05
4.69247e-08
2.29071e-05
3.90617e-08
2.28972e-05
3.04776e-08
2.28902e-05
2.10181e-08
2.28862e-05
1.06277e-08
2.28858e-05
-9.35144e-10
2.28891e-05
-1.37554e-08
2.28968e-05
-2.81853e-08
2.29094e-05
-4.42802e-08
2.29273e-05
-6.24719e-08
2.29515e-05
-8.27348e-08
2.29827e-05
-1.06168e-07
2.30075e-05
-8.55363e-08
2.30354e-05
-9.70935e-08
2.30664e-05
-1.07583e-07
2.31006e-05
-1.19019e-07
2.31381e-05
-1.30116e-07
2.31789e-05
-1.41787e-07
2.32232e-05
-1.53381e-07
2.32711e-05
-1.65529e-07
2.33228e-05
-1.77682e-07
2.33782e-05
-1.90343e-07
2.34381e-05
-2.04095e-07
2.35017e-05
-2.17329e-07
2.35706e-05
-2.35007e-07
2.36431e-05
-2.47991e-07
2.37228e-05
-2.72392e-07
2.38057e-05
-2.83708e-07
2.38989e-05
-3.1755e-07
2.39966e-05
-3.31086e-07
2.41065e-05
-3.68435e-07
2.42288e-05
-4.15317e-07
2.43609e-05
-4.25439e-07
2.45239e-05
-5.74366e-07
2.47219e-05
-6.50351e-07
2.4959e-05
-8.04757e-07
-3.76126e-06
2.52778e-05
3.62009e-05
-5.2111e-06
3.78344e-05
-5.98666e-07
3.80847e-05
2.23448e-06
3.76647e-05
3.27984e-06
3.71177e-05
2.96725e-06
3.65146e-05
2.73455e-06
3.59568e-05
2.3437e-06
3.54362e-05
2.08071e-06
3.49666e-05
1.8222e-06
3.45409e-05
1.61894e-06
3.41562e-05
1.4425e-06
3.38075e-05
1.29449e-06
3.34911e-05
1.16504e-06
3.32029e-05
1.05541e-06
3.294e-05
9.58076e-07
3.26995e-05
8.73056e-07
3.24787e-05
7.99397e-07
3.22757e-05
7.32802e-07
3.20888e-05
6.73642e-07
3.1916e-05
6.21388e-07
3.17561e-05
5.74425e-07
3.16078e-05
5.31969e-07
3.147e-05
4.93475e-07
3.13418e-05
4.58917e-07
3.12222e-05
4.27578e-07
3.11106e-05
3.9885e-07
3.10062e-05
3.72707e-07
3.09085e-05
3.48815e-07
3.08169e-05
3.26796e-07
3.07309e-05
3.06626e-07
3.065e-05
2.88091e-07
3.05739e-05
2.70947e-07
3.05023e-05
2.55055e-07
3.04348e-05
2.40302e-07
3.0371e-05
2.26656e-07
3.03109e-05
2.13945e-07
3.0254e-05
2.02053e-07
3.02003e-05
1.90908e-07
3.01495e-05
1.80446e-07
3.01014e-05
1.70576e-07
3.0056e-05
1.61205e-07
3.0013e-05
1.52261e-07
2.99725e-05
1.4365e-07
2.99343e-05
1.35302e-07
2.98984e-05
1.2712e-07
2.98647e-05
1.1901e-07
2.98333e-05
1.10857e-07
2.98042e-05
1.02607e-07
2.97774e-05
9.40685e-08
2.97532e-05
8.51823e-08
2.97315e-05
7.57546e-08
2.97126e-05
6.5691e-08
2.96966e-05
5.48169e-08
2.96839e-05
4.29552e-08
2.96748e-05
2.98996e-08
2.96695e-05
1.55635e-08
2.96685e-05
-3.764e-10
2.96723e-05
-1.80573e-08
2.96814e-05
-3.78868e-08
2.96965e-05
-6.0061e-08
2.97183e-05
-8.50731e-08
2.97478e-05
-1.12975e-07
2.97859e-05
-1.45202e-07
2.98162e-05
-1.16933e-07
2.98504e-05
-1.32621e-07
2.98884e-05
-1.46912e-07
2.99303e-05
-1.62427e-07
2.99762e-05
-1.77598e-07
3.00262e-05
-1.93425e-07
3.00804e-05
-2.09265e-07
3.01389e-05
-2.25694e-07
3.0202e-05
-2.42366e-07
3.02697e-05
-2.59431e-07
3.03427e-05
-2.78311e-07
3.04202e-05
-2.95946e-07
3.0504e-05
-3.19987e-07
3.05921e-05
-3.37007e-07
3.06887e-05
-3.69896e-07
3.07891e-05
-3.84492e-07
3.09015e-05
-4.29679e-07
3.10189e-05
-4.46843e-07
3.11511e-05
-4.97589e-07
3.12947e-05
-5.53239e-07
3.14559e-05
-5.78121e-07
3.1642e-05
-7.49525e-07
3.18711e-05
-8.59638e-07
3.21784e-05
-1.09706e-06
-3.90236e-06
3.23203e-05
4.45751e-05
-1.06684e-05
4.68475e-05
-2.87103e-06
4.7459e-05
1.62292e-06
4.72132e-05
3.52565e-06
4.67467e-05
3.43373e-06
4.61479e-05
3.33339e-06
4.55577e-05
2.93385e-06
4.49811e-05
2.65736e-06
4.44459e-05
2.35742e-06
4.39503e-05
2.1145e-06
4.34958e-05
1.89699e-06
4.30792e-05
1.71116e-06
4.2698e-05
1.54625e-06
4.23484e-05
1.40502e-06
4.20279e-05
1.27863e-06
4.17334e-05
1.16751e-06
4.14621e-05
1.0707e-06
4.12121e-05
9.82846e-07
4.09813e-05
9.04542e-07
4.07675e-05
8.35162e-07
4.05694e-05
7.72657e-07
4.03853e-05
7.16047e-07
4.02142e-05
6.6465e-07
4.00547e-05
6.18422e-07
3.99059e-05
5.76451e-07
3.97669e-05
5.37942e-07
3.96367e-05
5.0286e-07
3.95148e-05
4.70773e-07
3.94005e-05
4.41186e-07
3.92931e-05
4.14062e-07
3.91921e-05
3.89121e-07
3.9097e-05
3.66042e-07
3.90075e-05
3.4464e-07
3.8923e-05
3.24767e-07
3.88433e-05
3.06373e-07
3.8768e-05
2.89234e-07
3.86969e-05
2.73198e-07
3.86296e-05
2.58167e-07
3.8566e-05
2.44053e-07
3.85058e-05
2.30736e-07
3.84489e-05
2.18091e-07
3.83951e-05
2.06023e-07
3.83443e-05
1.94405e-07
3.82964e-05
1.83144e-07
3.82513e-05
1.72109e-07
3.82091e-05
1.61176e-07
3.81697e-05
1.5019e-07
3.81331e-05
1.39076e-07
3.80995e-05
1.27583e-07
3.80689e-05
1.15629e-07
3.80416e-05
1.02958e-07
3.80176e-05
8.94397e-08
3.79974e-05
7.48443e-08
3.79811e-05
5.89361e-08
3.79692e-05
4.14483e-08
3.79621e-05
2.22518e-08
3.79603e-05
9.3025e-10
3.79643e-05
-2.27273e-08
3.79748e-05
-4.91792e-08
3.79928e-05
-7.87974e-08
3.80189e-05
-1.1215e-07
3.80543e-05
-1.49384e-07
3.81004e-05
-1.92365e-07
3.81371e-05
-1.54905e-07
3.81785e-05
-1.75624e-07
3.82245e-05
-1.94546e-07
3.82752e-05
-2.1499e-07
3.83308e-05
-2.35095e-07
3.83914e-05
-2.55927e-07
3.8457e-05
-2.76891e-07
3.85278e-05
-2.98448e-07
3.86042e-05
-3.20559e-07
3.8686e-05
-3.42869e-07
3.87741e-05
-3.67876e-07
3.88676e-05
-3.90763e-07
3.89685e-05
-4.22245e-07
3.90745e-05
-4.44152e-07
3.91904e-05
-4.86797e-07
3.93109e-05
-5.05456e-07
3.94451e-05
-5.6362e-07
3.95851e-05
-5.84869e-07
3.9743e-05
-6.5197e-07
3.99111e-05
-7.14894e-07
4.0105e-05
-7.6229e-07
4.03199e-05
-9.52016e-07
4.05804e-05
-1.09826e-06
4.0956e-05
-1.45595e-06
-3.94018e-06
4.09947e-05
5.47038e-05
-1.76307e-05
5.76928e-05
-5.85998e-06
5.87016e-05
6.14117e-07
5.86615e-05
3.56574e-06
5.83156e-05
3.77953e-06
5.77597e-05
3.88933e-06
5.71696e-05
3.52392e-06
5.65602e-05
3.26673e-06
5.59745e-05
2.94317e-06
5.54176e-05
2.67141e-06
5.48968e-05
2.41779e-06
5.44121e-05
2.19585e-06
5.39635e-05
1.9949e-06
5.35483e-05
1.82024e-06
5.31647e-05
1.6622e-06
5.28103e-05
1.52198e-06
5.24822e-05
1.39886e-06
5.21785e-05
1.28652e-06
5.18972e-05
1.18595e-06
5.1636e-05
1.09644e-06
5.13932e-05
1.01551e-06
5.11672e-05
9.42025e-07
5.09568e-05
8.75178e-07
5.07603e-05
8.149e-07
5.05768e-05
7.60074e-07
5.04051e-05
7.09707e-07
5.02442e-05
6.63752e-07
5.00934e-05
6.21671e-07
4.99518e-05
5.8284e-07
4.98187e-05
5.47202e-07
4.96935e-05
5.14402e-07
4.95755e-05
4.84031e-07
4.94643e-05
4.55853e-07
4.93595e-05
4.29675e-07
4.92604e-05
4.05427e-07
4.91668e-05
3.82823e-07
4.90784e-05
3.61669e-07
4.89947e-05
3.41835e-07
4.89155e-05
3.23204e-07
4.88406e-05
3.05622e-07
4.87697e-05
2.88925e-07
4.87027e-05
2.72988e-07
4.86394e-05
2.57648e-07
4.85797e-05
2.4278e-07
4.85235e-05
2.28214e-07
4.84708e-05
2.13789e-07
4.84216e-05
1.99303e-07
4.83759e-05
1.8465e-07
4.83338e-05
1.69513e-07
4.82955e-05
1.53778e-07
4.82612e-05
1.37117e-07
4.8231e-05
1.19353e-07
4.82054e-05
1.0019e-07
4.81847e-05
7.93197e-08
4.81693e-05
5.64077e-08
4.81597e-05
3.12645e-08
4.81566e-05
3.37182e-09
4.81607e-05
-2.75804e-08
4.81727e-05
-6.20976e-08
4.81936e-05
-1.00771e-07
4.82245e-05
-1.44249e-07
4.82667e-05
-1.92802e-07
4.83218e-05
-2.48825e-07
4.83658e-05
-2.00431e-07
4.84155e-05
-2.27232e-07
4.84707e-05
-2.51757e-07
4.85317e-05
-2.78132e-07
4.85985e-05
-3.04157e-07
4.86712e-05
-3.30987e-07
4.87499e-05
-3.58073e-07
4.88349e-05
-3.85763e-07
4.89266e-05
-4.14345e-07
4.90246e-05
-4.42892e-07
4.91301e-05
-4.75113e-07
4.92421e-05
-5.04273e-07
4.93626e-05
-5.44354e-07
4.94894e-05
-5.72247e-07
4.96273e-05
-6.25913e-07
4.97711e-05
-6.49765e-07
4.99303e-05
-7.22501e-07
5.00963e-05
-7.4861e-07
5.02836e-05
-8.35149e-07
5.04809e-05
-9.04773e-07
5.07105e-05
-9.80889e-07
5.09612e-05
-1.18872e-06
5.12568e-05
-1.37012e-06
5.16858e-05
-1.86658e-06
-3.95414e-06
5.17006e-05
6.69924e-05
-2.63846e-05
7.08046e-05
-9.67217e-06
7.22568e-05
-8.3816e-07
7.2449e-05
3.3736e-06
7.22549e-05
3.9736e-06
7.17747e-05
4.3695e-06
7.12179e-05
4.08068e-06
7.06046e-05
3.88011e-06
6.99912e-05
3.55652e-06
6.93896e-05
3.27301e-06
6.88136e-05
2.99382e-06
6.82674e-05
2.74202e-06
6.77542e-05
2.50811e-06
6.72735e-05
2.30096e-06
6.68251e-05
2.11069e-06
6.64072e-05
1.93987e-06
6.60179e-05
1.78829e-06
6.56555e-05
1.64895e-06
6.53181e-05
1.52344e-06
6.50035e-05
1.41106e-06
6.47101e-05
1.30893e-06
6.44364e-05
1.21587e-06
6.41806e-05
1.13099e-06
6.39414e-05
1.05417e-06
6.37175e-05
9.84127e-07
6.35076e-05
9.19655e-07
6.33107e-05
8.60707e-07
6.31258e-05
8.06642e-07
6.2952e-05
7.56695e-07
6.27885e-05
7.10787e-07
6.26345e-05
6.68478e-07
6.24893e-05
6.29264e-07
6.23523e-05
5.92854e-07
6.2223e-05
5.59005e-07
6.21009e-05
5.27619e-07
6.19854e-05
4.98341e-07
6.18761e-05
4.7093e-07
6.17727e-05
4.45218e-07
6.16749e-05
4.21054e-07
6.15822e-05
3.9824e-07
6.14945e-05
3.76572e-07
6.14115e-05
3.55884e-07
6.13331e-05
3.35974e-07
6.12592e-05
3.16675e-07
6.11895e-05
2.97771e-07
6.11241e-05
2.79058e-07
6.1063e-05
2.60278e-07
6.10062e-05
2.41283e-07
6.09538e-05
2.21682e-07
6.09061e-05
2.01318e-07
6.08632e-05
1.7978e-07
6.08254e-05
1.56831e-07
6.07932e-05
1.32097e-07
6.07669e-05
1.05181e-07
6.07471e-05
7.56738e-08
6.07343e-05
4.32998e-08
6.07294e-05
7.43105e-09
6.07332e-05
-3.23665e-08
6.07466e-05
-7.6646e-08
6.07708e-05
-1.2627e-07
6.0807e-05
-1.81967e-07
6.08569e-05
-2.44169e-07
6.09223e-05
-3.15907e-07
6.09746e-05
-2.54633e-07
6.10337e-05
-2.88724e-07
6.10996e-05
-3.19991e-07
6.11723e-05
-3.53465e-07
6.12519e-05
-3.86551e-07
6.13387e-05
-4.20544e-07
6.14326e-05
-4.54902e-07
6.15339e-05
-4.89888e-07
6.16432e-05
-5.26118e-07
6.17601e-05
-5.62068e-07
6.18856e-05
-6.02727e-07
6.20189e-05
-6.39371e-07
6.2162e-05
-6.89334e-07
6.23128e-05
-7.2457e-07
6.2476e-05
-7.90539e-07
6.26468e-05
-8.21142e-07
6.28347e-05
-9.09954e-07
6.3031e-05
-9.42347e-07
6.32517e-05
-1.05104e-06
6.34836e-05
-1.12828e-06
6.37526e-05
-1.2375e-06
6.40457e-05
-1.46622e-06
6.43836e-05
-1.68289e-06
6.48488e-05
-2.31197e-06
-4.00204e-06
6.48976e-05
8.19275e-05
-3.72784e-05
8.66984e-05
-1.4443e-05
8.8654e-05
-2.79382e-06
8.9106e-05
2.92166e-06
8.90891e-05
3.99045e-06
8.87102e-05
4.74835e-06
8.82157e-05
4.5752e-06
8.76271e-05
4.46868e-06
8.70129e-05
4.17068e-06
8.63896e-05
3.89639e-06
8.57768e-05
3.60655e-06
8.51833e-05
3.33564e-06
8.46154e-05
3.07594e-06
8.40757e-05
2.84074e-06
8.35659e-05
2.62054e-06
8.30859e-05
2.41996e-06
8.26346e-05
2.23962e-06
8.22115e-05
2.07213e-06
8.18149e-05
1.92009e-06
8.14432e-05
1.78288e-06
8.10949e-05
1.65732e-06
8.07685e-05
1.54235e-06
8.04625e-05
1.43711e-06
8.01753e-05
1.3414e-06
7.99057e-05
1.25383e-06
7.96525e-05
1.173e-06
7.94144e-05
1.09888e-06
7.91904e-05
1.03077e-06
7.89794e-05
9.67723e-07
7.87807e-05
9.0966e-07
7.85932e-05
8.56051e-07
7.84162e-05
8.06292e-07
7.82491e-05
7.60041e-07
7.80911e-05
7.17001e-07
7.79417e-05
6.77033e-07
7.78004e-05
6.39715e-07
7.76666e-05
6.04756e-07
7.75398e-05
5.7194e-07
7.74198e-05
5.41077e-07
7.7306e-05
5.1192e-07
7.71983e-05
4.84217e-07
7.70964e-05
4.57757e-07
7.7e-05
4.32288e-07
7.69089e-05
4.07598e-07
7.68231e-05
3.83414e-07
7.67426e-05
3.5948e-07
7.66672e-05
3.35477e-07
7.65971e-05
3.11196e-07
7.65323e-05
2.86167e-07
7.64732e-05
2.60176e-07
7.642e-05
2.32717e-07
7.6373e-05
2.0348e-07
7.63326e-05
1.71993e-07
7.62995e-05
1.37758e-07
7.62742e-05
1.0028e-07
7.62575e-05
5.91645e-08
7.62502e-05
1.36689e-08
7.62533e-05
-3.6789e-08
7.6268e-05
-9.28187e-08
7.62958e-05
-1.55616e-07
7.63379e-05
-2.25975e-07
7.63964e-05
-3.04554e-07
7.64735e-05
-3.95132e-07
7.65354e-05
-3.18804e-07
7.66054e-05
-3.61567e-07
7.66834e-05
-4.00903e-07
7.67696e-05
-4.42825e-07
7.68641e-05
-4.84311e-07
7.6967e-05
-5.26816e-07
7.70784e-05
-5.6978e-07
7.71986e-05
-6.134e-07
7.73282e-05
-6.58635e-07
7.74667e-05
-7.03348e-07
7.76154e-05
-7.53856e-07
7.77734e-05
-7.99413e-07
7.79426e-05
-8.60705e-07
7.81212e-05
-9.04916e-07
7.83135e-05
-9.84547e-07
7.85157e-05
-1.02392e-06
7.87365e-05
-1.13019e-06
7.89683e-05
-1.17121e-06
7.92268e-05
-1.30414e-06
7.94995e-05
-1.39154e-06
7.98128e-05
-1.53708e-06
8.0154e-05
-1.79023e-06
8.0543e-05
-2.04616e-06
8.10309e-05
-2.77918e-06
-4.12103e-06
8.11509e-05
0.0001001
-5.07259e-05
0.000105994
-2.03375e-05
0.000108528
-5.32807e-06
0.000109272
2.17751e-06
0.000109457
3.80608e-06
0.000109199
5.00586e-06
0.00010879
4.98455e-06
0.000108251
5.0077e-06
0.000107662
4.75966e-06
0.000107042
4.51633e-06
0.000106416
4.2328e-06
0.000105795
3.95644e-06
0.000105189
3.68149e-06
0.000104604
3.42603e-06
0.000104043
3.18142e-06
0.000103509
2.95477e-06
0.000103
2.74781e-06
0.00010252
2.5531e-06
0.000102065
2.37465e-06
0.000101636
2.21203e-06
0.000101232
2.06192e-06
0.000100851
1.92358e-06
0.000100491
1.79633e-06
0.000100153
1.6799e-06
9.98342e-05
1.57287e-06
9.95336e-05
1.4737e-06
9.92502e-05
1.38242e-06
9.89828e-05
1.29829e-06
9.87304e-05
1.22024e-06
9.8492e-05
1.14816e-06
9.82667e-05
1.08144e-06
9.80537e-05
1.01938e-06
9.78522e-05
9.61613e-07
9.76615e-05
9.07777e-07
9.74809e-05
8.57686e-07
9.73098e-05
8.10859e-07
9.71476e-05
7.6695e-07
9.69938e-05
7.25685e-07
9.6848e-05
6.86838e-07
9.67098e-05
6.50103e-07
9.65788e-05
6.15177e-07
9.64546e-05
5.81796e-07
9.63371e-05
5.49655e-07
9.62261e-05
5.18483e-07
9.61214e-05
4.87946e-07
9.60229e-05
4.57726e-07
9.59307e-05
4.27431e-07
9.58449e-05
3.96776e-07
9.57656e-05
3.65206e-07
9.5693e-05
3.32433e-07
9.56274e-05
2.97845e-07
9.55694e-05
2.61035e-07
9.55194e-05
2.21422e-07
9.54781e-05
1.78383e-07
9.54462e-05
1.31334e-07
9.54245e-05
7.97146e-08
9.54142e-05
2.26657e-08
9.54164e-05
-4.05612e-08
9.54324e-05
-1.10662e-07
9.5464e-05
-1.89218e-07
9.55128e-05
-2.77088e-07
9.55811e-05
-3.7522e-07
9.56716e-05
-4.88288e-07
9.57445e-05
-3.94453e-07
9.58269e-05
-4.47464e-07
9.5919e-05
-4.96419e-07
9.60208e-05
-5.48337e-07
9.61323e-05
-5.99775e-07
9.62538e-05
-6.52355e-07
9.63855e-05
-7.05473e-07
9.65275e-05
-7.59275e-07
9.66804e-05
-8.15085e-07
9.68441e-05
-8.70141e-07
9.70195e-05
-9.32129e-07
9.72059e-05
-9.88279e-07
9.74053e-05
-1.06254e-06
9.7616e-05
-1.11767e-06
9.78421e-05
-1.21246e-06
9.80807e-05
-1.2631e-06
9.83393e-05
-1.38813e-06
9.86125e-05
-1.44108e-06
9.89142e-05
-1.59975e-06
9.92344e-05
-1.70127e-06
9.95983e-05
-1.88612e-06
9.9992e-05
-2.16555e-06
0.00010044
-2.46928e-06
0.000100944
-3.26218e-06
-4.33313e-06
0.000101158
0.000122228
-6.72105e-05
0.000129442
-2.75514e-05
0.000132646
-8.53214e-06
0.000133722
1.10187e-06
0.000134133
3.39484e-06
0.000134014
5.12473e-06
0.000133708
5.29062e-06
0.000133238
5.47779e-06
0.000132696
5.30157e-06
0.000132103
5.10955e-06
0.000131487
4.84873e-06
0.000130862
4.58125e-06
0.00013024
4.3032e-06
0.000129629
4.03745e-06
0.000129034
3.77643e-06
0.000128459
3.53007e-06
0.000127906
3.30113e-06
0.000127376
3.08251e-06
0.000126871
2.87994e-06
0.00012639
2.69323e-06
0.000125933