/*--------------------------------*- C++ -*----------------------------------*\
| =========                 |                                                 |
| \\      /  F ield         | OpenFOAM: The Open Source CFD Toolbox           |
|  \\    /   O peration     | Version:  2306                                  |
|   \\  /    A nd           | Website:  www.openfoam.com                      |
|    \\/     M anipulation  |                                                 |
\*---------------------------------------------------------------------------*/
FoamFile
{
    version     2.0;
    format      ascii;
    arch        "LSB;label=32;scalar=64";
    class       volSymmTensorField;
    location    "1800";
    object      turbulenceProperties:devReff;
}
// * * * * * * * * * * * * * * * * * * * * * * * * * * * * * * * * * * * * * //

dimensions      [0 2 -2 0 0 0 0];

internalField   nonuniform List<symmTensor> 
20540
(
(47.7105 -84.8424 -0 -47.7098 -0 -0.000644975)
(96.4962 -97.8616 -0 -90.4608 -0 -6.03542)
(47.6599 -176.977 -0 -47.6603 -0 0.000411293)
(31.1858 -204.245 -0 -36.767 -0 5.58121)
(47.5922 -190.692 -0 -47.5924 -0 0.000197473)
(-3.21013 -220.274 -0 2.00493 -0 1.20521)
(47.5038 -202.758 -0 -47.5038 -0 -3.20098e-05)
(-17.5911 -234.487 -0 18.3962 -0 -0.805159)
(47.3902 -213.112 -0 -47.3902 -0 -5.39528e-05)
(-23.9407 -246.813 -0 24.3807 -0 -0.44001)
(47.2458 -221.648 -0 -47.2457 -0 -4.30094e-05)
(-27.9317 -257.138 -0 27.9934 -0 -0.0617226)
(47.0639 -228.523 -0 -47.0639 -0 -5.2544e-05)
(-31.0201 -265.659 -0 31.0054 -0 0.0146183)
(46.8369 -233.924 -0 -46.8368 -0 -7.75733e-05)
(-33.4716 -272.611 -0 33.4681 -0 0.0035528)
(46.5553 -238.03 -0 -46.5552 -0 -0.000115015)
(-35.4281 -278.224 -0 35.4312 -0 -0.00309979)
(46.208 -240.986 -0 -46.2078 -0 -0.000169536)
(-37.01 -282.695 -0 37.0119 -0 -0.0019276)
(45.7813 -242.907 -0 -45.7811 -0 -0.000249866)
(-38.2928 -286.19 -0 38.2928 -0 -7.99907e-06)
(45.259 -243.872 -0 -45.2587 -0 -0.000368529)
(-39.3146 -288.842 -0 39.3134 -0 0.00115851)
(44.6217 -243.929 -0 -44.6211 -0 -0.000543827)
(-40.0907 -290.751 -0 40.0885 -0 0.00215942)
(43.846 -243.098 -0 -43.8451 -0 -0.000802829)
(-40.6224 -291.991 -0 40.6189 -0 0.00345869)
(42.9042 -241.368 -0 -42.903 -0 -0.00118552)
(-40.8993 -292.608 -0 40.894 -0 0.00530026)
(41.7637 -238.703 -0 -41.7619 -0 -0.00175078)
(-40.901 -292.623 -0 40.893 -0 0.00794672)
(40.3861 -235.044 -0 -40.3835 -0 -0.00258491)
(-40.5974 -292.027 -0 40.5856 -0 0.0117871)
(38.7272 -230.304 -0 -38.7234 -0 -0.00381407)
(-39.9488 -290.78 -0 39.9314 -0 0.0173938)
(36.7367 -224.375 -0 -36.7311 -0 -0.00562225)
(-38.9056 -288.807 -0 38.88 -0 0.0256031)
(34.3595 -217.132 -0 -34.3512 -0 -0.00827578)
(-37.4088 -285.987 -0 37.3712 -0 0.0376464)
(31.5372 -208.43 -0 -31.525 -0 -0.0121482)
(-35.3903 -282.146 -0 35.335 -0 0.0553495)
(28.2137 -198.118 -0 -28.1959 -0 -0.0177337)
(-32.7752 -277.039 -0 32.6938 -0 0.0814121)
(24.343 -186.045 -0 -24.3173 -0 -0.0256899)
(-29.4858 -270.339 -0 29.3661 -0 0.119772)
(19.9041 -172.076 -0 -19.867 -0 -0.0371426)
(-25.4506 -261.611 -0 25.2744 -0 0.176152)
(14.9236 -156.111 -0 -14.8692 -0 -0.0544252)
(-20.6159 -250.295 -0 20.3568 -0 0.25904)
(9.51352 -138.111 -0 -9.43312 -0 -0.0804031)
(-14.9643 -235.671 -0 14.5803 -0 0.383969)
(3.93388 -118.133 -0 -3.82397 -0 -0.109912)
(-8.53688 -216.82 -0 7.95414 -0 0.582743)
(-1.31769 -96.3616 -0 1.43082 -0 -0.113131)
(-1.47983 -192.525 -0 0.580004 -0 0.899822)
(-5.4631 -73.0608 -0 5.53448 -0 -0.0713806)
(5.81648 -161.007 -0 -7.13531 -0 1.31883)
(-7.51131 -47.9526 -0 7.53882 -0 -0.0275101)
(12.5207 -119.585 -0 -14.2168 -0 1.69613)
(-7.35371 -25.4779 -0 7.47445 -0 -0.120742)
(16.6641 -70.115 -0 -18.5449 -0 1.88085)
(-6.10905 -6.6048 -0 6.34374 -0 -0.234686)
(18.1828 -21.0913 -0 -20.0378 -0 1.85503)
(-6.19698 8.38647 -0 6.42396 -0 -0.226979)
(18.1335 26.4649 -0 -19.9914 -0 1.85787)
(-7.35636 27.6419 -0 7.45667 -0 -0.100311)
(16.4961 75.6975 -0 -18.3496 -0 1.85352)
(-7.29458 49.972 -0 7.32168 -0 -0.0271001)
(12.2497 124.279 -0 -13.8827 -0 1.63304)
(-5.06301 74.5718 -0 5.13739 -0 -0.074382)
(5.66273 164.259 -0 -6.92075 -0 1.25801)
(-0.833977 97.4877 -0 0.94637 -0 -0.112393)
(-1.47361 195.142 -0 0.607679 -0 0.865929)
(4.44619 119.029 -0 -4.33948 -0 -0.106709)
(-8.42261 219.184 -0 7.85229 -0 0.57032)
(10.0428 138.909 -0 -9.96469 -0 -0.0781308)
(-14.8131 237.989 -0 14.4306 -0 0.382464)
(15.4837 156.935 -0 -15.43 -0 -0.0536623)
(-20.4921 252.703 -0 20.2301 -0 0.261963)
(20.5167 173.035 -0 -20.4794 -0 -0.0372573)
(-25.4046 264.185 -0 25.224 -0 0.180639)
(25.0282 187.227 -0 -25.002 -0 -0.0261621)
(-29.5546 273.115 -0 29.4301 -0 0.124565)
(28.9863 199.591 -0 -28.968 -0 -0.0183116)
(-32.9838 280.031 -0 32.8979 -0 0.0859111)
(32.4064 210.244 -0 -32.3936 -0 -0.0127195)
(-35.7545 285.354 -0 35.6952 -0 0.0592905)
(35.329 219.32 -0 -35.3203 -0 -0.00878773)
(-37.9375 289.406 -0 37.8966 -0 0.0409518)
(37.8066 226.96 -0 -37.8006 -0 -0.00605387)
(-39.6032 292.433 -0 39.5749 -0 0.0283004)
(39.8943 233.297 -0 -39.8902 -0 -0.00416325)
(-40.8169 294.611 -0 40.7973 -0 0.0195569)
(41.6455 238.453 -0 -41.6426 -0 -0.0028594)
(-41.6366 296.068 -0 41.6231 -0 0.0135045)
(43.1091 242.535 -0 -43.1072 -0 -0.00196217)
(-42.1118 296.887 -0 42.1025 -0 0.00930654)
(44.3289 245.629 -0 -44.3276 -0 -0.00134587)
(-42.2836 297.118 -0 42.2773 -0 0.00638349)
(45.3431 247.803 -0 -45.3421 -0 -0.000923065)
(-42.1844 296.779 -0 42.18 -0 0.00433203)
(46.1843 249.101 -0 -46.1836 -0 -0.000633191)
(-41.838 295.865 -0 41.8351 -0 0.00287435)
(46.8805 249.544 -0 -46.8801 -0 -0.000434486)
(-41.2597 294.344 -0 41.2579 -0 0.00182019)
(47.4555 249.13 -0 -47.4552 -0 -0.000298258)
(-40.4558 292.163 -0 40.4549 -0 0.000970512)
(47.9292 247.829 -0 -47.929 -0 -0.000204846)
(-39.4218 289.242 -0 39.4219 -0 -0.000107576)
(48.3182 245.585 -0 -48.3181 -0 -0.000140769)
(-38.1394 285.478 -0 38.1414 -0 -0.00195574)
(48.6367 242.314 -0 -48.6366 -0 -9.66779e-05)
(-36.5686 280.736 -0 36.5716 -0 -0.00300976)
(48.8964 237.897 -0 -48.8963 -0 -6.60004e-05)
(-34.6323 274.852 -0 34.6286 -0 0.00364848)
(49.107 232.184 -0 -49.1069 -0 -4.52196e-05)
(-32.2094 267.627 -0 32.1957 -0 0.0136859)
(49.2767 224.989 -0 -49.2766 -0 -3.63059e-05)
(-29.1566 258.83 -0 29.2218 -0 -0.0652514)
(49.4123 216.11 -0 -49.4123 -0 -4.1323e-05)
(-25.1964 248.209 -0 25.6369 -0 -0.440515)
(49.5197 205.351 -0 -49.5197 -0 -2.15896e-05)
(-18.8396 235.528 -0 19.6181 -0 -0.778509)
(49.6038 192.6 -0 -49.6039 -0 0.000166017)
(-4.41198 220.651 -0 3.18477 -0 1.22721)
(49.6684 178.091 -0 -49.6688 -0 0.000356682)
(30.0695 203.845 -0 -35.4771 -0 5.40763)
(49.7162 85.2301 -0 -49.7157 -0 -0.000572177)
(94.3351 97.5038 -0 -88.4558 -0 -5.87938)
(0.0049272 -9.47265 -0 -0.00380763 -0 -0.00111957)
(0.00114805 -7.11732 -0 -0.0012154 -0 6.73466e-05)
(0.000375135 -6.44415 -0 -0.000406182 -0 3.10465e-05)
(0.000239358 -5.95026 -0 -0.000247521 -0 8.16295e-06)
(0.000169546 -5.65982 -0 -0.000175578 -0 6.03128e-06)
(0.000137875 -5.40935 -0 -0.000140639 -0 2.76399e-06)
(0.000112706 -5.22589 -0 -0.000115344 -0 2.63803e-06)
(9.81407e-05 -5.06707 -0 -9.99303e-05 -0 1.78961e-06)
(8.58415e-05 -4.93618 -0 -8.74528e-05 -0 1.61124e-06)
(7.69846e-05 -4.82229 -0 -7.82999e-05 -0 1.31526e-06)
(6.96785e-05 -4.72381 -0 -7.08404e-05 -0 1.1618e-06)
(6.38062e-05 -4.63663 -0 -6.48241e-05 -0 1.01789e-06)
(5.87627e-05 -4.55958 -0 -5.96699e-05 -0 9.0722e-07)
(5.46142e-05 -4.4906 -0 -5.54326e-05 -0 8.18386e-07)
(5.09327e-05 -4.42858 -0 -5.16736e-05 -0 7.40924e-07)
(4.77541e-05 -4.3727 -0 -4.84318e-05 -0 6.77725e-07)
(4.50392e-05 -4.32191 -0 -4.56635e-05 -0 6.24364e-07)
(4.25552e-05 -4.27564 -0 -4.31318e-05 -0 5.76548e-07)
(4.03538e-05 -4.23345 -0 -4.08897e-05 -0 5.35946e-07)
(3.84251e-05 -4.19473 -0 -3.89264e-05 -0 5.0128e-07)
(3.66832e-05 -4.15914 -0 -3.71536e-05 -0 4.70389e-07)
(3.5098e-05 -4.12632 -0 -3.55406e-05 -0 4.42535e-07)
(3.36503e-05 -4.09603 -0 -3.40685e-05 -0 4.18261e-07)
(3.23573e-05 -4.06798 -0 -3.2754e-05 -0 3.96662e-07)
(3.11803e-05 -4.04194 -0 -3.15578e-05 -0 3.77514e-07)
(3.00874e-05 -4.01772 -0 -3.04467e-05 -0 3.59292e-07)
(2.90934e-05 -3.99518 -0 -2.94371e-05 -0 3.43683e-07)
(2.81806e-05 -3.97414 -0 -2.85092e-05 -0 3.28681e-07)
(2.73295e-05 -3.95449 -0 -2.76448e-05 -0 3.15322e-07)
(2.65495e-05 -3.93609 -0 -2.68521e-05 -0 3.02582e-07)
(2.58312e-05 -3.91886 -0 -2.61225e-05 -0 2.91287e-07)
(2.51596e-05 -3.90268 -0 -2.54395e-05 -0 2.79853e-07)
(2.4531e-05 -3.88749 -0 -2.48003e-05 -0 2.69366e-07)
(2.39413e-05 -3.8732 -0 -2.42002e-05 -0 2.58858e-07)
(2.33959e-05 -3.85975 -0 -2.36449e-05 -0 2.49043e-07)
(2.28809e-05 -3.84707 -0 -2.31197e-05 -0 2.3885e-07)
(2.23902e-05 -3.83512 -0 -2.2619e-05 -0 2.28835e-07)
(2.19211e-05 -3.82384 -0 -2.21398e-05 -0 2.18625e-07)
(2.14714e-05 -3.81319 -0 -2.16799e-05 -0 2.08557e-07)
(2.10333e-05 -3.80313 -0 -2.12315e-05 -0 1.98241e-07)
(2.05984e-05 -3.79364 -0 -2.07861e-05 -0 1.87738e-07)
(2.01599e-05 -3.78467 -0 -2.0337e-05 -0 1.77023e-07)
(1.97063e-05 -3.77622 -0 -1.98722e-05 -0 1.65887e-07)
(1.92287e-05 -3.76825 -0 -1.93831e-05 -0 1.54442e-07)
(1.87108e-05 -3.76077 -0 -1.8853e-05 -0 1.42189e-07)
(1.81353e-05 -3.75375 -0 -1.82645e-05 -0 1.29204e-07)
(1.74808e-05 -3.7472 -0 -1.75958e-05 -0 1.14956e-07)
(1.67319e-05 -3.74112 -0 -1.68315e-05 -0 9.95416e-08)
(1.58435e-05 -3.73553 -0 -1.59251e-05 -0 8.15418e-08)
(1.47953e-05 -3.73044 -0 -1.48566e-05 -0 6.13263e-08)
(1.35336e-05 -3.72588 -0 -1.35696e-05 -0 3.59515e-08)
(1.20229e-05 -3.72188 -0 -1.20259e-05 -0 3.03165e-09)
(1.0201e-05 -3.71848 -0 -1.01575e-05 -0 -4.35547e-08)
(7.994e-06 -3.71574 -0 -7.88062e-06 -0 -1.13376e-07)
(5.32606e-06 -3.7137 -0 -5.11642e-06 -0 -2.09635e-07)
(2.11205e-06 -3.71245 -0 -1.78024e-06 -0 -3.31806e-07)
(-1.72871e-06 -3.71206 -0 2.22092e-06 -0 -4.92208e-07)
(-6.41555e-06 -3.71263 -0 7.06289e-06 -0 -6.4734e-07)
(-1.20227e-05 -3.71431 -0 1.28978e-05 -0 -8.75118e-07)
(-1.86541e-05 -3.71717 -0 1.96378e-05 -0 -9.83736e-07)
(-2.67396e-05 -3.72145 -0 2.80247e-05 -0 -1.28507e-06)
(-3.62691e-05 -3.72723 -0 3.76431e-05 -0 -1.374e-06)
(-4.77306e-05 -3.73486 -0 4.95382e-05 -0 -1.80761e-06)
(-5.99779e-05 -3.74277 -0 6.33854e-05 -0 -3.40748e-06)
(-7.17611e-05 -3.75001 -0 7.67019e-05 -0 -4.94081e-06)
(-8.43587e-05 -3.75809 -0 8.98874e-05 -0 -5.52875e-06)
(-9.84907e-05 -3.76719 -0 0.000104917 -0 -6.42605e-06)
(-0.000113349 -3.77715 -0 0.000120567 -0 -7.21713e-06)
(-0.000130129 -3.7881 -0 0.000138477 -0 -8.34862e-06)
(-0.000148765 -3.79999 -0 0.000157847 -0 -9.08168e-06)
(-0.000169437 -3.81299 -0 0.000179371 -0 -9.93402e-06)
(-0.000192019 -3.827 -0 0.000201765 -0 -9.74631e-06)
(-0.000217181 -3.84232 -0 0.000227376 -0 -1.01943e-05)
(-0.000245357 -3.85865 -0 0.000255039 -0 -9.68161e-06)
(-0.000276974 -3.87655 -0 0.000287547 -0 -1.05725e-05)
(-0.000315791 -3.89547 -0 0.000326455 -0 -1.06637e-05)
(-0.000355754 -3.91664 -0 0.000368969 -0 -1.32159e-05)
(-0.000414447 -3.93831 -0 0.000425624 -0 -1.11774e-05)
(-0.000463256 -3.9645 -0 0.000479047 -0 -1.57911e-05)
(-0.000558957 -3.98887 -0 0.000561469 -0 -2.51179e-06)
(-0.000621096 -4.02377 -0 0.000632441 -0 -1.13449e-05)
(-0.000773759 -4.05076 -0 0.00074137 -0 3.23894e-05)
(-0.00091131 -4.10018 -0 0.000916626 -0 -5.31595e-06)
(-0.00115346 -4.13287 -0 0.00101792 -0 0.000135541)
(-0.00145245 -4.20881 -0 0.00153112 -0 -7.86657e-05)
(-0.00298999 -4.24216 -0 0.00244681 -0 0.000543183)
(-0.00029366 -4.47512 -0 0.0015609 -0 -0.00126724)
(-0.0673991 -4.16675 2.82138e-21 0.0590603 -0 0.00833875)
(0.00554365 -9.67507 -0 -0.00636127 -0 0.000817619)
(0.00199079 -6.21299 -0 -0.00190234 -0 -8.84524e-05)
(0.00101466 -5.65039 -0 -0.0010045 -0 -1.01588e-05)
(0.000708081 -5.23656 -0 -0.000701905 -0 -6.17629e-06)
(0.000511371 -4.99097 -0 -0.000510211 -0 -1.15963e-06)
(0.000421124 -4.78189 -0 -0.000418042 -0 -3.0818e-06)
(0.000345351 -4.62836 -0 -0.00034358 -0 -1.77038e-06)
(0.000301824 -4.49674 -0 -0.000299702 -0 -2.12181e-06)
(0.000264467 -4.38838 -0 -0.000262729 -0 -1.73795e-06)
(0.000237564 -4.29454 -0 -0.000235874 -0 -1.68972e-06)
(0.000215292 -4.21355 -0 -0.000213756 -0 -1.53597e-06)
(0.000197353 -4.14203 -0 -0.000195913 -0 -1.44001e-06)
(0.000181929 -4.07891 -0 -0.00018059 -0 -1.33984e-06)
(0.000169219 -4.0225 -0 -0.000167961 -0 -1.25781e-06)
(0.000157933 -3.97182 -0 -0.000156754 -0 -1.17966e-06)
(0.000148173 -3.92619 -0 -0.000147061 -0 -1.11184e-06)
(0.000139833 -3.88476 -0 -0.000138782 -0 -1.05085e-06)
(0.000132196 -3.84702 -0 -0.000131201 -0 -9.94783e-07)
(0.000125421 -3.81263 -0 -0.000124477 -0 -9.4335e-07)
(0.00011948 -3.78107 -0 -0.000118581 -0 -8.98739e-07)
(0.000114113 -3.75208 -0 -0.000113257 -0 -8.56416e-07)
(0.000109226 -3.72534 -0 -0.000108407 -0 -8.18831e-07)
(0.000104758 -3.70066 -0 -0.000103975 -0 -7.83212e-07)
(0.000100767 -3.67781 -0 -0.000100014 -0 -7.52298e-07)
(9.71312e-05 -3.6566 -0 -9.64082e-05 -0 -7.22996e-07)
(9.37556e-05 -3.63687 -0 -9.30589e-05 -0 -6.96692e-07)
(9.0682e-05 -3.61851 -0 -9.00098e-05 -0 -6.72197e-07)
(8.78601e-05 -3.60136 -0 -8.72097e-05 -0 -6.50355e-07)
(8.52269e-05 -3.58535 -0 -8.45973e-05 -0 -6.29613e-07)
(8.28138e-05 -3.57036 -0 -8.22024e-05 -0 -6.11479e-07)
(8.05901e-05 -3.55632 -0 -7.99956e-05 -0 -5.94513e-07)
(7.85126e-05 -3.54313 -0 -7.7933e-05 -0 -5.79551e-07)
(7.65666e-05 -3.53075 -0 -7.60008e-05 -0 -5.65844e-07)
(7.47425e-05 -3.5191 -0 -7.41885e-05 -0 -5.53919e-07)
(7.30545e-05 -3.50814 -0 -7.2511e-05 -0 -5.43513e-07)
(7.14632e-05 -3.4978 -0 -7.09285e-05 -0 -5.34657e-07)
(6.99476e-05 -3.48805 -0 -6.94205e-05 -0 -5.27052e-07)
(6.85009e-05 -3.47885 -0 -6.798e-05 -0 -5.2088e-07)
(6.71154e-05 -3.47016 -0 -6.65995e-05 -0 -5.15868e-07)
(6.57689e-05 -3.46196 -0 -6.52568e-05 -0 -5.12005e-07)
(6.44356e-05 -3.45421 -0 -6.39263e-05 -0 -5.09264e-07)
(6.30957e-05 -3.44688 -0 -6.25883e-05 -0 -5.0739e-07)
(6.17143e-05 -3.43998 -0 -6.12077e-05 -0 -5.06589e-07)
(6.02654e-05 -3.43346 -0 -5.97589e-05 -0 -5.06473e-07)
(5.87013e-05 -3.42734 -0 -5.81939e-05 -0 -5.07367e-07)
(5.69703e-05 -3.42159 -0 -5.64613e-05 -0 -5.09001e-07)
(5.5009e-05 -3.41622 -0 -5.44972e-05 -0 -5.11718e-07)
(5.27739e-05 -3.41122 -0 -5.22586e-05 -0 -5.15263e-07)
(5.01316e-05 -3.40661 -0 -4.96112e-05 -0 -5.20396e-07)
(4.70245e-05 -3.4024 -0 -4.64967e-05 -0 -5.27766e-07)
(4.32976e-05 -3.3986 -0 -4.27567e-05 -0 -5.40852e-07)
(3.8851e-05 -3.39524 -0 -3.82891e-05 -0 -5.61842e-07)
(3.35093e-05 -3.39235 -0 -3.29075e-05 -0 -6.01799e-07)
(2.70683e-05 -3.38997 -0 -2.64102e-05 -0 -6.58096e-07)
(1.92942e-05 -3.38814 -0 -1.85397e-05 -0 -7.54489e-07)
(9.96558e-06 -3.38691 -0 -9.11691e-06 -0 -8.48671e-07)
(-1.18532e-06 -3.38635 -0 2.20378e-06 -0 -1.01846e-06)
(-1.47625e-05 -3.38652 -0 1.58571e-05 -0 -1.0946e-06)
(-3.10116e-05 -3.38753 -0 3.23539e-05 -0 -1.34227e-06)
(-5.03772e-05 -3.38943 -0 5.17652e-05 -0 -1.388e-06)
(-7.36584e-05 -3.39241 -0 7.53186e-05 -0 -1.6602e-06)
(-0.000101576 -3.39651 -0 0.000103231 -0 -1.65516e-06)
(-0.000134726 -3.40201 -0 0.000136928 -0 -2.20218e-06)
(-0.000168332 -3.40778 -0 0.00017204 -0 -3.70795e-06)
(-0.000201006 -3.4131 -0 0.000206272 -0 -5.26562e-06)
(-0.000236233 -3.41902 -0 0.0002417 -0 -5.46721e-06)
(-0.000275527 -3.42564 -0 0.000282045 -0 -6.51751e-06)
(-0.000317465 -3.43291 -0 0.000324471 -0 -7.0061e-06)
(-0.000364654 -3.4409 -0 0.000372892 -0 -8.23821e-06)
(-0.000416854 -3.44956 -0 0.000425093 -0 -8.2395e-06)
(-0.000475121 -3.45902 -0 0.000484209 -0 -9.08812e-06)
(-0.000539549 -3.46917 -0 0.000547433 -0 -7.88392e-06)
(-0.00061109 -3.48025 -0 0.00061913 -0 -8.0403e-06)
(-0.000692294 -3.49204 -0 0.000698537 -0 -6.24228e-06)
(-0.000781655 -3.50493 -0 0.000787939 -0 -6.28317e-06)
(-0.000892867 -3.51849 -0 0.000897111 -0 -4.24413e-06)
(-0.00100283 -3.53365 -0 0.00100802 -0 -5.18552e-06)
(-0.00117261 -3.54897 -0 0.00117084 -0 1.77428e-06)
(-0.00130035 -3.56746 -0 0.00130145 -0 -1.09686e-06)
(-0.00158321 -3.58418 -0 0.00155828 -0 2.49312e-05)
(-0.00173599 -3.60812 -0 0.00172333 -0 1.26595e-05)
(-0.00219119 -3.62589 -0 0.00209658 -0 9.46088e-05)
(-0.00251911 -3.65792 -0 0.00249384 -0 2.52739e-05)
(-0.0032495 -3.67921 -0 0.00291577 -0 0.000333731)
(-0.00383439 -3.72247 -0 0.00400651 -0 -0.000172124)
(-0.00797486 -3.74601 -0 0.00612274 -0 0.00185212)
(-0.00106408 -3.85317 -0 0.00536552 -0 -0.00430143)
(-0.0742324 -3.72755 -7.39949e-21 0.0741148 -0 0.000117642)
(0.0032326 -12.1352 -0 -0.00568028 -0 0.00244768)
(0.00261289 -7.80224 -0 -0.00259728 -0 -1.56153e-05)
(0.00219729 -6.9415 -0 -0.0021948 -0 -2.49742e-06)
(0.00172986 -6.35289 -0 -0.00173394 -0 4.08361e-06)
(0.00127188 -5.99259 -0 -0.00128363 -0 1.17502e-05)
(0.00104761 -5.6877 -0 -0.00105457 -0 6.95726e-06)
(0.00085323 -5.45958 -0 -0.000860709 -0 7.47918e-06)
(0.000739938 -5.26484 -0 -0.00074561 -0 5.67187e-06)
(0.000643243 -5.10353 -0 -0.000648528 -0 5.28465e-06)
(0.000573497 -4.96413 -0 -0.000578051 -0 4.55434e-06)
(0.000516148 -4.84377 -0 -0.000520285 -0 4.13699e-06)
(0.000470123 -4.73764 -0 -0.000473861 -0 3.73805e-06)
(0.000430882 -4.64414 -0 -0.000434302 -0 3.42028e-06)
(0.000398638 -4.5607 -0 -0.000401788 -0 3.14997e-06)
(0.00037025 -4.4859 -0 -0.000373169 -0 2.91932e-06)
(0.000345821 -4.4187 -0 -0.000348537 -0 2.71554e-06)
(0.000325015 -4.3578 -0 -0.000327561 -0 2.54615e-06)
(0.000306115 -4.30246 -0 -0.000308506 -0 2.39103e-06)
(0.000289422 -4.25213 -0 -0.000291678 -0 2.25596e-06)
(0.000274826 -4.20604 -0 -0.000276961 -0 2.1356e-06)
(0.000261705 -4.16378 -0 -0.000263736 -0 2.03039e-06)
(0.000249812 -4.12488 -0 -0.000251745 -0 1.93337e-06)
(0.000238985 -4.08906 -0 -0.000240832 -0 1.84627e-06)
(0.000229334 -4.05594 -0 -0.000231101 -0 1.76732e-06)
(0.000220572 -4.02526 -0 -0.000222268 -0 1.6966e-06)
(0.000212471 -3.99678 -0 -0.000214102 -0 1.63073e-06)
(0.00020511 -3.97031 -0 -0.00020668 -0 1.57027e-06)
(0.000198371 -3.94564 -0 -0.000199886 -0 1.51479e-06)
(0.000192104 -3.92263 -0 -0.000193567 -0 1.46275e-06)
(0.000186371 -3.90112 -0 -0.000187785 -0 1.41423e-06)
(0.000181098 -3.881 -0 -0.000182467 -0 1.36905e-06)
(0.000176186 -3.86213 -0 -0.000177512 -0 1.32622e-06)
(0.000171596 -3.84444 -0 -0.000172881 -0 1.28491e-06)
(0.000167304 -3.82781 -0 -0.000168549 -0 1.24496e-06)
(0.000163336 -3.81218 -0 -0.000164542 -0 1.20597e-06)
(0.000159605 -3.79746 -0 -0.000160773 -0 1.16791e-06)
(0.000156063 -3.78359 -0 -0.000157193 -0 1.12996e-06)
(0.00015269 -3.77052 -0 -0.000153782 -0 1.09188e-06)
(0.000149469 -3.75818 -0 -0.000150522 -0 1.05353e-06)
(0.000146349 -3.74654 -0 -0.000147363 -0 1.01468e-06)
(0.000143272 -3.73555 -0 -0.000144247 -0 9.74445e-07)
(0.000140194 -3.72517 -0 -0.000141127 -0 9.32722e-07)
(0.000137038 -3.71538 -0 -0.000137927 -0 8.88382e-07)
(0.000133745 -3.70614 -0 -0.000134586 -0 8.40812e-07)
(0.000130213 -3.69746 -0 -0.000131001 -0 7.8853e-07)
(0.000126329 -3.68929 -0 -0.00012706 -0 7.31102e-07)
(0.00012195 -3.68165 -0 -0.000122615 -0 6.64866e-07)
(0.000116985 -3.67452 -0 -0.000117574 -0 5.8928e-07)
(0.000111145 -3.66791 -0 -0.000111645 -0 5.00099e-07)
(0.000104304 -3.66184 -0 -0.000104698 -0 3.94894e-07)
(9.61235e-05 -3.65632 -0 -9.63885e-05 -0 2.65061e-07)
(8.63828e-05 -3.65137 -0 -8.64833e-05 -0 1.0046e-07)
(7.47136e-05 -3.64703 -0 -7.45983e-05 -0 -1.15331e-07)
(6.06756e-05 -3.64335 -0 -6.02827e-05 -0 -3.92939e-07)
(4.37753e-05 -3.64037 -0 -4.29983e-05 -0 -7.77038e-07)
(2.35259e-05 -3.63815 -0 -2.2328e-05 -0 -1.19793e-06)
(-6.61325e-07 -3.63675 -0 2.48649e-06 -0 -1.82517e-06)
(-2.99178e-05 -3.63626 -0 3.22472e-05 -0 -2.32946e-06)
(-6.50671e-05 -3.6368 -0 6.82523e-05 -0 -3.18517e-06)
(-0.000107161 -3.6384 -0 0.000110937 -0 -3.77606e-06)
(-0.000157279 -3.64129 -0 0.000162177 -0 -4.89779e-06)
(-0.000217649 -3.64553 -0 0.000223122 -0 -5.47294e-06)
(-0.000289623 -3.65145 -0 0.000296511 -0 -6.88844e-06)
(-0.000361893 -3.65785 -0 0.000372008 -0 -1.01153e-05)
(-0.000430715 -3.6638 -0 0.00044458 -0 -1.3865e-05)
(-0.000504981 -3.67042 -0 0.000520143 -0 -1.5162e-05)
(-0.000588861 -3.67778 -0 0.000606652 -0 -1.7791e-05)
(-0.000678803 -3.68592 -0 0.000698144 -0 -1.93405e-05)
(-0.000779055 -3.69485 -0 0.000801571 -0 -2.25158e-05)
(-0.000890264 -3.70456 -0 0.000913613 -0 -2.3349e-05)
(-0.00101405 -3.71511 -0 0.00104015 -0 -2.61053e-05)
(-0.00115191 -3.72645 -0 0.00117698 -0 -2.50717e-05)
(-0.00130444 -3.73874 -0 0.00133134 -0 -2.69043e-05)
(-0.0014786 -3.75188 -0 0.00150416 -0 -2.5559e-05)
(-0.00166637 -3.76605 -0 0.00169407 -0 -2.7698e-05)
(-0.00190361 -3.78109 -0 0.00193085 -0 -2.72421e-05)
(-0.00212637 -3.79749 -0 0.00215832 -0 -3.19494e-05)
(-0.00248291 -3.81419 -0 0.0025086 -0 -2.56902e-05)
(-0.00272994 -3.83355 -0 0.00276517 -0 -3.52309e-05)
(-0.00330875 -3.85093 -0 0.00331019 -0 -1.43882e-06)
(-0.00360626 -3.87513 -0 0.00363324 -0 -2.698e-05)
(-0.00448194 -3.89182 -0 0.0043951 -0 8.68414e-05)
(-0.00516034 -3.92268 -0 0.00517573 -0 -1.53954e-05)
(-0.00635816 -3.94158 -0 0.00599105 -0 0.000367107)
(-0.00755083 -3.976 -0 0.00772989 -0 -0.000179062)
(-0.0144462 -4.00045 -0 0.0126809 -0 0.00176532)
(-0.00198601 -4.0205 -0 0.00562317 -0 -0.00363716)
(-0.0793495 -3.96601 -0 0.0734382 -0 0.00591131)
(-0.0200976 -11.913 -0 0.0194834 -0 0.000614148)
(0.000770546 -7.80001 -0 -0.000735924 -0 -3.46219e-05)
(0.00315722 -6.90445 -0 -0.00313989 -0 -1.73345e-05)
(0.00313828 -6.3856 -0 -0.00312126 -0 -1.70207e-05)
(0.00245115 -6.07405 -0 -0.00245377 -0 2.62729e-06)
(0.00208729 -5.81329 -0 -0.00208701 -0 -2.84048e-07)
(0.0017242 -5.61485 -0 -0.00172769 -0 3.49131e-06)
(0.00151032 -5.44506 -0 -0.00151263 -0 2.31482e-06)
(0.00132102 -5.30287 -0 -0.00132401 -0 2.9881e-06)
(0.00118326 -5.17943 -0 -0.00118596 -0 2.69712e-06)
(0.0010686 -5.07215 -0 -0.00107133 -0 2.72955e-06)
(0.000976001 -4.97708 -0 -0.000978628 -0 2.62708e-06)
(0.000896571 -4.89295 -0 -0.000899127 -0 2.55627e-06)
(0.000831004 -4.81753 -0 -0.000833481 -0 2.47689e-06)
(0.000773083 -4.74966 -0 -0.000775484 -0 2.40194e-06)
(0.000723052 -4.68847 -0 -0.000725375 -0 2.32268e-06)
(0.000680332 -4.63281 -0 -0.000682589 -0 2.2573e-06)
(0.000641457 -4.58208 -0 -0.000643643 -0 2.18661e-06)
(0.000607024 -4.5358 -0 -0.000609147 -0 2.12289e-06)
(0.00057686 -4.49331 -0 -0.000578921 -0 2.06107e-06)
(0.000549713 -4.45424 -0 -0.000551719 -0 2.00644e-06)
(0.000525069 -4.4182 -0 -0.00052702 -0 1.95091e-06)
(0.000502604 -4.38493 -0 -0.000504504 -0 1.90006e-06)
(0.000482543 -4.3541 -0 -0.000484394 -0 1.85076e-06)
(0.000464322 -4.32548 -0 -0.000466128 -0 1.80626e-06)
(0.000447463 -4.29886 -0 -0.000449225 -0 1.76172e-06)
(0.000432123 -4.27408 -0 -0.000433843 -0 1.72022e-06)
(0.000418071 -4.25094 -0 -0.000419751 -0 1.68021e-06)
(0.000404996 -4.22933 -0 -0.000406638 -0 1.64172e-06)
(0.000393021 -4.2091 -0 -0.000394625 -0 1.6041e-06)
(0.000382003 -4.19014 -0 -0.000383572 -0 1.56843e-06)
(0.000371738 -4.17234 -0 -0.000373271 -0 1.5328e-06)
(0.000362143 -4.15562 -0 -0.00036364 -0 1.49734e-06)
(0.000353163 -4.1399 -0 -0.000354625 -0 1.46151e-06)
(0.000344856 -4.1251 -0 -0.000346282 -0 1.42549e-06)
(0.000337047 -4.11114 -0 -0.000338436 -0 1.38895e-06)
(0.000329632 -4.09798 -0 -0.000330984 -0 1.35131e-06)
(0.000322569 -4.08556 -0 -0.000323882 -0 1.31248e-06)
(0.000315819 -4.07383 -0 -0.000317092 -0 1.27254e-06)
(0.00030928 -4.06274 -0 -0.000310512 -0 1.23129e-06)
(0.000302831 -4.05226 -0 -0.000304019 -0 1.18781e-06)
(0.000296375 -4.04235 -0 -0.000297518 -0 1.14237e-06)
(0.000289754 -4.03299 -0 -0.000290847 -0 1.09341e-06)
(0.000282836 -4.02415 -0 -0.000283878 -0 1.04115e-06)
(0.000275414 -4.01582 -0 -0.000276397 -0 9.83252e-07)
(0.000267249 -4.00797 -0 -0.000268169 -0 9.19541e-07)
(0.000258036 -4.0006 -0 -0.000258882 -0 8.46637e-07)
(0.000247578 -3.9937 -0 -0.000248342 -0 7.64199e-07)
(0.000235284 -3.98728 -0 -0.00023595 -0 6.66538e-07)
(0.000220865 -3.98134 -0 -0.000221417 -0 5.51226e-07)
(0.000203623 -3.97588 -0 -0.000204028 -0 4.05153e-07)
(0.000183077 -3.97095 -0 -0.000183293 -0 2.16729e-07)
(0.000158462 -3.96654 -0 -0.000158419 -0 -4.33922e-08)
(0.00012888 -3.96271 -0 -0.000128498 -0 -3.82094e-07)
(9.33095e-05 -3.95949 -0 -9.24443e-05 -0 -8.65225e-07)
(5.07006e-05 -3.95693 -0 -4.93278e-05 -0 -1.37279e-06)
(-2.49845e-07 -3.95505 -0 2.39659e-06 -0 -2.14675e-06)
(-6.1635e-05 -3.95394 -0 6.43859e-05 -0 -2.75082e-06)
(-0.000135188 -3.95371 -0 0.000138967 -0 -3.77885e-06)
(-0.000224264 -3.95436 -0 0.000228585 -0 -4.32112e-06)
(-0.000329344 -3.95601 -0 0.000335083 -0 -5.73929e-06)
(-0.000456154 -3.9588 -0 0.000462471 -0 -6.31699e-06)
(-0.000608203 -3.96294 -0 0.000616449 -0 -8.24609e-06)
(-0.000759275 -3.96757 -0 0.000772126 -0 -1.28507e-05)
(-0.000900139 -3.97197 -0 0.000917864 -0 -1.77248e-05)
(-0.0010526 -3.97693 -0 0.00107163 -0 -1.90332e-05)
(-0.0012255 -3.98237 -0 0.00124771 -0 -2.22043e-05)
(-0.001413 -3.98845 -0 0.00143712 -0 -2.41288e-05)
(-0.00161948 -3.99508 -0 0.00164763 -0 -2.815e-05)
(-0.00185043 -4.00234 -0 0.00187927 -0 -2.8845e-05)
(-0.00210452 -4.01017 -0 0.00213645 -0 -3.19305e-05)
(-0.00239186 -4.01862 -0 0.00242176 -0 -2.98998e-05)
(-0.00270426 -4.02763 -0 0.00273577 -0 -3.15075e-05)
(-0.00306772 -4.03737 -0 0.0030968 -0 -2.90757e-05)
(-0.00344528 -4.04758 -0 0.00347651 -0 -3.12316e-05)
(-0.00393748 -4.05871 -0 0.00396686 -0 -2.93814e-05)
(-0.00437058 -4.07025 -0 0.00440558 -0 -3.5005e-05)
(-0.00509906 -4.08254 -0 0.0051218 -0 -2.27431e-05)
(-0.0055668 -4.09573 -0 0.00560101 -0 -3.42068e-05)
(-0.00671301 -4.1082 -0 0.00669199 -0 2.10161e-05)
(-0.00729577 -4.12433 -0 0.00730726 -0 -1.14915e-05)
(-0.00893278 -4.13521 -0 0.00876886 -0 0.000163917)
(-0.0103332 -4.15575 -0 0.0103298 -0 3.39752e-06)
(-0.0121862 -4.16557 -0 0.0115333 -0 0.00065292)
(-0.015343 -4.18971 -0 0.0158322 -0 -0.000489266)
(-0.0248121 -4.19455 -0 0.0213867 -0 0.00342538)
(-0.0083748 -4.19906 -0 0.0157198 -0 -0.007345)
(-0.117355 -4.05506 -0 0.113408 -0 0.00394622)
(-0.0665017 -11.6798 -0 0.0660236 -0 0.000478137)
(-0.00593425 -7.7694 -0 0.00596138 -0 -2.71303e-05)
(0.00308336 -6.78885 -0 -0.00306987 -0 -1.34834e-05)
(0.00457788 -6.23719 -0 -0.00453977 -0 -3.81112e-05)
(0.0038674 -5.9207 -0 -0.00385442 -0 -1.29887e-05)
(0.00344047 -5.66821 -0 -0.00342458 -0 -1.58956e-05)
(0.00289329 -5.47628 -0 -0.00288501 -0 -8.28544e-06)
(0.00256512 -5.31339 -0 -0.00255632 -0 -8.8e-06)
(0.00225977 -5.17683 -0 -0.002253 -0 -6.76901e-06)
(0.00203436 -5.05841 -0 -0.00202799 -0 -6.37581e-06)
(0.00184394 -4.95542 -0 -0.00183832 -0 -5.62314e-06)
(0.00168886 -4.86414 -0 -0.00168367 -0 -5.18879e-06)
(0.00155496 -4.78339 -0 -0.00155021 -0 -4.75057e-06)
(0.0014438 -4.71097 -0 -0.0014394 -0 -4.40764e-06)
(0.00134527 -4.64582 -0 -0.00134118 -0 -4.092e-06)
(0.00125985 -4.5871 -0 -0.00125603 -0 -3.82458e-06)
(0.00118671 -4.53367 -0 -0.00118312 -0 -3.58547e-06)
(0.00112004 -4.48501 -0 -0.00111667 -0 -3.373e-06)
(0.00106085 -4.44063 -0 -0.00105767 -0 -3.17898e-06)
(0.00100889 -4.39987 -0 -0.00100588 -0 -3.01226e-06)
(0.000962077 -4.36241 -0 -0.000959221 -0 -2.8563e-06)
(0.000919533 -4.32786 -0 -0.000916814 -0 -2.71882e-06)
(0.000880704 -4.29598 -0 -0.000878113 -0 -2.59015e-06)
(0.000845973 -4.26645 -0 -0.000843495 -0 -2.47822e-06)
(0.000814411 -4.23903 -0 -0.000812036 -0 -2.37427e-06)
(0.000785194 -4.21354 -0 -0.000782913 -0 -2.28063e-06)
(0.000758574 -4.18982 -0 -0.000756379 -0 -2.19501e-06)
(0.000734176 -4.16767 -0 -0.000732058 -0 -2.1184e-06)
(0.000711469 -4.14698 -0 -0.000709422 -0 -2.04736e-06)
(0.000690649 -4.12763 -0 -0.000688665 -0 -1.98476e-06)
(0.000671484 -4.10949 -0 -0.000669556 -0 -1.92783e-06)
(0.000653626 -4.09246 -0 -0.000651748 -0 -1.87766e-06)
(0.000636928 -4.07647 -0 -0.000635095 -0 -1.83301e-06)
(0.000621292 -4.06144 -0 -0.000619498 -0 -1.79452e-06)
(0.000606815 -4.04729 -0 -0.000605052 -0 -1.76253e-06)
(0.000593206 -4.03394 -0 -0.000591469 -0 -1.73619e-06)
(0.000580283 -4.02137 -0 -0.000578568 -0 -1.71492e-06)
(0.000567969 -4.00949 -0 -0.00056627 -0 -1.69862e-06)
(0.000556193 -3.99828 -0 -0.000554507 -0 -1.68674e-06)
(0.000544783 -3.98768 -0 -0.000543105 -0 -1.67872e-06)
(0.000533528 -3.97766 -0 -0.000531854 -0 -1.67447e-06)
(0.000522255 -3.96819 -0 -0.000520582 -0 -1.67268e-06)
(0.00051069 -3.95924 -0 -0.000509016 -0 -1.67389e-06)
(0.0004986 -3.95078 -0 -0.000496924 -0 -1.67643e-06)
(0.000485623 -3.94279 -0 -0.000483941 -0 -1.68148e-06)
(0.000471348 -3.93526 -0 -0.000469661 -0 -1.68681e-06)
(0.00045523 -3.92817 -0 -0.000453536 -0 -1.69398e-06)
(0.000436918 -3.92152 -0 -0.000435217 -0 -1.70153e-06)
(0.000415404 -3.91531 -0 -0.000413692 -0 -1.71148e-06)
(0.000390157 -3.90953 -0 -0.000388433 -0 -1.72413e-06)
(0.000359967 -3.90419 -0 -0.000358215 -0 -1.75199e-06)
(0.000323973 -3.89931 -0 -0.000322165 -0 -1.80782e-06)
(0.000280849 -3.89489 -0 -0.000278922 -0 -1.92686e-06)
(0.000229041 -3.89098 -0 -0.000226927 -0 -2.11486e-06)
(0.000166786 -3.88758 -0 -0.000164334 -0 -2.45205e-06)
(9.22326e-05 -3.88475 -0 -8.94729e-05 -0 -2.75975e-06)
(2.98936e-06 -3.88249 -0 3.7081e-07 -0 -3.36017e-06)
(-0.000104419 -3.88088 -0 0.000108011 -0 -3.59226e-06)
(-0.000232374 -3.87997 -0 0.000236779 -0 -4.40544e-06)
(-0.000388142 -3.87982 -0 0.00039239 -0 -4.24717e-06)
(-0.000571835 -3.88047 -0 0.000576961 -0 -5.12615e-06)
(-0.000792897 -3.88198 -0 0.000797594 -0 -4.69752e-06)
(-0.00105819 -3.88459 -0 0.0010642 -0 -6.00827e-06)
(-0.00132127 -3.8877 -0 0.00133281 -0 -1.15397e-05)
(-0.001565 -3.89074 -0 0.00158247 -0 -1.74724e-05)
(-0.00182699 -3.89427 -0 0.00184501 -0 -1.80275e-05)
(-0.00212405 -3.89812 -0 0.00214511 -0 -2.10616e-05)
(-0.00244835 -3.90248 -0 0.00247053 -0 -2.21762e-05)
(-0.00280339 -3.9072 -0 0.00282951 -0 -2.61169e-05)
(-0.00320182 -3.91245 -0 0.00322693 -0 -2.5109e-05)
(-0.00363642 -3.91807 -0 0.00366366 -0 -2.72346e-05)
(-0.00413206 -3.92419 -0 0.0041537 -0 -2.16325e-05)
(-0.00466309 -3.93057 -0 0.00468424 -0 -2.11442e-05)
(-0.00529094 -3.93765 -0 0.0053052 -0 -1.42601e-05)
(-0.00592296 -3.94469 -0 0.00593729 -0 -1.43239e-05)
(-0.00676998 -3.95286 -0 0.00677718 -0 -7.20869e-06)
(-0.00748056 -3.96056 -0 0.00749308 -0 -1.25213e-05)
(-0.00871792 -3.96971 -0 0.00870606 -0 1.1862e-05)
(-0.00947916 -3.97817 -0 0.00948027 -0 -1.11228e-06)
(-0.0113709 -3.98744 -0 0.0112835 -0 8.73988e-05)
(-0.0123324 -3.99785 -0 0.0122862 -0 4.62013e-05)
(-0.0149664 -4.00475 -0 0.0146579 -0 0.000308526)
(-0.0171334 -4.02013 -0 0.017038 -0 9.54396e-05)
(-0.0202797 -4.02073 -0 0.0192612 -0 0.00101851)