/*--------------------------------*- C++ -*----------------------------------*\
| =========                 |                                                 |
| \\      /  F ield         | OpenFOAM: The Open Source CFD Toolbox           |
|  \\    /   O peration     | Version:  2306                                  |
|   \\  /    A nd           | Website:  www.openfoam.com                      |
|    \\/     M anipulation  |                                                 |
\*---------------------------------------------------------------------------*/
FoamFile
{
    version     2.0;
    format      ascii;
    arch        "LSB;label=32;scalar=64";
    class       volVectorField;
    location    "1800";
    object      U;
}
// * * * * * * * * * * * * * * * * * * * * * * * * * * * * * * * * * * * * * //

dimensions      [0 1 -1 0 0 0 0];

internalField   nonuniform List<vector> 
20540
(
(27.9582 0.00114912 0)
(27.0591 0.00204152 0)
(27.9763 0.00368639 0)
(27.0772 0.00531681 0)
(28 0.00675206 0)
(27.1009 0.00607811 0)
(28.0307 0.0104547 0)
(27.1316 0.00504928 0)
(28.0699 0.0149247 0)
(27.1709 0.00316229 0)
(28.1196 0.020318 0)
(27.2207 0.000550646 0)
(28.1818 0.0268209 0)
(27.2831 -0.00297824 0)
(28.259 0.0346552 0)
(27.3608 -0.00764032 0)
(28.3544 0.0440836 0)
(27.4568 -0.013657 0)
(28.4715 0.0554167 0)
(27.5749 -0.0212945 0)
(28.6147 0.0690184 0)
(27.7197 -0.0308811 0)
(28.789 0.0853129 0)
(27.8965 -0.0428111 0)
(29.0005 0.104789 0)
(28.1116 -0.0575477 0)
(29.2562 0.128003 0)
(28.3727 -0.0756268 0)
(29.5642 0.155579 0)
(28.6888 -0.0976571 0)
(29.9341 0.188195 0)
(29.0706 -0.124313 0)
(30.3767 0.226571 0)
(29.5303 -0.15632 0)
(30.9043 0.271423 0)
(30.0825 -0.194414 0)
(31.5305 0.323403 0)
(30.7438 -0.239291 0)
(32.2704 0.382994 0)
(31.5329 -0.291505 0)
(33.1401 0.450347 0)
(32.4708 -0.351321 0)
(34.1562 0.52504 0)
(33.5803 -0.418507 0)
(35.3354 0.605725 0)
(34.8852 -0.492023 0)
(36.6938 0.689625 0)
(36.4093 -0.569609 0)
(38.2455 0.771834 0)
(38.174 -0.647228 0)
(40.0016 0.84434 0)
(40.1953 -0.718347 0)
(41.9699 0.89478 0)
(42.4786 -0.772891 0)
(44.1538 0.905264 0)
(45.0106 -0.795569 0)
(46.5545 0.852348 0)
(47.7448 -0.763399 0)
(49.1653 0.705709 0)
(50.5638 -0.644327 0)
(51.5305 0.45724 0)
(52.8668 -0.424033 0)
(53.0577 0.129895 0)
(54.157 -0.131965 0)
(52.9535 -0.249068 0)
(54.0731 0.193557 0)
(51.2959 -0.566347 0)
(52.6441 0.480327 0)
(48.8959 -0.801035 0)
(50.2764 0.690066 0)
(46.3156 -0.935587 0)
(47.4739 0.801882 0)
(43.9367 -0.981093 0)
(44.7563 0.832183 0)
(41.7621 -0.965699 0)
(42.232 0.810087 0)
(39.7913 -0.911545 0)
(39.9455 0.756746 0)
(38.0219 -0.835666 0)
(37.91 0.686495 0)
(36.4481 -0.749974 0)
(36.1217 0.609005 0)
(35.0605 -0.662312 0)
(34.567 0.530716 0)
(33.8471 -0.577594 0)
(33.2266 0.455734 0)
(32.7936 -0.49868 0)
(32.0788 0.386474 0)
(31.885 -0.42703 0)
(31.1015 0.324151 0)
(31.1059 -0.363179 0)
(30.2731 0.269172 0)
(30.4412 -0.30707 0)
(29.5739 0.221416 0)
(29.8768 -0.258293 0)
(28.9857 0.180447 0)
(29.3996 -0.216246 0)
(28.4923 0.145658 0)
(28.9976 -0.180242 0)
(28.0795 0.11637 0)
(28.66 -0.149578 0)
(27.7351 0.0918971 0)
(28.3776 -0.123573 0)
(27.4484 0.0715843 0)
(28.1421 -0.101598 0)
(27.2103 0.054829 0)
(27.9462 -0.0830799 0)
(27.0131 0.0410917 0)
(27.7839 -0.0675121 0)
(26.8502 0.029899 0)
(27.6499 -0.0544494 0)
(26.716 0.0208414 0)
(27.5397 -0.0435062 0)
(26.6059 0.0135704 0)
(27.4494 -0.0343505 0)
(26.5159 0.00779475 0)
(27.3759 -0.0266985 0)
(26.4428 0.00327784 0)
(27.3165 -0.020309 0)
(26.3836 -0.000178193 0)
(27.2687 -0.0149776 0)
(26.3362 -0.00276828 0)
(27.2308 -0.0105319 0)
(26.2986 -0.00466431 0)
(27.2009 -0.00682648 0)
(26.269 -0.00572411 0)
(27.1778 -0.00373941 0)
(26.2461 -0.00505311 0)
(27.1602 -0.0011684 0)
(26.2286 -0.00194998 0)
(9.22844 0.000257395 0)
(6.2586 0.000344636 0)
(5.60997 4.4921e-05 0)
(5.15484 8.74832e-06 0)
(4.89286 4.99882e-06 0)
(4.66746 1.83366e-06 0)
(4.50392 1.81651e-06 0)
(4.36249 1.17709e-06 0)
(4.24646 1.13244e-06 0)
(4.14566 9.68455e-07 0)
(4.0587 9.10833e-07 0)
(3.98184 8.51356e-07 0)
(3.91401 8.07411e-07 0)
(3.85338 7.75341e-07 0)
(3.79891 7.42885e-07 0)
(3.74988 7.1959e-07 0)
(3.70537 6.97759e-07 0)
(3.66484 6.76864e-07 0)
(3.62792 6.5906e-07 0)
(3.59405 6.44642e-07 0)
(3.56295 6.29179e-07 0)
(3.53428 6.15293e-07 0)
(3.50783 6.01963e-07 0)
(3.48334 5.91152e-07 0)
(3.46062 5.79708e-07 0)
(3.43951 5.6883e-07 0)
(3.41986 5.58661e-07 0)
(3.40152 5.48735e-07 0)
(3.3844 5.38818e-07 0)
(3.36838 5.29511e-07 0)
(3.35337 5.20475e-07 0)
(3.33929 5.10929e-07 0)
(3.32607 5.01446e-07 0)
(3.31363 4.91477e-07 0)
(3.30193 4.81273e-07 0)
(3.2909 4.69897e-07 0)
(3.28051 4.58002e-07 0)
(3.2707 4.45041e-07 0)
(3.26145 4.31338e-07 0)
(3.25271 4.16363e-07 0)
(3.24446 4.00117e-07 0)
(3.23667 3.82207e-07 0)
(3.22933 3.62612e-07 0)
(3.22241 3.40217e-07 0)
(3.21592 3.14723e-07 0)
(3.20983 2.86336e-07 0)
(3.20416 2.51882e-07 0)
(3.19891 2.1109e-07 0)
(3.19408 1.61547e-07 0)
(3.1897 1.03298e-07 0)
(3.18579 3.23766e-08 0)
(3.18238 -6.05405e-08 0)
(3.1795 -1.74072e-07 0)
(3.17721 -3.42807e-07 0)
(3.17556 -5.52018e-07 0)
(3.17462 -8.38809e-07 0)
(3.17445 -1.1865e-06 0)
(3.17514 -1.5731e-06 0)
(3.17684 -2.05877e-06 0)
(3.1796 -2.42186e-06 0)
(3.18367 -3.08669e-06 0)
(3.18909 -3.3509e-06 0)
(3.1962 -3.78461e-06 0)
(3.20355 -6.31619e-06 0)
(3.21021 -8.91311e-06 0)
(3.21765 -1.03758e-05 0)
(3.22603 -1.19988e-05 0)
(3.23522 -1.33016e-05 0)
(3.2453 -1.50094e-05 0)
(3.25625 -1.64784e-05 0)
(3.26824 -1.79708e-05 0)
(3.28117 -1.81182e-05 0)
(3.29532 -1.91865e-05 0)
(3.31042 -1.8951e-05 0)
(3.32698 -2.07079e-05 0)
(3.34448 -2.20317e-05 0)
(3.36405 -2.63003e-05 0)
(3.3841 -2.6722e-05 0)
(3.40832 -3.40977e-05 0)
(3.43096 -2.47082e-05 0)
(3.46345 -3.464e-05 0)
(3.48885 -5.71776e-06 0)
(3.53548 -1.09196e-05 0)
(3.56678 -3.38728e-05 0)
(3.63937 0.000282168 0)
(3.67407 -0.00123412 0)
(3.89479 0.0038639 0)
(3.6184 0.00200846 0)
(22.9257 0.00452543 0)
(18.7858 0.00195822 0)
(17.1491 0.000757661 0)
(15.9043 0.000465103 0)
(15.1604 0.000332145 0)
(14.5155 0.00026503 0)
(14.0398 0.000217791 0)
(13.627 0.000188326 0)
(13.2854 0.00016483 0)
(12.9877 0.00014744 0)
(12.7296 0.000133332 0)
(12.5007 0.000121929 0)
(12.2982 0.000112171 0)
(12.1166 0.000104147 0)
(11.9531 9.7033e-05 0)
(11.8057 9.08978e-05 0)
(11.6716 8.56615e-05 0)
(11.5493 8.08744e-05 0)
(11.4378 7.66367e-05 0)
(11.3353 7.29257e-05 0)
(11.2411 6.95781e-05 0)
(11.1541 6.65319e-05 0)
(11.0738 6.37545e-05 0)
(10.9995 6.1273e-05 0)
(10.9304 5.90175e-05 0)
(10.8661 5.69218e-05 0)
(10.8063 5.50194e-05 0)
(10.7504 5.32704e-05 0)
(10.6982 5.16428e-05 0)
(10.6493 5.01494e-05 0)
(10.6035 4.87763e-05 0)
(10.5605 4.74905e-05 0)
(10.5201 4.62883e-05 0)
(10.4821 4.51594e-05 0)
(10.4463 4.41158e-05 0)
(10.4126 4.31291e-05 0)
(10.3808 4.21891e-05 0)
(10.3507 4.129e-05 0)
(10.3224 4.04284e-05 0)
(10.2956 3.9589e-05 0)
(10.2703 3.87564e-05 0)
(10.2464 3.79184e-05 0)
(10.2239 3.70523e-05 0)
(10.2027 3.61435e-05 0)
(10.1827 3.516e-05 0)
(10.164 3.40696e-05 0)
(10.1465 3.28337e-05 0)
(10.1303 3.14245e-05 0)
(10.1154 2.9755e-05 0)
(10.1018 2.77888e-05 0)
(10.0896 2.5419e-05 0)
(10.0788 2.25816e-05 0)
(10.0697 1.91357e-05 0)
(10.0622 1.49488e-05 0)
(10.0567 9.84942e-06 0)
(10.0532 3.72506e-06 0)
(10.0519 -3.6415e-06 0)
(10.0532 -1.25245e-05 0)
(10.0574 -2.32814e-05 0)
(10.0647 -3.56572e-05 0)
(10.0757 -5.11098e-05 0)
(10.0906 -6.89535e-05 0)
(10.1103 -9.14965e-05 0)
(10.1308 -0.000117335 0)
(10.1496 -0.000141977 0)
(10.1707 -0.000165976 0)
(10.1943 -0.000193809 0)
(10.2202 -0.000222989 0)
(10.2487 -0.000256545 0)
(10.2796 -0.000292371 0)
(10.3134 -0.00033242 0)
(10.3498 -0.000373777 0)
(10.3895 -0.000421221 0)
(10.4319 -0.000472281 0)
(10.4783 -0.000532614 0)
(10.5273 -0.000603941 0)
(10.5822 -0.000683046 0)
(10.6384 -0.000784657 0)
(10.7063 -0.000884236 0)
(10.7693 -0.00102486 0)
(10.8595 -0.00116201 0)
(10.9289 -0.00131884 0)
(11.0557 -0.0017106 0)
(11.1391 -0.00160875 0)
(11.3329 -0.0033506 0)
(11.4137 -0.0020652 0)
(12.0132 -0.00995909 0)
(11.2316 -0.0972104 0)
(28.2851 0.00749806 0)
(26.8163 0.00339067 0)
(25.4601 0.00185497 0)
(24.0664 0.0013191 0)
(23.1834 0.000978968 0)
(22.3898 0.0008052 0)
(21.7946 0.000668839 0)
(21.2719 0.000585724 0)
(20.8356 0.00051648 0)
(20.4525 0.000465424 0)
(20.1185 0.00042337 0)
(19.8208 0.000389228 0)
(19.556 0.000359784 0)
(19.3176 0.000335447 0)
(19.1022 0.000313753 0)
(18.9073 0.000294934 0)
(18.7294 0.00027883 0)
(18.5667 0.000264026 0)
(18.4179 0.000250867 0)
(18.2808 0.000239307 0)
(18.1545 0.000228847 0)
(18.0377 0.000219297 0)
(17.9296 0.000210554 0)
(17.8292 0.000202731 0)
(17.7359 0.000195597 0)
(17.6489 0.000188959 0)
(17.5678 0.000182909 0)
(17.4919 0.000177346 0)
(17.4209 0.000172148 0)
(17.3544 0.000167376 0)
(17.2919 0.000162976 0)
(17.2332 0.000158856 0)
(17.178 0.000154991 0)
(17.126 0.000151359 0)
(17.077 0.000147993 0)
(17.0308 0.000144812 0)
(16.9872 0.000141774 0)
(16.946 0.000138865 0)
(16.907 0.000136072 0)
(16.8702 0.000133349 0)
(16.8354 0.000130643 0)
(16.8025 0.000127915 0)
(16.7715 0.000125092 0)
(16.7422 0.000122121 0)
(16.7147 0.000118904 0)
(16.6888 0.000115335 0)
(16.6647 0.000111279 0)
(16.6422 0.000106648 0)
(16.6216 0.000101162 0)
(16.6027 9.46997e-05 0)
(16.5857 8.69248e-05 0)
(16.5708 7.76116e-05 0)
(16.5581 6.63595e-05 0)
(16.5477 5.27195e-05 0)
(16.5398 3.61305e-05 0)
(16.5348 1.62726e-05 0)
(16.5329 -7.71344e-06 0)
(16.5345 -3.63228e-05 0)
(16.54 -7.12471e-05 0)
(16.5497 -0.000111609 0)
(16.5645 -0.00016123 0)
(16.5846 -0.000218771 0)
(16.6114 -0.000289356 0)
(16.6393 -0.000366952 0)
(16.6648 -0.000443053 0)
(16.6932 -0.000517538 0)
(16.725 -0.000603973 0)
(16.76 -0.000693016 0)
(16.7983 -0.000796294 0)
(16.8398 -0.000904313 0)
(16.8851 -0.00102835 0)
(16.9338 -0.00115488 0)
(16.987 -0.0013026 0)
(17.0435 -0.00146043 0)
(17.1053 -0.00164437 0)
(17.1703 -0.00186387 0)
(17.243 -0.00209535 0)
(17.3163 -0.00241305 0)
(17.4052 -0.00269049 0)
(17.4857 -0.00315054 0)
(17.6014 -0.00351743 0)
(17.6885 -0.00408114 0)
(17.8445 -0.00501487 0)
(17.9507 -0.00530809 0)
(18.1655 -0.00801468 0)
(18.2881 -0.0103153 0)
(18.855 -0.0141352 0)
(18.2506 -0.13782 0)
(30.5125 0.00681918 0)
(30.8276 0.00392868 0)
(30.1619 0.00285765 0)
(28.9188 0.00230041 0)
(28.0639 0.00177299 0)
(27.2502 0.00149422 0)
(26.6287 0.00125346 0)
(26.0757 0.00110758 0)
(25.6109 0.000982012 0)
(25.2007 0.000889299 0)
(24.8418 0.00081207 0)
(24.5211 0.000749134 0)
(24.2353 0.000694526 0)
(23.9776 0.000649245 0)
(23.7445 0.000608714 0)
(23.5332 0.000573425 0)
(23.3403 0.000543167 0)
(23.1636 0.000515262 0)
(23.0019 0.000490384 0)
(22.8528 0.00046849 0)
(22.7154 0.00044864 0)
(22.5882 0.00043048 0)
(22.4704 0.000413816 0)
(22.3611 0.000398883 0)
(22.2593 0.00038525 0)
(22.1644 0.000372544 0)
(22.0759 0.000360944 0)
(21.993 0.000350268 0)
(21.9155 0.000340278 0)
(21.8428 0.000331099 0)
(21.7746 0.000322625 0)
(21.7104 0.000314688 0)
(21.6501 0.000307233 0)
(21.5932 0.000300224 0)
(21.5396 0.000293722 0)
(21.489 0.000287576 0)
(21.4413 0.000281704 0)
(21.3962 0.000276079 0)
(21.3535 0.000270674 0)
(21.3132 0.0002654 0)
(21.2751 0.000260157 0)
(21.2391 0.000254864 0)
(21.2051 0.000249382 0)
(21.173 0.000243604 0)
(21.1428 0.000237338 0)
(21.1145 0.000230379 0)
(21.088 0.000222456 0)
(21.0634 0.000213397 0)
(21.0407 0.000202659 0)
(21.02 0.000189995 0)
(21.0014 0.000174754 0)
(20.9851 0.000156492 0)
(20.9711 0.000134447 0)
(20.9597 0.000107774 0)
(20.9511 7.54001e-05 0)
(20.9457 3.66725e-05 0)
(20.9436 -1.00497e-05 0)
(20.9454 -6.57822e-05 0)
(20.9514 -0.00013357 0)
(20.9621 -0.000212959 0)
(20.9784 -0.000309365 0)
(21.0005 -0.000422292 0)
(21.0299 -0.000560299 0)
(21.0606 -0.00070718 0)
(21.0886 -0.000848713 0)
(21.1197 -0.00099042 0)
(21.1545 -0.00115452 0)
(21.1927 -0.00132582 0)
(21.2345 -0.00152165 0)
(21.2797 -0.00172911 0)
(21.3292 -0.00196505 0)
(21.3821 -0.00221203 0)
(21.44 -0.00249497 0)
(21.5012 -0.00280432 0)
(21.5685 -0.00315227 0)
(21.6385 -0.00357749 0)
(21.7176 -0.00400096 0)
(21.7958 -0.00461512 0)
(21.8919 -0.00510411 0)
(21.977 -0.00600375 0)
(22.0999 -0.00664428 0)
(22.1921 -0.0077584 0)
(22.3524 -0.00943446 0)
(22.4669 -0.00993339 0)
(22.6729 -0.0150761 0)
(22.821 -0.0178646 0)
(23.3033 -0.023732 0)
(22.8658 -0.19989 0)
(31.7421 0.00453275 0)
(33.0549 0.0035961 0)
(33.0601 0.00358621 0)
(32.0801 0.0033085 0)
(31.3249 0.00266567 0)
(30.5356 0.00230565 0)
(29.9151 0.00195438 0)
(29.3511 0.00174034 0)
(28.8716 0.00154962 0)
(28.4454 0.00140795 0)
(28.0705 0.00128867 0)
(27.7344 0.00119103 0)
(27.4341 0.0011059 0)
(27.1628 0.0010351 0)
(26.917 0.000971557 0)
(26.6939 0.000916099 0)
(26.49 0.000868474 0)
(26.3032 0.000824496 0)
(26.1321 0.000785219 0)
(25.9743 0.000750614 0)
(25.8287 0.000719214 0)
(25.694 0.000690464 0)
(25.5692 0.000664055 0)
(25.4532 0.000640369 0)
(25.3453 0.000618734 0)
(25.2447 0.000598562 0)
(25.1507 0.000580129 0)
(25.0629 0.00056316 0)
(24.9806 0.000547275 0)
(24.9035 0.00053267 0)
(24.831 0.000519182 0)
(24.7629 0.000506549 0)
(24.6989 0.000494681 0)
(24.6385 0.000483518 0)
(24.5816 0.000473158 0)
(24.5279 0.000463368 0)
(24.4772 0.000454016 0)
(24.4293 0.000445055 0)
(24.384 0.000436441 0)
(24.3412 0.000428038 0)
(24.3007 0.000419681 0)
(24.2625 0.000411243 0)
(24.2263 0.0004025 0)
(24.1922 0.000393279 0)
(24.1602 0.000383276 0)
(24.1301 0.000372162 0)
(24.1019 0.0003595 0)
(24.0758 0.000345012 0)
(24.0517 0.000327839 0)
(24.0297 0.000307574 0)
(24.0099 0.000283183 0)
(23.9925 0.00025395 0)
(23.9776 0.00021868 0)
(23.9654 0.000176041 0)
(23.9562 0.000124361 0)
(23.9503 6.25351e-05 0)
(23.948 -1.20138e-05 0)
(23.9497 -0.000100953 0)
(23.956 -0.000208753 0)
(23.9671 -0.000336043 0)
(23.9842 -0.000489654 0)
(24.0074 -0.00067041 0)
(24.0382 -0.00089093 0)
(24.0704 -0.00112245 0)
(24.0999 -0.00134291 0)
(24.1326 -0.00156578 0)
(24.169 -0.0018235 0)
(24.2089 -0.00209514 0)
(24.2527 -0.00240272 0)
(24.3 -0.00273165 0)
(24.3517 -0.00310255 0)
(24.407 -0.00349735 0)
(24.4675 -0.00394319 0)
(24.5312 -0.00443914 0)
(24.6016 -0.00498194 0)
(24.6741 -0.00565996 0)
(24.7566 -0.00630621 0)
(24.8371 -0.00728169 0)
(24.937 -0.00801296 0)
(25.0239 -0.00943723 0)
(25.1501 -0.0103964 0)
(25.2443 -0.012154 0)
(25.4058 -0.014657 0)
(25.5206 -0.0154609 0)
(25.7267 -0.0231021 0)
(25.8691 -0.0269976 0)
(26.3231 -0.0351711 0)
(25.9757 -0.24154 0)
(32.5642 0.00081804 0)
(34.4398 0.00242631 0)
(34.9703 0.00392406 0)
(34.2953 0.00426847 0)
(33.6978 0.0036353 0)
(32.9771 0.00325321 0)
(32.3865 0.00279977 0)
(31.8317 0.00251942 0)
(31.3517 0.00225681 0)
(30.9198 0.00205933 0)
(30.5367 0.00189044 0)
(30.1915 0.00175108 0)
(29.8815 0.00162873 0)
(29.6007 0.00152647 0)
(29.3455 0.00143437 0)
(29.1136 0.00135371 0)
(28.9013 0.00128428 0)
(28.7065 0.00122007 0)
(28.5278 0.0011626 0)
(28.363 0.0011119 0)
(28.2108 0.00106584 0)
(28.0699 0.00102364 0)
(27.9392 0.000984828 0)
(27.8178 0.000949982 0)
(27.7048 0.000918141 0)
(27.5993 0.000888443 0)
(27.5009 0.00086128 0)
(27.4088 0.000836266 0)
(27.3225 0.000812843 0)
(27.2416 0.000791295 0)
(27.1656 0.000771389 0)
(27.0942 0.000752744 0)
(27.027 0.000735226 0)
(26.9636 0.000718745 0)
(26.9039 0.000703441 0)
(26.8476 0.000688983 0)
(26.7943 0.000675173 0)
(26.744 0.00066194 0)
(26.6965 0.000649217 0)
(26.6515 0.000636808 0)
(26.609 0.000624467 0)
(26.5688 0.000612006 0)
(26.5309 0.000599096 0)
(26.4951 0.000585476 0)
(26.4614 0.000570703 0)
(26.4297 0.000554291 0)
(26.4002 0.000535588 0)
(26.3727 0.00051418 0)
(26.3473 0.000488817 0)
(26.3242 0.00045888 0)
(26.3033 0.000422854 0)
(26.2849 0.000379671 0)
(26.2691 0.000327594 0)
(26.2562 0.000264677 0)
(26.2464 0.000188504 0)
(26.24 9.73698e-05 0)
(26.2373 -1.24842e-05 0)
(26.2388 -0.000143579 0)
(26.245 -0.000301918 0)
(26.2563 -0.000489975 0)
(26.2737 -0.000715993 0)
(26.2974 -0.000982776 0)
(26.329 -0.00130782 0)
(26.3621 -0.00164586 0)
(26.3924 -0.00196543 0)
(26.426 -0.00229018 0)
(26.4634 -0.00266494 0)
(26.5044 -0.00306295 0)
(26.5493 -0.00351039 0)
(26.5979 -0.00399233 0)
(26.6509 -0.00453164 0)
(26.7074 -0.00511303 0)
(26.7694 -0.00576127 0)
(26.8345 -0.00649306 0)
(26.9065 -0.00727525 0)
(26.9802 -0.00827103 0)
(27.0646 -0.00918787 0)
(27.146 -0.0106131 0)
(27.2477 -0.0116373 0)
(27.3354 -0.0137035 0)
(27.4626 -0.0150458 0)
(27.5571 -0.0175946 0)
(27.7189 -0.0209968 0)
(27.8288 -0.0223901 0)
(28.0424 -0.0324682 0)
(28.1599 -0.0381764 0)
(28.6119 -0.0496633 0)
(28.3528 -0.271985 0)
(33.1839 -0.00443358 0)
(35.3944 0.00039981 0)
(36.2959 0.00377804 0)
(35.9034 0.0050623 0)
(35.4919 0.00459683 0)
(34.8759 0.00429179 0)
(34.344 0.00377024 0)
(33.8201 0.00344164 0)
(33.3553 0.00310958 0)
(32.9297 0.00285482 0)
(32.5475 0.00263174 0)
(32.1999 0.00244536 0)
(31.8858 0.00227999 0)
(31.5998 0.00214066 0)
(31.339 0.0020145 0)
(31.1011 0.00190348 0)
(30.8828 0.00180755 0)
(30.6822 0.0017186 0)
(30.4978 0.00163879 0)
(30.3276 0.0015682 0)
(30.1701 0.00150399 0)
(30.0242 0.00144508 0)
(29.8888 0.00139084 0)
(29.7629 0.00134206 0)
(29.6456 0.00129746 0)
(29.5362 0.00125584 0)
(29.4339 0.00121773 0)
(29.3382 0.00118262 0)
(29.2486 0.00114973 0)
(29.1644 0.00111945 0)
(29.0854 0.00109146 0)
(29.0111 0.00106525 0)
(28.9412 0.00104061 0)
(28.8752 0.00101743 0)
(28.8131 0.000995884 0)
(28.7544 0.000975531 0)
(28.699 0.000956096 0)
(28.6466 0.000937472 0)
(28.5971 0.000919561 0)
(28.5502 0.000902092 0)
(28.5059 0.000884724 0)
(28.4641 0.000867187 0)
(28.4245 0.000849024 0)
(28.3872 0.000829862 0)
(28.352 0.000809083 0)
(28.319 0.000786008 0)
(28.2882 0.000759719 0)
(28.2595 0.000729619 0)
(28.233 0.000693986 0)
(28.2088 0.000651925 0)
(28.1869 0.000601332 0)
(28.1676 0.000540686 0)
(28.151 0.000467581 0)
(28.1374 0.000379305 0)
(28.1269 0.000272531 0)
(28.1199 0.000144784 0)
(28.1168 -9.13263e-06 0)
(28.118 -0.000192934 0)
(28.1239 -0.000414147 0)
(28.1351 -0.000677825 0)
(28.1525 -0.000994089 0)
(28.1763 -0.00136794 0)
(28.2082 -0.00182306 0)
(28.2417 -0.00229289 0)
(28.2724 -0.002735 0)
(28.3064 -0.00318572 0)
(28.3442 -0.00370439 0)
(28.3857 -0.00425846 0)
(28.4312 -0.00487777 0)
(28.4803 -0.00554847 0)
(28.5339 -0.0062939 0)
(28.591 -0.00710537 0)
(28.6536 -0.00800009 0)
(28.7192 -0.00902236 0)
(28.7919 -0.0100942 0)
(28.8659 -0.0114775 0)
(28.9509 -0.0127202 0)
(29.0325 -0.0146881 0)
(29.1343 -0.0160656 0)
(29.2221 -0.0188962 0)
(29.3484 -0.0206877 0)
(29.4423 -0.0242071 0)
(29.6034 -0.0285071 0)
(29.706 -0.0309722 0)
(29.9282 -0.0431575 0)
(30.0191 -0.0514606 0)
(30.4637 -0.0684998 0)
(30.2954 -0.288733 0)
(33.6889 -0.011421 0)
(36.1105 -0.00254671 0)
(37.265 0.0030931 0)
(37.1028 0.0056015 0)
(36.8735 0.00545923 0)
(36.3818 0.00535567 0)
(35.9314 0.0048249 0)
(35.4591 0.0044863 0)
(35.0265 0.00410075 0)
(34.6203 0.00379646 0)
(34.2492 0.00352058 0)
(33.9077 0.00328571 0)
(33.5958 0.00307392 0)
(33.3099 0.00289344 0)
(33.0477 0.00272861 0)
(32.8073 0.00258254 0)
(32.586 0.0024556 0)
(32.382 0.00233742 0)
(32.194 0.00223099 0)
(32.02 0.00213655 0)
(31.8588 0.00205043 0)
(31.7092 0.00197125 0)
(31.5703 0.00189824 0)
(31.4409 0.00183246 0)
(31.3203 0.00177222 0)
(31.2076 0.00171597 0)
(31.1023 0.00166439 0)
(31.0036 0.00161682 0)
(30.9111 0.00157226 0)
(30.8243 0.00153118 0)
(30.7428 0.00149318 0)
(30.666 0.00145758 0)
(30.5937 0.00142411 0)
(30.5256 0.00139261 0)
(30.4613 0.00136331 0)
(30.4006 0.00133563 0)
(30.3433 0.00130919 0)
(30.2891 0.00128386 0)
(30.2379 0.00125948 0)
(30.1894 0.00123571 0)
(30.1435 0.00121208 0)
(30.1002 0.00118823 0)
(30.0592 0.00116353 0)
(30.0205 0.00113747 0)
(29.9841 0.00110923 0)
(29.9499 0.00107789 0)
(29.9179 0.0010422 0)
(29.8881 0.00100133 0)
(29.8605 0.000952995 0)
(29.8354 0.000895944 0)
(29.8126 0.000827363 0)
(29.7924 0.000745161 0)
(29.7751 0.000646112 0)
(29.7607 0.000526561 0)
(29.7495 0.000382088 0)
(29.742 0.000209227 0)
(29.7383 1.09047e-06 0)
(29.739 -0.000247635 0)
(29.7446 -0.000546106 0)
(29.7554 -0.000902563 0)
(29.7726 -0.00132949 0)
(29.7962 -0.00183476 0)
(29.828 -0.00244939 0)
(29.8615 -0.00307988 0)
(29.8921 -0.0036718 0)
(29.9262 -0.00427634 0)
(29.9641 -0.00496979 0)
(30.0057 -0.00571383 0)
(30.0512 -0.00654144 0)
(30.1003 -0.00744139 0)
(30.154 -0.00843582 0)
(30.2111 -0.0095263 0)
(30.2737 -0.0107174 0)
(30.3391 -0.0120905 0)
(30.4117 -0.0135101 0)
(30.4854 -0.0153557 0)
(30.5699 -0.0169917 0)
(30.6512 -0.0195985 0)
(30.7517 -0.0214036 0)
(30.8392 -0.0251272 0)
(30.9633 -0.0274407 0)
(31.0561 -0.0321461 0)
(31.2152 -0.0373186 0)
(31.3113 -0.0414094 0)
(31.5372 -0.0554243 0)
(31.6111 -0.066759 0)
(32.0325 -0.0921449 0)
(31.9386 -0.295334 0)
(34.1236 -0.0204277 0)
(36.6835 -0.00651301 0)
(38.0101 0.00181775 0)
(38.0237 0.00582803 0)
(37.9525 0.00614572 0)
(37.5861 0.00637403 0)
(37.2294 0.00590761 0)
(36.8243 0.00561558 0)
(36.439 0.00520784 0)
(36.0657 0.00487403 0)
(35.7171 0.00455569 0)
(35.3908 0.00427737 0)
(35.0889 0.00402043 0)
(34.8093 0.0037979 0)
(34.5508 0.00359205 0)
(34.3122 0.00340778 0)
(34.0914 0.00324627 0)
(33.8869 0.00309497 0)
(33.6978 0.00295805 0)
(33.5223 0.00283595 0)
(33.3592 0.00272415 0)
(33.2076 0.00262107 0)
(33.0664 0.00252583 0)
(32.9348 0.00243976 0)
(32.8119 0.00236079 0)
(32.6969 0.00228694 0)
(32.5893 0.00221911 0)
(32.4885 0.00215647 0)
(32.3939 0.00209774 0)
(32.305 0.00204354 0)
(32.2214 0.00199334 0)
(32.1427 0.00194627 0)
(32.0685 0.00190201 0)
(31.9986 0.00186033 0)
(31.9326 0.00182152 0)
(31.8703 0.00178482 0)
(31.8113 0.00174978 0)
(31.7556 0.0017162 0)
(31.7029 0.00168388 0)
(31.653 0.00165235 0)
(31.6058 0.00162101 0)
(31.5612 0.00158937 0)
(31.519 0.00155662 0)
(31.4792 0.00152209 0)
(31.4416 0.00148467 0)
(31.4063 0.00144317 0)
(31.3733 0.00139595 0)
(31.3425 0.00134186 0)
(31.3141 0.00127795 0)
(31.288 0.00120254 0)
(31.2644 0.00111196 0)
(31.2435 0.00100339 0)
(31.2253 0.00087263 0)
(31.2102 0.000714861 0)
(31.1984 0.000524374 0)
(31.1902 0.000296428 0)
(31.186 2.21779e-05 0)
(31.1861 -0.00030575 0)
(31.1912 -0.000698306 0)
(31.2015 -0.00116764 0)
(31.2183 -0.00172905 0)
(31.2414 -0.0023939 0)
(31.2728 -0.00320243 0)
(31.306 -0.00402731 0)
(31.3363 -0.00480042 0)
(31.3702 -0.00559128 0)
(31.4078 -0.00649554 0)
(31.4491 -0.00746841 0)
(31.4943 -0.00854668 0)
(31.5431 -0.00972211 0)
(31.5963 -0.0110154 0)
(31.6529 -0.0124404 0)
(31.715 -0.013986 0)
(31.7798 -0.0157772 0)
(31.8516 -0.0176131 0)
(31.9246 -0.0200026 0)
(32.0078 -0.0221136 0)
(32.0885 -0.0254611 0)
(32.1868 -0.0277885 0)
(32.2738 -0.0325409 0)
(32.3945 -0.0354687 0)
(32.4862 -0.0415967 0)
(32.6416 -0.0476516 0)
(32.7336 -0.0538883 0)
(32.9563 -0.0696947 0)
(33.0244 -0.0841572 0)
(33.4115 -0.120042 0)
(33.3655 -0.297388 0)
(34.5134 -0.0318258 0)
(37.1653 -0.0116383 0)
(38.6097 -0.000112678 0)
(38.7535 0.00569802 0)
(38.8099 0.0065982 0)
(38.5562 0.00728338 0)
(38.2931 0.0069563 0)
(37.9629 0.00677795 0)
(37.6356 0.0063917 0)
(37.3065 0.0060609 0)
(36.9911 0.00572126 0)
(36.6896 0.00541338 0)
(36.406 0.00511956 0)
(36.1399 0.0048595 0)
(35.891 0.0046144 0)
(35.6594 0.0043919 0)
(35.4434 0.00419454 0)
(35.2422 0.00400792 0)
(35.0551 0.00383788 0)
(34.8807 0.00368519 0)
(34.7181 0.00354451 0)
(34.5664 0.00341428 0)
(34.4248 0.00329364 0)
(34.2925 0.0031841 0)
(34.1686 0.00308332 0)
(34.0525 0.00298888 0)
(33.9438 0.0029019 0)
(33.8416 0.00282144 0)
(33.7457 0.00274591 0)
(33.6554 0.00267608 0)
(33.5705 0.0026113 0)
(33.4905 0.00255049 0)
(33.415 0.00249326 0)
(33.3437 0.00243933 0)
(33.2765 0.00238904 0)
(33.2129 0.00234144 0)
(33.1528 0.00229599 0)
(33.0958 0.00225241 0)
(33.042 0.00221044 0)
(32.991 0.00216947 0)
(32.9427 0.00212875 0)
(32.8971 0.00208763 0)
(32.8539 0.00204509 0)
(32.8131 0.00200023 0)
(32.7746 0.00195163 0)
(32.7385 0.00189776 0)
(32.7046 0.00183652 0)
(32.673 0.00176633 0)
(32.6437 0.0016835 0)
(32.6169 0.00158577 0)
(32.5926 0.00146847 0)
(32.5709 0.00132791 0)
(32.5521 0.00115867 0)
(32.5363 0.000954532 0)
(32.5239 0.000708295 0)
(32.515 0.000413557 0)
(32.5102 5.92417e-05 0)
(32.5097 -0.0003646 0)
(32.5142 -0.000870932 0)
(32.5239 -0.00147672 0)
(32.54 -0.00220043 0)
(32.5625 -0.00305778 0)
(32.5933 -0.0041002 0)
(32.6259 -0.00515883 0)
(32.6558 -0.00614965 0)
(32.6891 -0.00716462 0)
(32.7262 -0.00832158 0)
(32.7669 -0.00956845 0)
(32.8114 -0.0109465 0)
(32.8595 -0.0124506 0)
(32.912 -0.0141005 0)
(32.9679 -0.0159235 0)
(33.0289 -0.0178912 0)
(33.0928 -0.0201768 0)
(33.1633 -0.0225096 0)
(33.2353 -0.0255341 0)
(33.3167 -0.0282191 0)
(33.3963 -0.0324157 0)
(33.492 -0.0353866 0)
(33.5782 -0.0413083 0)
(33.6948 -0.0449791 0)
(33.7856 -0.0527685 0)
(33.9357 -0.0598033 0)
(34.0259 -0.0685943 0)
(34.2398 -0.0864345 0)
(34.3094 -0.10408 0)
(34.6586 -0.150933 0)
(34.6394 -0.300073 0)
(34.8748 -0.0460769 0)
(37.5862 -0.018105 0)
(39.1112 -0.002782 0)
(39.3504 0.00516914 0)
(39.5055 0.00677134 0)
(39.346 0.00803362 0)
(39.1677 0.00791377 0)
(38.9113 0.00791717 0)
(38.6462 0.00760138 0)
(38.3684 0.00731487 0)
(38.0943 0.00698459 0)
(37.826 0.00667038 0)
(37.5687 0.0063564 0)
(37.3233 0.00607059 0)
(37.0908 0.00579401 0)
(36.8718 0.00553826 0)
(36.6657 0.00530774 0)
(36.4722 0.00508676 0)
(36.291 0.00488356 0)
(36.121 0.00469935 0)
(35.9618 0.00452812 0)
(35.8126 0.00436868 0)
(35.6727 0.00422039 0)
(35.5416 0.00408493 0)
(35.4185 0.00395979 0)
(35.3028 0.00384211 0)
(35.1942 0.00373334 0)
(35.092 0.0036325 0)
(34.9958 0.00353765 0)
(34.9052 0.00344972 0)
(34.8198 0.00336797 0)
(34.7392 0.00329109 0)
(34.6631 0.00321865 0)
(34.5912 0.00315033 0)
(34.5232 0.00308647 0)
(34.4589 0.00302596 0)
(34.3981 0.00296816 0)
(34.3404 0.00291268 0)
(34.2858 0.0028592 0)
(34.2341 0.00280695 0)
(34.1851 0.00275499 0)
(34.1387 0.00270249 0)
(34.0949 0.00264819 0)
(34.0534 0.0025909 0)
(34.0142 0.00252883 0)
(33.9774 0.00246007 0)
(33.9429 0.00238193 0)
(33.9107 0.00229232 0)
(33.8808 0.00218667 0)
(33.8533 0.00206202 0)
(33.8284 0.00191253 0)
(33.8062 0.0017334 0)
(33.7868 0.00151778 0)
(33.7704 0.00125775 0)
(33.7574 0.000944412 0)
(33.7479 0.000569185 0)
(33.7425 0.000118481 0)
(33.7414 -0.000420757 0)
(33.7453 -0.00106384 0)
(33.7543 -0.00183363 0)
(33.7697 -0.00275207 0)
(33.7914 -0.00384036 0)
(33.8214 -0.00516329 0)
(33.8532 -0.00650179 0)
(33.8825 -0.00775214 0)
(33.9151 -0.00903518 0)
(33.9514 -0.0104934 0)
(33.9913 -0.0120663 0)
(34.035 -0.0138013 0)
(34.0822 -0.0156956 0)
(34.1336 -0.0177691 0)
(34.1884 -0.020063 0)
(34.2482 -0.0225314 0)
(34.3109 -0.0253984 0)
(34.3798 -0.0283225 0)
(34.4504 -0.0320856 0)
(34.5298 -0.0354622 0)
(34.608 -0.0406272 0)
(34.7007 -0.0443923 0)
(34.7857 -0.0516288 0)
(34.8979 -0.0562226 0)
(34.9879 -0.0658953 0)
(35.1314 -0.0741198 0)
(35.2215 -0.0857928 0)
(35.4231 -0.106019 0)
(35.4974 -0.127189 0)
(35.8092 -0.18364 0)
(35.8049 -0.306964 0)
(35.2189 -0.0637361 0)
(37.9656 -0.0261398 0)
(39.5444 -0.00629641 0)
(39.8532 0.00419295 0)
(40.0829 0.00662499 0)
(39.9987 0.00858657 0)
(39.892 0.00873357 0)
(39.7023 0.0089822 0)
(39.4971 0.0087836 0)
(39.2722 0.00858494 0)
(39.0435 0.00829961 0)
(38.8141 0.00800898 0)
(38.5893 0.00769906 0)
(38.371 0.00740667 0)
(38.1609 0.00711339 0)
(37.9605 0.00683572 0)
(37.7696 0.00658024 0)
(37.5886 0.0063306 0)
(37.4176 0.00609826 0)
(37.2559 0.00588502 0)
(37.1035 0.00568435 0)
(36.9599 0.00549596 0)
(36.8245 0.00531979 0)
(36.697 0.00515755 0)
(36.5769 0.00500678 0)
(36.4636 0.00486429 0)
(36.3568 0.00473197 0)
(36.2561 0.00460887 0)
(36.1611 0.00449276 0)
(36.0714 0.00438474 0)
(35.9866 0.00428398 0)
(35.9065 0.00418897 0)
(35.8307 0.00409931 0)
(35.759 0.0040146 0)
(35.6911 0.00393518 0)
(35.6268 0.00385982 0)
(35.5658 0.00378775 0)
(35.5081 0.00371848 0)
(35.4533 0.00365159 0)
(35.4013 0.00358615 0)
(35.3521 0.00352102 0)
(35.3054 0.00345514 0)
(35.2612 0.00338695 0)
(35.2194 0.00331494 0)
(35.18 0.00323689 0)
(35.1428 0.00315039 0)
(35.1079 0.00305215 0)
(35.0753 0.00293933 0)
(35.045 0.00280642 0)
(35.0172 0.00264957 0)
(34.9919 0.00246158 0)
(34.9692 0.00223629 0)
(34.9494 0.00196512 0)
(34.9326 0.00163817 0)
(34.9191 0.00124456 0)
(34.9092 0.000772889 0)
(34.9032 0.000206785 0)
(34.9015 -0.000470445 0)
(34.9048 -0.00127704 0)
(34.9131 -0.00224289 0)
(34.9278 -0.00339374 0)
(34.9487 -0.00475774 0)
(34.9777 -0.0064155 0)
(35.0086 -0.00808774 0)
(35.0371 -0.00964546 0)
(35.0688 -0.0112476 0)
(35.1043 -0.0130629 0)
(35.1432 -0.0150223 0)
(35.1859 -0.0171804 0)
(35.2319 -0.0195359 0)
(35.2822 -0.0221102 0)
(35.3357 -0.0249591 0)
(35.394 -0.0280196 0)
(35.4553 -0.0315686 0)
(35.5224 -0.0351939 0)
(35.5914 -0.0398141 0)
(35.6685 -0.0440208 0)
(35.745 -0.0502868 0)
(35.8347 -0.0550299 0)
(35.9182 -0.0637326 0)
(36.0258 -0.0694928 0)
(36.115 -0.0812505 0)
(36.2513 -0.0909785 0)
(36.3419 -0.105855 0)
(36.5298 -0.128751 0)
(36.6086 -0.154202 0)
(36.8862 -0.217525 0)
(36.8905 -0.320036 0)
(35.5547 -0.0854575 0)
(38.3164 -0.0360154 0)
(39.9293 -0.0107866 0)
(40.2881 0.00271109 0)
(40.5733 0.00611792 0)
(40.5476 0.00891096 0)
(40.4988 0.0093798 0)
(40.3657 0.00993201 0)
(40.214 0.00989128 0)
(40.0388 0.00982064 0)
(39.8553 0.00961492 0)
(39.6664 0.00937953 0)
(39.4774 0.00910177 0)
(39.2904 0.00882708 0)
(39.1076 0.0085377 0)
(38.9305 0.00825555 0)
(38.7596 0.0079892 0)
(38.5958 0.0077222 0)
(38.4394 0.00746993 0)
(38.2902 0.00723475 0)
(38.1484 0.00700987 0)
(38.0137 0.00679642 0)
(37.886 0.00659526 0)
(37.765 0.00640813 0)
(37.6504 0.00623282 0)
(37.5418 0.00606597 0)
(37.4391 0.00591006 0)
(37.3418 0.00576435 0)
(37.2497 0.00562632 0)
(37.1624 0.00549732 0)
(37.0798 0.00537645 0)
(37.0014 0.00526204 0)
(36.9272 0.00515381 0)
(36.8568 0.0050513 0)
(36.79 0.00495481 0)
(36.7266 0.00486306 0)
(36.6664 0.00477517 0)
(36.6093 0.00469048 0)
(36.5551 0.00460854 0)
(36.5036 0.00452817 0)
(36.4547 0.00444804 0)
(36.4083 0.00436681 0)
(36.3643 0.00428263 0)
(36.3227 0.00419357 0)
(36.2833 0.00409692 0)
(36.2462 0.00398967 0)
(36.2114 0.0038678 0)
(36.1788 0.0037276 0)
(36.1485 0.00356251 0)
(36.1205 0.00336748 0)
(36.0951 0.00313383 0)
(36.0723 0.00285368 0)
(36.0523 0.00251647 0)
(36.0353 0.00210991 0)
(36.0215 0.00162081 0)
(36.0112 0.00103425 0)
(36.0049 0.000330729 0)
(36.0027 -0.00051056 0)
(36.0054 -0.00151178 0)
(36.0131 -0.00271078 0)
(36.0271 -0.00413776 0)
(36.0471 -0.00582948 0)
(36.0752 -0.00788522 0)
(36.1051 -0.00995393 0)
(36.1328 -0.0118737 0)
(36.1637 -0.0138542 0)
(36.1982 -0.0160906 0)
(36.236 -0.0185066 0)