/*--------------------------------*- C++ -*----------------------------------*\
| =========                 |                                                 |
| \\      /  F ield         | OpenFOAM: The Open Source CFD Toolbox           |
|  \\    /   O peration     | Version:  2306                                  |
|   \\  /    A nd           | Website:  www.openfoam.com                      |
|    \\/     M anipulation  |                                                 |
\*---------------------------------------------------------------------------*/
FoamFile
{
    version     2.0;
    format      ascii;
    arch        "LSB;label=32;scalar=64";
    class       volVectorField;
    location    "1800";
    object      wallShearStress;
}
// * * * * * * * * * * * * * * * * * * * * * * * * * * * * * * * * * * * * * //

dimensions      [0 2 -2 0 0 0 0];

internalField   uniform (0 0 0);

boundaryField
{
    inlet
    {
        type            calculated;
        value           uniform (0 0 0);
    }
    outlet
    {
        type            calculated;
        value           uniform (0 0 0);
    }
    lowerWallStartup
    {
        type            symmetryPlane;
    }
    upperWallStartup
    {
        type            symmetryPlane;
    }
    upperWall
    {
        type            calculated;
        value           nonuniform List<vector> 
218
(
(-10.6338 0.00226479 0)
(-7.30011 0.000819835 0)
(-6.5665 0.000170095 0)
(-6.0432 8.49473e-05 0)
(-5.74151 5.90342e-05 0)
(-5.48029 4.57486e-05 0)
(-5.29054 3.79363e-05 0)
(-5.12593 3.27097e-05 0)
(-4.99091 2.8796e-05 0)
(-4.87344 2.59042e-05 0)
(-4.77171 2.35042e-05 0)
(-4.68225 2.15834e-05 0)
(-4.60293 1.99623e-05 0)
(-4.53207 1.85899e-05 0)
(-4.46855 1.73868e-05 0)
(-4.41115 1.63682e-05 0)
(-4.35917 1.54449e-05 0)
(-4.31185 1.46469e-05 0)
(-4.26863 1.39279e-05 0)
(-4.22905 1.32728e-05 0)
(-4.19268 1.271e-05 0)
(-4.15917 1.2164e-05 0)
(-4.12822 1.17183e-05 0)
(-4.09958 1.12361e-05 0)
(-4.07302 1.08941e-05 0)
(-4.04833 1.04626e-05 0)
(-4.02533 1.02083e-05 0)
(-4.00388 9.79736e-06 0)
(-3.98385 9.62212e-06 0)
(-3.96511 9.22305e-06 0)
(-3.94754 9.12059e-06 0)
(-3.93107 8.72323e-06 0)
(-3.91559 8.68944e-06 0)
(-3.90103 8.28425e-06 0)
(-3.88731 8.30853e-06 0)
(-3.87439 7.89278e-06 0)
(-3.86219 7.9742e-06 0)
(-3.85066 7.54745e-06 0)
(-3.83974 7.68328e-06 0)
(-3.82941 7.24976e-06 0)
(-3.81958 7.43859e-06 0)
(-3.81026 7.00836e-06 0)
(-3.80135 7.25179e-06 0)
(-3.79287 6.84082e-06 0)
(-3.7847 7.14349e-06 0)
(-3.77689 6.77806e-06 0)
(-3.76928 7.1492e-06 0)
(-3.76194 6.86654e-06 0)
(-3.7547 7.31608e-06 0)
(-3.74763 7.16781e-06 0)
(-3.74054 7.70809e-06 0)
(-3.73352 7.7554e-06 0)
(-3.72633 8.40333e-06 0)
(-3.7191 8.70059e-06 0)
(-3.71154 9.49988e-06 0)
(-3.70382 1.00706e-05 0)
(-3.69561 1.11113e-05 0)
(-3.68713 1.19769e-05 0)
(-3.67801 1.33081e-05 0)
(-3.66849 1.45121e-05 0)
(-3.65823 1.61084e-05 0)
(-3.64749 1.76573e-05 0)
(-3.63592 1.98473e-05 0)
(-3.62572 2.09765e-05 0)
(-3.61737 2.12307e-05 0)
(-3.60903 2.23378e-05 0)
(-3.60061 2.31875e-05 0)
(-3.59221 2.45153e-05 0)
(-3.58377 2.54642e-05 0)
(-3.5754 2.682e-05 0)
(-3.56703 2.75611e-05 0)
(-3.55878 2.88697e-05 0)
(-3.55058 2.94623e-05 0)
(-3.54252 3.06127e-05 0)
(-3.53457 3.12e-05 0)
(-3.52679 3.20364e-05 0)
(-3.51911 3.26268e-05 0)
(-3.51171 3.32676e-05 0)
(-3.50433 3.37881e-05 0)
(-3.49736 3.42182e-05 0)
(-3.49026 3.4938e-05 0)
(-3.48384 3.47638e-05 0)
(-3.47689 3.64518e-05 0)
(-3.47125 3.44585e-05 0)
(-3.46409 3.83726e-05 0)
(-3.45991 3.33733e-05 0)
(-3.45131 4.03602e-05 0)
(-3.45046 5.42905e-05 0)
(-3.44192 4.989e-05 -1.76821e-20)
(-3.4349 3.55506e-05 0)
(-3.42961 3.64935e-05 1.7486e-20)
(-3.42402 4.21976e-05 -1.73887e-20)
(-3.41818 4.2675e-05 0)
(-3.41238 4.1437e-05 -1.71868e-20)
(-3.40656 4.2374e-05 0)
(-3.40073 4.17541e-05 0)
(-3.39484 4.27581e-05 0)
(-3.38892 4.19526e-05 0)
(-3.38294 4.28773e-05 1.66489e-20)
(-3.37694 4.25088e-05 0)
(-3.37087 4.26024e-05 -1.64206e-20)
(-3.36478 4.27787e-05 0)
(-3.35864 4.28847e-05 -1.61849e-20)
(-3.35248 4.28531e-05 1.60647e-20)
(-3.34628 4.32881e-05 0)
(-3.34006 4.29338e-05 1.58186e-20)
(-3.33379 4.3934e-05 0)
(-3.3275 4.23668e-05 -1.55658e-20)
(-3.32115 4.38868e-05 0)
(-3.31478 4.19336e-05 0)
(-3.30836 4.33713e-05 0)
(-3.30194 4.1397e-05 0)
(-3.29547 4.30468e-05 0)
(-3.28901 4.11507e-05 0)
(-3.28253 4.29673e-05 0)
(-3.27604 4.17535e-05 1.4489e-20)
(-3.26955 4.26314e-05 -1.43474e-20)
(-3.26305 4.17652e-05 1.42051e-20)
(-3.25653 4.2706e-05 -1.40609e-20)
(-3.25001 4.15468e-05 0)
(-3.24347 4.24202e-05 -1.37692e-20)
(-3.23695 4.11603e-05 0)
(-3.23041 4.21753e-05 -1.34726e-20)
(-3.2239 4.0777e-05 0)
(-3.21739 4.25541e-05 0)
(-3.21091 3.98369e-05 -1.30202e-20)
(-3.20443 4.24394e-05 0)
(-3.19798 3.93049e-05 -1.27138e-20)
(-3.19152 4.18157e-05 0)
(-3.1851 3.84869e-05 -1.24041e-20)
(-3.17866 4.09116e-05 0)
(-3.1723 3.76986e-05 -1.20914e-20)
(-3.16592 3.98027e-05 0)
(-3.15962 3.75093e-05 0)
(-3.15331 3.84848e-05 -1.16175e-20)
(-3.14708 3.67096e-05 0)
(-3.14084 3.75402e-05 -1.12994e-20)
(-3.13468 3.55528e-05 0)
(-3.1285 3.61618e-05 -1.09798e-20)
(-3.12242 3.39954e-05 0)
(-3.11633 3.48218e-05 -1.0659e-20)
(-3.11034 3.23511e-05 0)
(-3.10435 3.40516e-05 0)
(-3.09846 3.02966e-05 -1.01769e-20)
(-3.09257 3.28575e-05 0)
(-3.08679 2.88876e-05 -9.85512e-21)
(-3.08101 3.14962e-05 0)
(-3.07535 2.76407e-05 -9.53385e-21)
(-3.06969 3.04523e-05 0)
(-3.06415 2.67285e-05 0)
(-3.05863 2.95684e-05 -9.05366e-21)
(-3.05323 2.64943e-05 -8.89473e-21)
(-3.04784 2.83317e-05 0)
(-3.04259 2.55016e-05 -8.57776e-21)
(-3.03733 2.75158e-05 0)
(-3.03221 2.43735e-05 -8.26297e-21)
(-3.02709 2.64525e-05 0)
(-3.02212 2.3282e-05 -7.95069e-21)
(-3.01713 2.56238e-05 0)
(-3.01233 2.20661e-05 -7.64137e-21)
(-3.00748 2.51605e-05 -7.48763e-21)
(-3.00284 2.02505e-05 0)
(-2.99813 2.39953e-05 -7.18341e-21)
(-2.99364 1.89051e-05 0)
(-2.98906 2.26098e-05 -6.88288e-21)
(-2.98473 1.78221e-05 0)
(-2.98031 2.15139e-05 0)
(-2.97616 1.74473e-05 -6.43996e-21)
(-2.97189 2.03423e-05 6.29415e-21)
(-2.96792 1.65247e-05 -6.15013e-21)
(-2.96378 1.9482e-05 6.00664e-21)
(-2.96 1.53537e-05 0)
(-2.95597 1.83165e-05 0)
(-2.95237 1.42553e-05 0)
(-2.94847 1.7107e-05 5.44613e-21)
(-2.94508 1.33613e-05 0)
(-2.94127 1.68964e-05 0)
(-2.93813 1.21285e-05 0)
(-2.93437 1.60875e-05 0)
(-2.93153 1.1947e-05 0)
(-2.92772 1.45131e-05 0)
(-2.92535 1.17492e-05 0)
(-2.92118 1.27678e-05 -4.38988e-21)
(-2.91983 1.15239e-05 4.26255e-21)
(-2.91418 1.38309e-06 0)
(-2.91328 2.01903e-05 0)
(-2.91146 2.11408e-05 -1.03627e-21)
(-2.90837 2.03971e-05 8.76128e-22)
(-2.90517 1.96824e-05 1.47309e-21)
(-2.90171 1.98453e-05 1.23048e-21)
(-2.89778 2.11638e-05 2.03936e-21)
(-2.89347 2.1629e-05 1.67383e-21)
(-2.88871 2.33245e-05 1.35751e-21)
(-2.88358 2.48796e-05 0)
(-2.87804 2.6576e-05 1.70004e-21)
(-2.87224 2.98768e-05 0)
(-2.86616 3.29603e-05 -1.9155e-21)
(-2.86006 3.78013e-05 0)
(-2.85395 4.25363e-05 0)
(-2.84824 4.83883e-05 0)
(-2.84292 5.53738e-05 0)
(-2.83855 6.29444e-05 0)
(-2.83509 6.92073e-05 0)
(-2.83308 7.51954e-05 -3.14105e-21)
(-2.83249 7.78715e-05 0)
(-2.83336 7.77602e-05 8.12512e-21)
(-2.83614 7.02797e-05 -8.24143e-21)
(-2.83926 6.05676e-05 7.85208e-21)
(-2.84522 3.22711e-05 0)
(-2.84846 1.29656e-05 1.27745e-20)
(-2.85744 -5.93766e-05 0)
(-2.85758 -6.71788e-05 0)
(-2.87098 -0.000263782 0)
(-2.8637 -0.000178023 0)
(-2.88865 -0.000780251 0)
(-2.86126 -0.000249398 0)
(-2.94857 -0.00279609 -3.81158e-20)
(-2.69495 -0.00230851 0)
)
;
    }
    lowerWall
    {
        type            calculated;
        value           nonuniform List<vector> 
266
(
(-10.9007 -0.00234408 0)
(-7.38171 -0.000897996 0)
(-6.61476 -0.000184284 0)
(-6.07693 -9.0241e-05 0)
(-5.76746 -6.19999e-05 0)
(-5.50126 -4.76497e-05 0)
(-5.30816 -3.93416e-05 0)
(-5.14119 -3.38018e-05 0)
(-5.00421 -2.97206e-05 0)
(-4.88524 -2.66294e-05 0)
(-4.7826 -2.41704e-05 0)
(-4.6919 -2.21796e-05 0)
(-4.61186 -2.04762e-05 0)
(-4.54031 -1.90805e-05 0)
(-4.47604 -1.78349e-05 0)
(-4.41819 -1.67654e-05 0)
(-4.36568 -1.58486e-05 0)
(-4.31786 -1.50078e-05 0)
(-4.2743 -1.42631e-05 0)
(-4.23435 -1.36122e-05 0)
(-4.19766 -1.30202e-05 0)
(-4.16383 -1.24816e-05 0)
(-4.13263 -1.19883e-05 0)
(-4.10375 -1.15494e-05 0)
(-4.07695 -1.11471e-05 0)
(-4.05204 -1.07733e-05 0)
(-4.02887 -1.04325e-05 0)
(-4.00724 -1.01189e-05 0)
(-3.98704 -9.82517e-06 0)
(-3.96815 -9.55579e-06 0)
(-3.95045 -9.30686e-06 0)
(-3.93384 -9.07266e-06 0)
(-3.91824 -8.85248e-06 0)
(-3.90358 -8.6445e-06 0)
(-3.88978 -8.45058e-06 0)
(-3.87677 -8.26506e-06 0)
(-3.86452 -8.08672e-06 0)
(-3.85295 -7.91396e-06 0)
(-3.84203 -7.74639e-06 0)
(-3.83172 -7.58076e-06 0)
(-3.82199 -7.41424e-06 0)
(-3.81281 -7.24401e-06 0)
(-3.80415 -7.0662e-06 0)
(-3.79599 -6.87612e-06 0)
(-3.78834 -6.66803e-06 0)
(-3.78116 -6.43651e-06 0)
(-3.77447 -6.16957e-06 0)
(-3.76828 -5.86169e-06 0)
(-3.76258 -5.49451e-06 0)
(-3.75742 -5.06126e-06 0)
(-3.7528 -4.53882e-06 0)
(-3.74878 -3.90154e-06 0)
(-3.74539 -3.13296e-06 0)
(-3.74269 -2.15732e-06 0)
(-3.74074 -9.73632e-07 0)
(-3.73963 5.04866e-07 0)
(-3.73943 2.27471e-06 0)
(-3.74024 4.38874e-06 0)
(-3.74225 6.94021e-06 0)
(-3.74551 9.67935e-06 0)
(-3.7503 1.33118e-05 0)
(-3.7567 1.68657e-05 0)
(-3.76509 2.12135e-05 0)
(-3.77375 2.87297e-05 0)
(-3.78161 3.62163e-05 0)
(-3.79038 4.25064e-05 0)
(-3.80027 4.94555e-05 0)
(-3.81111 5.61785e-05 0)
(-3.82299 6.40627e-05 0)
(-3.83591 7.23214e-05 0)
(-3.85005 8.12537e-05 0)
(-3.8653 8.90538e-05 0)
(-3.88198 9.89465e-05 0)
(-3.89979 0.000108112 0)
(-3.91932 0.000121083 0)
(-3.93996 0.000136032 0)
(-3.96304 0.000155169 0)
(-3.98669 0.000176014 0)
(-4.01526 0.000202283 0)
(-4.04197 0.000223748 0)
(-4.08029 0.000257054 0)
(-4.11025 0.00027688 0)
(-4.16525 0.000318206 0)
(-4.20218 0.00048151 0)
(-4.2878 1.31579e-05 0)
(-4.32878 0.00311242 0)
(-4.58919 -0.00639373 0)
(-4.25334 0.0219977 -0)
(-8.41476 -230.504 0)
(-0.000506375 -0.00602139 0)
(-0.000860748 -0.00341512 8.357e-24)
(-0.00145908 -0.00309885 -8.87602e-24)
(-0.00167956 -0.00299387 0)
(-0.00243335 -0.00287791 0)
(-0.00258108 -0.00282592 0)
(-0.00307502 -0.00280245 0)
(-0.00375356 -0.00276739 0)
(-0.00453309 -0.0026947 -8.82787e-22)
(-0.00550771 -0.00254555 1.13849e-21)
(-0.0067856 -0.00224833 -3.11554e-21)
(-0.00845389 -0.0016762 4.32703e-21)
(-0.0105719 -0.000602368 -0)
(-0.0131017 0.00139989 1.97272e-20)
(-0.0157102 0.00519183 -3.2866e-20)
(-0.0173575 0.0122407 -0)
(-0.0146246 0.0216186 0)
(-0.00541294 0.0279198 0)
(0.0023104 0.0290825 5.29551e-19)
(0.0101768 0.0293219 -4.48649e-19)
(0.0193764 0.0245414 8.50394e-19)
(0.0278693 0.0122425 -9.75564e-19)
(0.0330347 -0.0074003 0)
(0.0336083 -0.027274 1.13558e-18)
(0.0327149 -0.0448431 -8.22169e-19)
(0.0317171 -0.062042 0)
(0.0279008 -0.0763004 0)
(0.0204034 -0.0855414 0)
(0.0088989 -0.0909562 0)
(-0.00652451 -0.0921984 0)
(-0.0241669 -0.0879682 0)
(-0.0405877 -0.0745238 -7.7298e-19)
(-0.0472427 -0.030248 6.20527e-21)
(-0.0166366 -0.0342385 1.01327e-18)
(-0.0359476 -0.100499 0)
(-0.0799957 -0.11637 0)
(-0.106727 -0.0937627 0)
(-0.129086 -0.0802557 0)
(-0.150659 -0.074602 -0)
(-0.169135 -0.06991 2.85072e-19)
(-0.183378 -0.067696 -2.46663e-19)
(-0.196294 -0.0762118 -0)
(-0.211721 -0.103723 0)
(-0.233382 -0.155529 0)
(-0.262815 -0.234621 -8.43887e-20)
(-0.288092 -0.3447 9.25054e-20)
(-0.315268 -0.664257 -0)
(-0.0205479 -0.020006 0)
(-0.0620674 -0.000308661 -4.62484e-22)
(-0.0773443 -0.000255151 0)
(-0.0694618 -0.000608567 -2.40381e-22)
(-0.0730607 0.000833249 -0)
(-0.299318 0.000397894 0)
(-0.0867919 -0.000251213 0)
(-0.0984952 -6.884e-05 -0)
(-0.111163 -1.92485e-05 0)
(-0.117167 0.00018702 -4.18993e-22)
(-0.0793515 0.000602627 0)
(0.0276202 0.00101943 0)
(0.171091 -0.00148869 0)
(0.296238 -0.00130029 0)
(0.414529 -0.000581823 0)
(0.517374 -0.000528465 0)
(0.610211 -0.000494517 0)
(0.695647 -0.000478841 0)
(0.775903 -0.000461585 0)
(0.852206 -0.000449078 0)
(0.925498 -0.000435138 3.07319e-22)
(0.996616 -0.000431653 0)
(1.06612 -0.000431278 3.05519e-22)
(1.13437 -0.000443396 0)
(1.20126 -0.000452312 3.0223e-22)
(1.26657 -0.000466178 0)
(1.32976 -0.000470218 2.97252e-22)
(1.39052 -0.000473764 0)
(1.44845 -0.000469822 0)
(1.50338 -0.000467173 0)
(1.5551 -0.000462061 2.81515e-22)
(1.60343 -0.000460082 2.76307e-22)
(1.64801 -0.000456281 2.70572e-22)
(1.6884 -0.000452514 2.64299e-22)
(1.72405 -0.000444119 2.57484e-22)
(1.75435 -0.000431369 0)
(1.77883 -0.000411975 -0)
(1.79699 -0.000387699 2.33838e-22)
(1.80866 -0.000357186 2.24965e-22)
(1.81358 -0.00032524 2.15653e-22)
(1.81182 -0.000288312 2.05951e-22)
(1.80329 -0.000254071 1.95898e-22)
(1.78808 -0.000215435 1.85546e-22)
(1.76615 -0.000181611 0)
(1.73753 -0.000143175 1.64099e-22)
(1.70218 -0.000109146 1.53088e-22)
(1.66007 -7.04443e-05 1.41944e-22)
(1.61123 -3.46282e-05 1.30703e-22)
(1.55569 4.94087e-06 1.19415e-22)
(1.49364 4.29406e-05 1.08125e-22)
(1.42519 8.30613e-05 0)
(1.35074 0.000122108 8.57298e-23)
(1.2704 0.000161528 7.47199e-23)
(1.18497 0.00019893 6.39093e-23)
(1.09413 0.000235666 5.33195e-23)
(1.00007 0.000269244 4.3041e-23)
(0.89962 0.000306492 3.30127e-23)
(0.798524 0.00314306 0)
(0.74516 0.000657014 2.06202e-23)
(0.587688 -0.00242124 0)
(0.476758 0.000395031 -0)
(0.370514 0.00146 -0)
(0.278315 0.00197076 2.68906e-23)
(0.162834 -0.00098421 0)
(0.0444258 -0.000995787 -0)
(-0.0860756 0.000754702 0)
(-0.17243 0.000737156 -0)
(-0.276749 0.000472239 0)
(-0.379942 0.000470402 -0)
(-0.480211 0.000468834 5.85774e-23)
(-0.578139 0.0004633 0)
(-0.673129 0.000458513 0)
(-0.765234 0.000450205 -0)
(-0.854252 0.000443261 7.22712e-23)
(-0.940144 0.000433098 0)
(-1.02283 0.000424712 0)
(-1.1023 0.00041339 -0)
(-1.17854 0.00040394 0)
(-1.25156 0.000391949 -0)
(-1.32141 0.000381659 -0)
(-1.38811 0.000369294 8.40754e-23)
(-1.45175 0.000358471 0)
(-1.51233 0.000345846 -0)
(-1.57008 0.000334793 8.56699e-23)
(-1.62481 0.000322007 -0)
(-1.67712 0.000310925 8.59134e-23)
(-1.72613 0.000297921 0)
(-1.77382 0.000287747 0)
(-1.8169 0.000274255 -8.52995e-23)
(-1.86151 0.000266303 -0)
(-1.89744 0.000249949 8.4388e-23)
(-1.94152 0.000250779 0)
(-1.96865 0.000219322 -0)
(-2.01421 0.000246813 0)
(-2.03183 0.000176139 0)
(-2.07995 0.000272881 -0)
(-2.09223 0.000113908 7.98257e-23)
(-2.11873 0.000249276 0)
(-2.15413 0.000130979 -0)
(-2.17076 0.000165714 9.22705e-21)
(-2.20336 0.000153317 1.58449e-20)
(-2.2307 0.000149129 0)
(-2.26321 0.000145779 0)
(-2.29582 0.000143337 0)
(-2.33059 0.000142999 -0)
(-2.36609 0.000143992 0)
(-2.40244 0.000147081 -2.40986e-20)
(-2.43882 0.000151731 0)
(-2.4749 0.000158209 -3.35938e-20)
(-2.50985 0.000165642 2.77755e-20)
(-2.54342 0.000173785 0)
(-2.57453 0.000180883 0)
(-2.60342 0.0001869 0)
(-2.6286 0.000188845 4.84782e-20)
(-2.65118 0.000188432 -3.88587e-20)
(-2.66869 0.000181026 0)
(-2.68417 0.000173101 4.93505e-20)
(-2.69286 0.000155633 0)
(-2.70173 0.000145434 6.27198e-20)
(-2.70117 0.00012128 0)
(-2.70591 0.000121702 0)
(-2.69688 9.39279e-05 0)
(-2.70282 0.000123905 0)
(-2.68785 8.38892e-05 0)
(-2.70093 0.000166224 1.43709e-19)
(-2.68192 8.51735e-05 -7.61512e-20)
(-2.6999 0.000258481 0)
(-2.69466 0.000119605 2.81182e-20)
(-2.71417 0.000416861 0)
(-2.83191 0.00010044 0)
)
;
    }
    front
    {
        type            empty;
    }
    back
    {
        type            empty;
    }
}


// ************************************************************************* //
